72
 energy: -105.843588390342 gnorm: 0.329316170255 xtb: 6.7.1 (edcfbbe)
Fe         -16.75100000000000       -6.45400000000000       62.84800000000000
N          -16.22900000000000       -7.44900000000000       64.55400000000000
N          -14.89700000000000       -6.75200000000000       62.09699999999999
N          -17.24900000000000       -5.49000000000000       61.15200000000000
N          -18.56900000000000       -6.14400000000000       63.56400000000000
C          -17.03700000000000       -7.68300000000000       65.63300000000000
C          -16.28000000000000       -8.44400000000000       66.63500000000001
C          -15.04100000000000       -8.63000000000000       66.14300000000000
C          -14.99100000000000       -8.01600000000000       64.83000000000000
C          -13.86600000000000       -7.42000000000000       62.73900000000000
C          -12.69000000000000       -7.44200000000000       61.88700000000000
C          -13.01400000000000       -6.78400000000000       60.74500000000000
C          -14.39000000000000       -6.35800000000000       60.87400000000000
C          -16.44500000000000       -5.26600000000000       60.05900000000000
C          -17.18800000000000       -4.53400000000000       59.01199999999999
C          -18.43900000000000       -4.31800000000000       59.50400000000000
C          -18.46700000000000       -4.91600000000000       60.83700000000000
C          -19.61700000000000       -5.47700000000000       62.94400000000000
C          -20.78100000000000       -5.45500000000000       63.80799999999999
C          -20.45900000000000       -6.11400000000000       64.94199999999999
C          -19.07800000000000       -6.54600000000000       64.78900000000000
C          -18.34900000000000       -7.26300000000000       65.73300000000000
H          -18.87100000000000       -7.52200000000000       66.65400000000000
C          -13.92700000000000       -7.98600000000000       63.97899999999999
H          -13.01700000000000       -8.47200000000000       64.33100000000000
C          -15.12800000000000       -5.66400000000000       59.93400000000000
H          -14.62200000000000       -5.40600000000000       59.00400000000000
C          -19.53700000000000       -4.92800000000000       61.69700000000000
H          -20.44000000000000       -4.43500000000000       61.33700000000000
C          -13.85500000000000       -9.35900000000000       66.79700000000000
H          -14.16000000000000       -9.74200000000000       67.79399999999998
H          -13.00600000000000       -8.65400000000000       66.92600000000000
H          -13.54400000000000      -10.21500000000000       66.16100000000000
C          -16.85400000000000       -8.93000000000000       67.99100000000000
H          -17.94400000000000       -9.11900000000000       67.88599999999998
H          -16.69700000000000       -8.15000000000000       68.76599999999999
H          -16.35200000000000       -9.87400000000000       68.29399999999998
C          -11.36500000000000       -8.10400000000000       62.25500000000000
H          -11.52900000000000       -9.18800000000000       62.43200000000000
H          -10.96100000000000       -7.64500000000000       63.18200000000000
H          -10.64000000000000       -7.98100000000000       61.42200000000000
C          -12.14000000000000       -6.50600000000000       59.50200000000000
H          -11.77000000000000       -5.51000000000000       59.22700000000000
C          -11.81800000000000       -7.74700000000000       58.66000000000000
H          -12.19900000000000       -8.73600000000000       58.95400000000000
H          -11.20200000000000       -7.66200000000000       57.75300000000000
C          -16.55900000000000       -4.13300000000000       57.64300000000000
H          -16.56400000000000       -5.01000000000000       56.96200000000000
H          -15.51000000000000       -3.80000000000000       57.79500000000000
H          -17.15400000000000       -3.31600000000000       57.18200000000000
C          -19.67599999999999       -3.60100000000000       58.89300000000000
H          -20.42100000000000       -3.08500000000000       59.51499999999999
C          -19.83400000000000       -3.63300000000000       57.35800000000000
H          -19.09100000000000       -4.14800000000000       56.73100000000000
H          -20.69100000000000       -3.14100000000000       56.87500000000000
C          -22.12500000000000       -4.78600000000000       63.44499999999999
H          -22.53800000000000       -5.25700000000000       62.52700000000000
H          -21.96600000000000       -3.70300000000000       63.25400000000000
H          -22.84900000000000       -4.92200000000000       64.27700000000000
C          -21.38000000000000       -6.36100000000000       66.16000000000000
H          -22.40500000000000       -6.60500000000000       65.80700000000000
H          -21.42400000000000       -5.44600000000000       66.78900000000000
H          -20.99200000000000       -7.21400000000000       66.75700000000001
O          -16.08300000000000       -4.56700000000000       64.04600000000001
H          -15.80000000000000       -4.88500000000000       64.90300000000001
H          -16.08600000000000       -3.72000000000000       63.77399999999999
C          -17.23100000000000       -9.79700000000000       62.77000000000000
H          -17.57000000000000      -10.74100000000000       62.29300000000000
H          -17.86700000000000       -9.61600000000000       63.66300000000000
H          -16.17800000000000       -9.93600000000000       63.09600000000000
S          -17.35100000000000       -8.40000000000000       61.62200000000000
H          -16.36100000000000       -8.80700000000000       60.84100000000000
72
 energy: -105.939085221986 gnorm: 0.146301952782 xtb: 6.7.1 (edcfbbe)
Fe         -16.75022912338881       -6.45835656437998       62.83210815235601
N          -16.22876844998627       -7.44745563600206       64.55283135260949
N          -14.88100778445073       -6.74311516735897       62.09616690289593
N          -17.25234717953001       -5.46411104852524       61.13788262581599
N          -18.58138347531062       -6.14824102989575       63.57000379054379
C          -17.03177740880295       -7.68563089037062       65.63087358676897
C          -16.29100611571103       -8.44478850518470       66.63972468280828
C          -15.04042618948062       -8.63314060176922       66.14526343443187
C          -15.00401794025360       -8.01207204027824       64.83429659900717
C          -13.86050150033870       -7.41245976743473       62.72549917784821
C          -12.68376647421648       -7.44153550332228       61.87562930138358
C          -13.00552133961103       -6.78384263817548       60.72234403154291
C          -14.38649006123569       -6.35026945902884       60.87670011619482
C          -16.45320285162022       -5.25572853757540       60.04809802106092
C          -17.18918347584939       -4.53196732192807       59.00422421836385
C          -18.45608292819147       -4.31099491154306       59.48540184493777
C          -18.46656590813705       -4.90379294694872       60.82841184510794
C          -19.61429386566961       -5.48037758021309       62.95042352695599
C          -20.78527354473519       -5.45301750714347       63.80563676334069
C          -20.45926446047132       -6.11780136989668       64.94588265141130
C          -19.07606019883410       -6.54703292289891       64.78953086923069
C          -18.34881860176220       -7.26394225691427       65.73328749531242
H          -18.86802290521220       -7.52005651288246       66.65078207767728
C          -13.92332982282779       -7.98661568223192       63.97961813446869
H          -13.01895292756651       -8.47228367770407       64.33129634402420
C          -15.13001653921841       -5.66038996557125       59.93051110996571
H          -14.62185806366942       -5.41005930893252       59.00613822047348
C          -19.54424105686461       -4.92135102776290       61.69168505643982
H          -20.44503778733907       -4.43508681959487       61.33606617224413
C          -13.87011158303048       -9.35110459533963       66.79002152347482
H          -14.15583748448732       -9.73447170714815       67.77674960145404
H          -13.02149952115647       -8.66623969406708       66.92038202752023
H          -13.54816595950926      -10.19814176571520       66.16944168187378
C          -16.85104695060922       -8.92271844951127       67.97167016158791
H          -17.92684973294865       -9.11618717656042       67.88590508304927
H          -16.69824457675801       -8.16308382979092       68.75047586716525
H          -16.35987942580823       -9.85289916999855       68.28575593927503
C          -11.37735200243208       -8.09835465267404       62.24956457590721
H          -11.52680050083543       -9.17167096805704       62.42965133326304
H          -10.96697382009230       -7.65139745409830       63.16529125771655
H          -10.65295548336048       -7.98019589900341       61.43496818726552
C          -12.15263023158007       -6.58909583649464       59.48885820389570
H          -11.79316049981490       -5.58312408782191       59.23225944102177
C          -11.83039349626846       -7.68891643217157       58.70085370369931
H          -12.19476193577142       -8.68189987819150       58.96328653955224
H          -11.22362050046846       -7.63042780985614       57.79591069274802
C          -16.56946510045725       -4.13861876006304       57.66587854654066
H          -16.56537883879566       -4.99717192770635       56.97937026218540
H          -15.53197483383659       -3.80534776909950       57.79799588287663
H          -17.14332328357793       -3.32847656962212       57.19948306840006
C          -19.63490806690429       -3.63224897089807       58.82520836890875
H          -20.37268733411530       -3.12365407035023       59.46315183592636
C          -19.82017368378547       -3.63097571126201       57.43573311229170
H          -19.11483069168197       -4.13857824777505       56.78021293852832
H          -20.66419344104882       -3.15157604760442       56.93397484864137
C          -22.10761269929522       -4.79562697047497       63.44710979161870
H          -22.52834713610482       -5.25068478830356       62.54030059010299
H          -21.96665176244824       -3.72289297183511       63.25917260854123
H          -22.83111810332755       -4.91855117938575       64.26228547305456
C          -21.36463891629493       -6.36128804360815       66.14431974324245
H          -22.38292733393772       -6.60111760640152       65.80995326866453
H          -21.41829343034061       -5.46385207298904       66.77667540797744
H          -20.99743186916682       -7.19887857074564       66.74801054768056
O          -16.08570000892905       -4.60014403979058       64.03530655886166
H          -15.80039976511305       -4.88078235555991       64.90308118213498
H          -16.08513817805214       -3.69899456328867       63.77140852145085
C          -17.22700258590431       -9.81481178210787       62.77667337786923
H          -17.56913195879880      -10.73561981851000       62.29185752690327
H          -17.85804145597481       -9.61219723603183       63.64870778557616
H          -16.18701365832118       -9.93134751388572       63.09805476985223
S          -17.37557932369318       -8.41518769079128       61.63203334567739
H          -16.36130485487788       -8.79592811394203       60.85167671080082
72
 energy: -105.958947156102 gnorm: 0.123271562869 xtb: 6.7.1 (edcfbbe)
Fe         -16.74584605762894       -6.45476475287451       62.82105388237787
N          -16.22903110858176       -7.44893458002240       64.54737169655198
N          -14.86869605553154       -6.73627390959520       62.09482563643322
N          -17.25601916315174       -5.43985688570102       61.12323387847839
N          -18.59344994363326       -6.15122623976139       63.57008221885887
C          -17.02916109166232       -7.68762686372156       65.62387482314519
C          -16.30090896102835       -8.44272320069809       66.63489751734311
C          -15.04205863731354       -8.63243116002426       66.13925746239359
C          -15.01557277837163       -8.00626517387637       64.83080178458003
C          -13.85765890713898       -7.40109645943173       62.71799107691457
C          -12.68594745938513       -7.44680045047701       61.86461607187320
C          -13.00916437032230       -6.79354187185192       60.70462363336210
C          -14.38946100581217       -6.34669104815611       60.87809767116669
C          -16.45668566719698       -5.24081098412898       60.04039737659536
C          -17.18688798930363       -4.53582935199240       58.99700211032292
C          -18.46364249731205       -4.31476778481696       59.46918257418057
C          -18.46637169013852       -4.89412322375760       60.82061452859786
C          -19.60917541410640       -5.48371064419472       62.95035988907537
C          -20.78441054368100       -5.45294211412369       63.80050814609666
C          -20.45647504978357       -6.12157555256015       64.94433431839258
C          -19.07377818196302       -6.54961721614758       64.78404672828789
C          -18.34941895802380       -7.26508565795185       65.72994165570005
H          -18.86482927767362       -7.51690046932975       66.64667734048128
C          -13.92071261224963       -7.98257555524149       63.97906196073662
H          -13.02249727757222       -8.47096206942492       64.33036146680404
C          -15.13092926064684       -5.65438471552693       59.92893332312076
H          -14.62044915669771       -5.41633385574753       59.00654264655944
C          -19.55086589706794       -4.91451977191729       61.68486728771056
H          -20.45269776073766       -4.43503576812617       61.33452997190954
C          -13.88732846747860       -9.34105884785003       66.77927125202170
H          -14.16232227316652       -9.72418974599603       67.76004274412600
H          -13.03856810556347       -8.66819952004921       66.90960421818441
H          -13.55683754609052      -10.18234173375699       66.16794276901237
C          -16.84906039272213       -8.91298864170997       67.94755529333561
H          -17.91672401696098       -9.11114989666750       67.87759252801560
H          -16.69730429420392       -8.16608126211642       68.72993255294270
H          -16.36016253666212       -9.83301655186681       68.26814613414683
C          -11.39055646641191       -8.09297633401903       62.23971160142828
H          -11.53041696045935       -9.15925754778540       62.42501011052028
H          -10.97940124362569       -7.65035351453545       63.14875525769111
H          -10.66418377323257       -7.97690245380561       61.43829624133789
C          -12.17151797387745       -6.64707987453033       59.48811762797425
H          -11.82753185099455       -5.63489500894066       59.24733291952830
C          -11.85761624169411       -7.64525782108990       58.74745385102900
H          -12.19587217750276       -8.65004252243185       58.97706963163611
H          -11.24749391214733       -7.59140358842295       57.85149605118817
C          -16.58030146988226       -4.14272874580267       57.68669075531395
H          -16.57064486598245       -4.99059116544740       56.99726814572315
H          -15.54989725344604       -3.81071552066801       57.81268081297870
H          -17.14153262159431       -3.33477051397001       57.22117730979706
C          -19.59502901480781       -3.66077029213181       58.78772359730029
H          -20.32253316387274       -3.16344131732581       59.43931775772680
C          -19.78915560489845       -3.64986634815678       57.51331741298886
H          -19.12234616931259       -4.14479634998955       56.81771590867111
H          -20.62467580476238       -3.16313297209883       57.01594518069327
C          -22.08804885491358       -4.80555495726410       63.44916307924723
H          -22.51261159535337       -5.25081591933937       62.54836428742338
H          -21.95698727747390       -3.73874164322639       63.26352827327479
H          -22.80939906968731       -4.92106231523340       64.25589099983623
C          -21.34641036631704       -6.36205111848803       66.12731375996223
H          -22.36062904194408       -6.59776730227324       65.80268716310673
H          -21.40406700243849       -5.47461297098765       66.76183908929880
H          -20.99162721275877       -7.18990323060883       66.73620145258340
O          -16.08178102025634       -4.62929739097384       64.00626987790075
H          -15.80534301096771       -4.86116780208408       64.89486953633138
H          -16.08689551832025       -3.69952201438693       63.77974450293301
C          -17.22596186651320       -9.83076660308481       62.78394079823262
H          -17.56638470995306      -10.73633732684111       62.29142949245750
H          -17.85366006312452       -9.61401761835868       63.64198455452838
H          -16.19358908892986       -9.92652766744759       63.10086053497064
S          -17.40233308488301       -8.42320517859632       61.64246733775204
H          -16.36345424109622       -8.77323351846104       60.86518891679884
72
 energy: -105.967808888766 gnorm: 0.020968539301 xtb: 6.7.1 (edcfbbe)
Fe         -16.74830666036298       -6.46281458928553       62.81497698319617
N          -16.23236561910458       -7.44721148618831       64.53826731114047
N          -14.87084687552633       -6.72615450083602       62.10487219322223
N          -17.24558985527296       -5.42741233965440       61.13183310862671
N          -18.59159700041295       -6.15485059703412       63.56362506699664
C          -17.03255664032282       -7.68643627142440       65.61308472003903
C          -16.30714064188131       -8.43819089396769       66.62186542341679
C          -15.04973012492901       -8.62763430966891       66.12907784035026
C          -15.02064923594386       -8.00143760561894       64.82442157193218
C          -13.86128322198780       -7.39494682583404       62.72383217673712
C          -12.69560323850516       -7.44844516491129       61.86864913555789
C          -13.02665769094214       -6.79487184447816       60.71755052468391
C          -14.39729322518765       -6.34178247098186       60.88785481243627
C          -16.44832643636224       -5.23471509992889       60.04753741831254
C          -17.17539522304255       -4.54139658488033       59.00429628887205
C          -18.44385436718305       -4.32704876925192       59.48192209708875
C          -18.45687511925676       -4.89250877059091       60.82895329509979
C          -19.60367184361709       -5.48546149625579       62.94562467544770
C          -20.77620181279791       -5.45693226045381       63.79498115520062
C          -20.44873874865680       -6.12539701662768       64.93602866862709
C          -19.07020211960932       -6.55300167365203       64.77604388187515
C          -18.35022689883682       -7.26620770527491       65.72285271203923
H          -18.86312454730317       -7.51375968508377       66.64174302096414
C          -13.92250052349284       -7.97876007919520       63.98038712224125
H          -13.02617223543102       -8.46993778581372       64.33195829994189
C          -15.12801755792505       -5.65135585945636       59.93398412655139
H          -14.61724807049359       -5.42575327881616       59.00809475396380
C          -19.54762064333170       -4.91308701262351       61.68350472574361
H          -20.45257578211417       -4.43884630778270       61.33062716032514
C          -13.89838872416310       -9.33302021014475       66.76834006732170
H          -14.17458120993004       -9.71467579787458       67.74822243547355
H          -13.05166339947888       -8.65917307956369       66.89684777399046
H          -13.56642529351314      -10.17220980323632       66.15678608793597
C          -16.85272908459955       -8.90450663424933       67.93156313073973
H          -17.91909430291808       -9.10590790607045       67.86389189286263
H          -16.69856460509078       -8.15609941090774       68.71036869437830
H          -16.35763677247301       -9.82032604621536       68.24975641338806
C          -11.39951884007456       -8.09076213579207       62.23338703861244
H          -11.53579122732488       -9.15644118397545       62.41954427074462
H          -10.98863336722322       -7.64507602047422       63.13955738647878
H          -10.67647220457448       -7.97072925128705       61.43062680760129
C          -12.20557699357935       -6.63455693601558       59.51335550632102
H          -11.87201230573279       -5.62770490314485       59.27358355129923
C          -11.84874737673155       -7.66063374873831       58.74782687668103
H          -12.18861321069879       -8.66278581133765       58.96923249279733
H          -11.24087141374026       -7.56777684084589       57.86066790807963
C          -16.58010276237835       -4.14300897955344       57.69767514695999
H          -16.57418972605574       -4.98861385292442       57.00743897606152
H          -15.55172541696197       -3.81173091147470       57.82788683484526
H          -17.14465241191616       -3.33230641347910       57.24425220949115
C          -19.56603288285834       -3.68218123833782       58.82224227205349
H          -20.28334734375552       -3.18948871544201       59.47392586790198
C          -19.78039273312871       -3.65668475907983       57.50677952831234
H          -19.13437490054953       -4.16852478573595       56.80874882744484
H          -20.62393473263940       -3.15513116879885       57.05396008539563
C          -22.07506714902805       -4.81027933321392       63.44643027072408
H          -22.49849065148574       -5.25500905850205       62.54597165706416
H          -21.94158892841639       -3.74450085738156       63.26373553815636
H          -22.79184420220184       -4.92647153103267       64.25529973175900
C          -21.33196348340693       -6.36491077833357       66.11770375281634
H          -22.34484907236398       -6.59817586824900       65.79182894175229
H          -21.38437565791983       -5.47730555940420       66.75014082406848
H          -20.97690321995510       -7.19172083926515       66.72606894773638
O          -16.05869829282848       -4.64269166876710       63.97344088459988
H          -15.82064049452544       -4.85308445203360       64.88140308190629
H          -16.10094604531680       -3.70646586173037       63.77021015626972
C          -17.23048323036719       -9.84284440866589       62.78933217469177
H          -17.55991238928180      -10.75050382903421       62.29287332394388
H          -17.85858163280699       -9.62981796311088       63.64683378967015
H          -16.19525156825300       -9.91920618153921       63.10524213200366
S          -17.44146805484428       -8.43227811811416       61.65406968946456
H          -16.37549072507412       -8.73831886135154       60.88949674957171
72
 energy: -105.970629124285 gnorm: 0.033023877281 xtb: 6.7.1 (edcfbbe)
Fe         -16.74150317982586       -6.45519963502584       62.82022635351322
N          -16.23654878258441       -7.44797109049013       64.52639808398023
N          -14.87931629916473       -6.73445957391510       62.10971460736840
N          -17.23458001398469       -5.42714157579201       61.14114008585473
N          -18.58455279422640       -6.15237175685121       63.55897289269177
C          -17.03666584419665       -7.68700011207742       65.59977601204267
C          -16.31520570920003       -8.43468961718274       66.60749192434707
C          -15.05764595753079       -8.62397353659101       66.11765023892016
C          -15.02791214988425       -8.00003874256677       64.81567573226482
C          -13.86760934421111       -7.39818860506192       62.72666567046009
C          -12.70600052854963       -7.45697077370123       61.87024847059370
C          -13.04194046364870       -6.80419439862343       60.72294248838206
C          -14.40580588869176       -6.34628870213743       60.89715437571297
C          -16.43890945427811       -5.23436532033879       60.05672485913830
C          -17.16234581751150       -4.54991778209263       59.01379024549529
C          -18.42875975686095       -4.34034071178529       59.49328110814327
C          -18.44411281385191       -4.89568566693885       60.83795851181559
C          -19.59473796242362       -5.48775797708318       62.94042353061860
C          -20.76715368321002       -5.46016064444705       63.78707099844834
C          -20.44052983493657       -6.12941739096427       64.92612940853247
C          -19.06511134212112       -6.55534282270375       64.76618993070393
C          -18.35180498508594       -7.26797742089337       65.71424198694278
H          -18.86301683667821       -7.51256065978942       66.63396058823091
C          -13.92449022783955       -7.98003879605012       63.98118495718351
H          -13.02913224002882       -8.46897990054283       64.33585359600562
C          -15.12306281043279       -5.65304091339267       59.94041001780636
H          -14.61043991381666       -5.43663628105037       59.01354134324885
C          -19.54161595398832       -4.91362386397875       61.68130920588698
H          -20.44796726923851       -4.44477599140457       61.32532916717224
C          -13.90777953207999       -9.32492224298085       66.75527565529627
H          -14.18564868943366       -9.70536266000804       67.73485530285852
H          -13.06377815309202       -8.64709084892581       66.88119254551367
H          -13.57549255899261      -10.16273861111058       66.14185877489830
C          -16.86001305464539       -8.89562420653503       67.91550288459494
H          -17.92558307074110       -9.10061426355807       67.84790002242801
H          -16.70669810419054       -8.14113403237795       68.68864428105631
H          -16.35880795900475       -9.80767982413367       68.23472110248080
C          -11.40776676365955       -8.09225580601717       62.22667009153276
H          -11.53815063037028       -9.15863299737291       62.41220845638673
H          -10.99678202058268       -7.64197322193293       63.13053954382745
H          -10.69193089972305       -7.96586991416867       61.41823534996745
C          -12.23009973053199       -6.63470441211772       59.52484383450506
H          -11.92639611884814       -5.62442446374397       59.27377195689989
C          -11.86551128374660       -7.65473880390805       58.75552155045827
H          -12.16760303744342       -8.66469452487957       58.98791525789947
H          -11.24292423475737       -7.53228840653348       57.88484411454598
C          -16.57514215494585       -4.14112734678773       57.71005776294806
H          -16.57477310741743       -4.97926238693335       57.01088742557832
H          -15.54593868208324       -3.81155684706407       57.83934479843267
H          -17.14607259325114       -3.32629949433522       57.27176571355270
C          -19.54601604437689       -3.70001514008560       58.84463025830590
H          -20.25392463025675       -3.20640658935601       59.49904017682120
C          -19.77406363080342       -3.67836095906799       57.52792581921497
H          -19.13924145290305       -4.18757310279770       56.82285047960657
H          -20.61794275319334       -3.15436524229378       57.10785600847248
C          -22.06230119519427       -4.81273956051712       63.44035145207769
H          -22.48493294564524       -5.25633242401661       62.53901844441340
H          -21.92524667482735       -3.74696197298545       63.25978642026147
H          -22.77654975791981       -4.93043968738705       64.25111578972789
C          -21.31678746235934       -6.36920899625260       66.10846144707958
H          -22.33081251026397       -6.59986609455421       65.78510045654127
H          -21.36122167154093       -5.48131968593214       66.74126886329383
H          -20.95824205146134       -7.19732052035252       66.71290537625163
O          -15.97972422395056       -4.65565611062516       63.91223575903150
H          -15.86478855906208       -4.82551870594876       64.87146416829843
H          -16.14749154698652       -3.70205011637256       63.76924913132763
C          -17.23625079593182       -9.85022114975857       62.79892143947119
H          -17.54988486372571      -10.75822199657147       62.29235342963779
H          -17.86708584935662       -9.65686200148293       63.65878830840745
H          -16.19959403891259       -9.91132090874136       63.11167650832796
S          -17.46283481192885       -8.42599302828439       61.67699544284493
H          -16.39469229185706       -8.70114042771883       60.90499200341949
72
 energy: -105.971894512486 gnorm: 0.017506060562 xtb: 6.7.1 (edcfbbe)
Fe         -16.73608933560907       -6.45517193718012       62.82458884065843
N          -16.23971411835492       -7.44337584603385       64.51545303435698
N          -14.89053824248379       -6.74659121591237       62.11648073883694
N          -17.22114661970127       -5.43081789085369       61.15446699142625
N          -18.57162158004846       -6.14082187058328       63.55833258665027
C          -17.04021114856507       -7.68432484184206       65.58751287816018
C          -16.32354183564909       -8.43111014494774       66.59367314812783
C          -15.06591026964881       -8.62005048742847       66.10709161640487
C          -15.03453649024957       -7.99728313941290       64.80792985839028
C          -13.87458361873063       -7.40474103418345       62.73086067875415
C          -12.71567005844423       -7.46520700563205       61.87379425559978
C          -13.05619659318115       -6.81291456315986       60.72928997873711
C          -14.41486986139819       -6.35390135335772       60.90831973787439
C          -16.42817764801890       -5.23596102723389       60.06840790860094
C          -17.14862178819775       -4.55730802023623       59.02592914717974
C          -18.41462205176699       -4.35225636570351       59.50638076577199
C          -18.42929665936834       -4.90062707105099       60.84883517352628
C          -19.58389759476026       -5.48586976808649       62.93706781239597
C          -20.75833872649279       -5.46277858227285       63.77865289412235