72
 energy: -105.980558635828 gnorm: 0.000166864094 xtb: 6.7.1 (edcfbbe)
Fe         -16.78219662646389       -6.53608392115709       62.85289030267162
N          -16.27556204705079       -7.46824089974415       64.53850950994068
N          -14.97223278193069       -6.91218901155870       62.08861040058608
N          -17.27415921247632       -5.52051053939986       61.18239618071919
N          -18.57438255007183       -6.09343099817658       63.63585407446472
C          -17.05837934232510       -7.67015258925804       65.62853078857130
C          -16.33640077552874       -8.39780076935792       66.65037203506327
C          -15.09187139101280       -8.61991423919924       66.15210614071459
C          -15.07416476081245       -8.03176896265436       64.82990908345910
C          -13.94045558280838       -7.54415819690043       62.71051565303724
C          -12.79434466490928       -7.63208613927333       61.84235048073672
C          -13.15777837620291       -7.03738912202442       60.66376614529354
C          -14.52017719626441       -6.57797213838101       60.85195714821611
C          -16.51971251140552       -5.39452902542175       60.05375615912045
C          -17.22446033978450       -4.64231081422072       59.04966232304764
C          -18.43642254012330       -4.31084907041090       59.59673937961512
C          -18.44304724718922       -4.87559947286205       60.92990010301533
C          -19.57647049540399       -5.38938987222081       63.04448777231993
C          -20.73883239678324       -5.33687478180758       63.90311826429335
C          -20.41884545306764       -6.04000993382453       65.02206072085059
C          -19.06251286183905       -6.50464310971808       64.83589856078834
C          -18.36448103242278       -7.24231296264293       65.77139514449175
H          -18.87362982883921       -7.49248165057123       66.68896927649604
C          -13.97942470630516       -8.06748733750267       63.99110417099889
H          -13.08763503778902       -8.55077487549199       64.35863782128408
C          -15.24318181616383       -5.90220464845185       59.88833146819128
H          -14.76834525002479       -5.74161698849443       58.93315396576689
C          -19.52008390802210       -4.80645354293115       61.79366693136705
H          -20.39897538545147       -4.28273092532051       61.45229319632777
C          -13.93299768725006       -9.31735441108065       66.77637957696452
H          -14.18498431025679       -9.66847226046759       67.77384253790758
H          -13.07975731512060       -8.64369095548530       66.85535329057952
H          -13.63192558084105      -10.17632195280142       66.17594053296573
C          -16.91070652004950       -8.78553196337718       67.96909779881219
H          -17.79160614604791       -9.41356948402949       67.83430003386522
H          -17.20916217331321       -7.90058739279184       68.53137215626862
H          -16.18384532744141       -9.33721964504714       68.55993153466606
C          -11.47444482536867       -8.20417472242016       62.22368577929959
H          -11.48097741536402       -9.29243764181211       62.14010383981379
H          -11.22723890943260       -7.94610846701242       63.25219921516148
H          -10.69693939979046       -7.81449531595654       61.57001485499064
C          -12.37898196365803       -6.84095973189025       59.46074591507509
H          -12.57797951210709       -5.92492067675516       58.91692353407115
C          -11.46902700823572       -7.68609233964152       58.98814108392548
H          -11.26367734677825       -8.63071680818336       59.46092974712710
H          -10.91326392727687       -7.47096661514059       58.09076561753162
C          -16.67181943791233       -4.25733164345382       57.72250346550486
H          -16.77515564813205       -5.07428715566288       57.00657787619710
H          -15.61410255473314       -4.01049129431170       57.80119457074083
H          -17.20350407814091       -3.39102422161938       57.33440846796419
C          -19.51818928263248       -3.53826619413528       59.02621027640632
H          -20.07859262638846       -2.92966443953773       59.72655683439741
C          -19.86538428751910       -3.53105375611374       57.74377509427404
H          -19.37598345509205       -4.15224038234794       57.01420902131647
H          -20.67614271157080       -2.91988001282089       57.38373460044125
C          -22.00696780534807       -4.63666864148773       63.55632325967954
H          -22.44150990710313       -5.06107166916640       62.65120158361058
H          -21.82502455871612       -3.57629262345582       63.37925274021634
H          -22.73204914111864       -4.72963991547279       64.36084716518292
C          -21.24100347273942       -6.31536292642741       66.23323894235486
H          -22.22629507640471       -5.86531786470695       66.14203503323237
H          -20.75962137377364       -5.91111860133505       67.12407958439020
H          -21.36557440658039       -7.38905399966913       66.37366119693517
O          -16.07180259848800       -4.56564265853419       63.66273040857367
H          -16.85599333887371       -4.27295003052697       64.14159777712112
H          -16.02616098367191       -4.04825760589439       62.85028209002900
C          -16.66428150850305       -9.90725969891710       62.40134356876215
H          -16.86551362997957      -10.74700704015633       61.74329626036036
H          -16.97450190543454      -10.14192727708689       63.41422809369699
H          -15.61319157566425       -9.63960756779632       62.39180702739641
S          -17.66683975519936       -8.47564017680368       61.86797232339404
H          -17.08011339344473       -8.35735567967547       60.67126248736733
