72
 energy: -105.980614408436 gnorm: 0.000033584172 xtb: 6.7.1 (edcfbbe)
Fe           6.01253202765682       24.78279033214495       -7.59539221057186
N            4.29338338280670       23.80653773325947       -7.36037609904774
N            5.71462752813480       24.87934293404205       -9.55988946944017
N            7.78765392045879       25.71529607903106       -7.81434058554245
N            6.36758533586967       24.61158812439955       -5.61820203195314
C            3.78323568325733       23.29749351164785       -6.20943612332390
C            2.49834594621518       22.67633145269489       -6.44869045006244
C            2.24522891789393       22.82577901080450       -7.77532345040577
C            3.38496781411724       23.52536348229787       -8.32936340919395
C            4.62211978117417       24.44138962816293      -10.23697469365424
C            4.75765161612245       24.69309893769703      -11.65070434507991
C            5.97184281972490       25.30049408922562      -11.81677477723876
C            6.55016198829119       25.40580111461085      -10.48970056337535
C            8.32747710032147       26.17051818784233       -8.97920292468114
C            9.58074929531059       26.83441695745388       -8.73632139118560
C            9.79164298801089       26.77843027194550       -7.38336048911104
C            8.65039538542935       26.08069877248159       -6.82896720334988
C            7.44047531865751       25.09516421151282       -4.93226457112969
C            7.33505220447144       24.77238539113619       -3.52837410786255
C            6.17474217310250       24.07608900061352       -3.38127853733107
C            5.58345461989919       23.98815996493997       -4.69574724244469
C            4.37828309658248       23.36692721687260       -4.96390152803078
H            3.85886014083827       22.91101878128202       -4.13560210211397
C            3.52077414074728       23.82892377740223       -9.66805245379253
H            2.71201008119447       23.54790092591448      -10.32449500495494
C            7.76199745565368       26.01385099220208      -10.23168379025055
H            8.30694558826372       26.41316252142361      -11.07257147511678
C            8.50003618764148       25.78957392576665       -5.48555570492196
H            9.27869725292577       26.11656783810030       -4.81462509111673
C            1.06727615720388       22.37842866290560       -8.56966993563818
H            0.32694466555504       21.90431051839047       -7.93012493076117
H            1.37154072810864       21.66120946984494       -9.33215255704570
H            0.59762606894718       23.22542644191875       -9.07001414114851
C            1.67185189771075       22.02380484248846       -5.39478051520139
H            1.41216765811326       22.73757164597476       -4.61233193392169
H            2.21919593038423       21.20117622414553       -4.93441522389547
H            0.75130003377006       21.62810124429603       -5.81619139435037
C            3.77650978871230       24.28227474026771      -12.69143625653754
H            2.95610847267396       24.99877278127423      -12.75585474188705
H            3.35487928047134       23.30573127366533      -12.45875158552486
H            4.26372164919942       24.22914310876486      -13.66277842311496
C            6.61651108812218       25.74346384754853      -13.03378035691769
H            7.69586441232959       25.64622752740995      -13.05456531166515
C            5.99403950173505       26.25103188424055      -14.09226395114291
H            4.93060588106736       26.41406605490676      -14.10698156606203
H            6.53529007132484       26.54886680590481      -14.97486782786494
C           10.41026435440478       27.50240141229026       -9.77546561739520
H            9.77844566302015       28.00188091590023      -10.50807263675170
H           11.03241229020358       26.77752651528279      -10.30321112159990
H           11.06114644391096       28.24207665379670       -9.31402888494728
C           10.88930190096564       27.30890366899512       -6.60464822913456
H           10.63072352872140       27.67047627340004       -5.61607933577603
C           12.15491726670743       27.37310383886512       -7.00409130412858
H           12.47574380238072       26.98675665051636       -7.95574510881234
H           12.92250749661901       27.79472291889673       -6.37680088185481
C            8.34271402532858       25.15670128779066       -2.50079120761849
H            8.44781486527036       26.24090950624562       -2.45309036794334
H            9.31804405368050       24.73347353818437       -2.74229025774265
H            8.04787024211856       24.79830240190764       -1.51777842989108
C            5.57163888244912       23.49394710159131       -2.14980671636752
H            6.20693398111949       23.67382475581807       -1.28624688171383
H            5.43920528382490       22.41758458272794       -2.26058210408576
H            4.59412659066974       23.93591785969379       -1.95443739110215
O            7.15026719967964       22.86573700194743       -7.83500226038250
H            7.95508037211901       23.18306684023829       -8.26051479191101
H            7.37211148517945       22.67398595008912       -6.91643260328933
C            3.64780561907393       26.72286730860590       -6.09844444434806
H            2.81715607938832       26.29939291024107       -6.65326818698948
H            3.38211639272726       27.70348460141587       -5.71570864716579
H            3.93570937279059       26.05023592442775       -5.29790511018809
S            5.03064969186344       26.89649268802050       -7.28015184193979
H            5.90493003962132       27.34752465223744       -6.37427315794097
