78
 energy: -115.976592452821 gnorm: 0.255697407958 xtb: 6.7.1 (edcfbbe)
Fe          -5.82300000000000       -6.25700000000000        6.88500000000000
N           -5.73900000000000       -7.98900000000000        5.77100000000000
N           -5.16000000000000       -5.21500000000000        5.20800000000000
N           -5.71800000000000       -4.53000000000000        8.05300000000000
N           -6.26100000000000       -7.28800000000000        8.51900000000000
C           -5.98000000000000       -9.29100000000000        6.23700000000000
C           -5.91900000000000      -10.16900000000000        5.12700000000000
C           -5.54200000000000       -9.47200000000000        4.01000000000000
C           -5.34400000000000       -8.12000000000000        4.41700000000000
C           -4.87700000000000       -5.74100000000000        4.01900000000000
C           -4.48300000000000       -4.68000000000000        3.14100000000000
C           -4.43300000000000       -3.48600000000000        3.88400000000000
C           -4.84000000000000       -3.86300000000000        5.25900000000000
C           -5.19700000000000       -3.33200000000000        7.66800000000000
C           -5.05800000000000       -2.41800000000000        8.78300000000000
C           -5.38700000000000       -3.15400000000000        9.90800000000000
C           -5.75600000000000       -4.50100000000000        9.44500000000000
C           -6.30200000000000       -6.84700000000000        9.84700000000000
C           -6.63900000000000       -7.94300000000000       10.75000000000000
C           -6.69500000000000       -9.07500000000000       10.02300000000000
C           -6.39200000000000       -8.66000000000000        8.63000000000000
C           -6.32000000000000       -9.51600000000000        7.58200000000000
H           -6.56600000000000      -10.54900000000000        7.82200000000000
C           -4.99800000000000       -7.02900000000000        3.64600000000000
H           -4.79600000000000       -7.23800000000000        2.59600000000000
C           -4.92000000000000       -2.95700000000000        6.35000000000000
H           -4.75400000000000       -1.89900000000000        6.14600000000000
C           -6.12900000000000       -5.54900000000000       10.27200000000000
H           -6.29600000000000       -5.33100000000000       11.32700000000000
C           -5.30900000000000       -9.96300000000000        2.61200000000000
H           -5.49100000000000      -11.05800000000000        2.56800000000000
H           -4.25800000000000       -9.76000000000000        2.31300000000000
H           -6.00700000000000       -9.45400000000000        1.91400000000000
C           -6.27700000000000      -11.65300000000000        5.18700000000000
H           -6.91100000000000      -11.84600000000000        6.07800000000000
H           -5.35000000000000      -12.26000000000000        5.26700000000000
H           -6.84200000000000      -11.94000000000000        4.27400000000000
C           -4.21000000000000       -4.83000000000000        1.69300000000000
H           -4.95400000000000       -5.52300000000000        1.24500000000000
H           -3.19200000000000       -5.25000000000000        1.54400000000000
H           -4.29000000000000       -3.84200000000000        1.19200000000000
C           -4.05600000000000       -2.15700000000000        3.51700000000000
H           -4.52800000000000       -1.32600000000000        4.05900000000000
C           -3.18300000000000       -1.80700000000000        2.57700000000000
H           -2.66300000000000       -2.57400000000000        1.98500000000000
H           -2.97000000000000       -0.74600000000000        2.38000000000000
C           -4.64100000000000       -0.98900000000000        8.68400000000000
H           -5.53900000000000       -0.34900000000000        8.55100000000000
H           -3.96900000000000       -0.85400000000000        7.80900000000000
H           -4.11700000000000       -0.68500000000000        9.61600000000000
C           -5.36100000000000       -2.76200000000000       11.38300000000000
H           -5.51300000000000       -3.55700000000000       12.12700000000000
C           -5.17700000000000       -1.58100000000000       11.85700000000000
H           -5.01700000000000       -0.72700000000000       11.18200000000000
H           -5.17700000000000       -1.40900000000000       12.94300000000000
C           -6.89700000000000       -7.77400000000000       12.27800000000000
H           -7.75300000000000       -7.08300000000000       12.43500000000000
H           -5.99500000000000       -7.34700000000000       12.76600000000000
H           -7.14200000000000       -8.76000000000000       12.72900000000000
C           -6.95700000000000      -10.46000000000000       10.49100000000000
H           -8.01800000000000      -10.72400000000000       10.29300000000000
H           -6.76600000000000      -10.52900000000000       11.58300000000000
H           -6.30100000000000      -11.17100000000000        9.94500000000000
O           -3.73900000000000       -6.52700000000000        7.58300000000000
H           -3.50000000000000       -5.71100000000000        8.02200000000000
H           -3.22000000000000       -7.24200000000000        7.48300000000000
C          -11.31200000000000       -4.63800000000000        5.97700000000000
H          -12.06500000000000       -5.24500000000000        6.52400000000000
H          -11.65300000000000       -4.50100000000000        4.92800000000000
H          -11.21300000000000       -3.65000000000000        6.47600000000000
N           -9.82400000000000       -6.61100000000000        5.44300000000000
H          -10.54500000000000       -7.12000000000000        4.97300000000000
C           -9.98400000000000       -5.35100000000000        5.99200000000000
C           -8.57800000000000       -7.02500000000000        5.64000000000000
H           -8.19000000000000       -7.99400000000000        5.33000000000000
N           -7.92800000000000       -6.07200000000000        6.25900000000000
C           -8.77900000000000       -5.00400000000000        6.48600000000000
H           -8.43700000000000       -4.10200000000000        6.97800000000000
78
 energy: -116.026256451729 gnorm: 0.100665351494 xtb: 6.7.1 (edcfbbe)
Fe          -5.81727685179409       -6.26947065169960        6.90083790888247
N           -5.69826434012555       -7.98953309516526        5.78865818490244
N           -5.14604582662319       -5.20832889510324        5.26592272241823
N           -5.67214304144425       -4.54781867501617        8.06939506733324
N           -6.24520528242088       -7.29808427472837        8.54756436326792
C           -6.00078576482127       -9.26485211845890        6.23141955389576
C           -5.92593102910301      -10.17569498688352        5.13192126252633
C           -5.53773246436447       -9.47164483708033        4.02385059759452
C           -5.37673466532950       -8.10918231989388        4.44034216507988
C           -4.89610794297367       -5.71273247503361        4.03833526415591
C           -4.47654471193554       -4.65603760921567        3.15272952267429
C           -4.43716117212045       -3.49124964107798        3.89699499601275
C           -4.86872352839215       -3.86449024000350        5.25433600869513
C           -5.22490018588485       -3.32814883380754        7.66045329604309
C           -5.06457074925728       -2.42995088988557        8.78871093820145
C           -5.39138736923557       -3.15760403502615        9.91470539754875
C           -5.76767488956557       -4.48565385983163        9.44188509340715
C           -6.33507662811169       -6.83934545794778        9.84623955269756
C           -6.64185169845116       -7.93194083026163       10.75505539683805
C           -6.68894628720368       -9.06481547050724       10.01453517447450
C           -6.41424608853811       -8.65694612764516        8.62744644929263
C           -6.33948276314883       -9.52397108552803        7.56591254839068
H           -6.55485570657791      -10.56121418435780        7.80698216731544
C           -5.01901013639363       -7.02825001993825        3.65152609958231
H           -4.79399956116000       -7.24540248950562        2.60958955899666
C           -4.94130843035100       -2.97941451288646        6.33594860319551
H           -4.73823287193867       -1.93217362400256        6.13686936588858
C           -6.14771820172079       -5.53726534923193       10.26255693565773
H           -6.28169568112455       -5.33086735202716       11.31785229790840
C           -5.31065866531829       -9.96386896118680        2.62760065020484
H           -5.48536584803902      -11.04300408474449        2.56543253950136
H           -4.27901585257890       -9.76292850958265        2.31449660977008
H           -5.98932355216039       -9.46297543750360        1.92528809379097
C           -6.27406043737989      -11.64283225955406        5.19039874787385
H           -6.90156988363015      -11.84756315041211        6.06300674944952
H           -5.36689514798559      -12.25418714521282        5.26464705200912
H           -6.82611423088322      -11.93910633918677        4.29142332504654
C           -4.20935298334682       -4.82318218183050        1.69834305335278
H           -4.93768512068513       -5.50967713126666        1.24731068117792
H           -3.20645443934553       -5.23976265967595        1.53464662463112
H           -4.28353746859984       -3.85775672943799        1.18934623536173
C           -4.06170668053320       -2.15648080650365        3.51466048647109
H           -4.52800146749444       -1.34047567047902        4.06681300901776
C           -3.18653322996138       -1.81039707268292        2.57164641804926
H           -2.65594431374467       -2.55661985127940        1.99319075518252
H           -2.96660515444386       -0.76722752358554        2.37337772894064
C           -4.64012056808736       -1.00286092920352        8.67938920837799
H           -5.51957411750800       -0.35605705138001        8.55385250300020
H           -3.97803598442210       -0.85263859238985        7.82067237896440
H           -4.10719150417442       -0.68649842252395        9.58036537122546
C           -5.36245112946571       -2.77974734936634       11.35197241183677
H           -5.51482342253804       -3.57881716427424       12.07774327127755
C           -5.17359637931698       -1.57121511382334       11.85270586262785
H           -5.03290169790230       -0.71056837461966       11.21593375344472
H           -5.18062012638912       -1.40187008246369       12.92469854882560
C           -6.89104994703080       -7.77177418545610       12.24933491048401
H           -7.73598120177279       -7.09533569065373       12.42348170100385
H           -6.00975471346614       -7.35530609725913       12.74996262846299
H           -7.13158667523369       -8.73593672974669       12.70975652669341
C           -6.95554382338565      -10.45391090445581       10.48013454627429
H           -8.00236168308070      -10.72818369420671       10.29405622919486
H           -6.76923730731559      -10.53578188379869       11.55681951017391
H           -6.31251586585120      -11.16907481369060        9.95671989888414
O           -3.74009002332916       -6.50736029685725        7.56945636394831
H           -3.47590428916088       -5.71350202155903        8.03225144416606
H           -3.18543435714163       -7.26136630780969        7.48709862002462
C          -11.30676502990202       -4.64314673608831        5.97322973141814
H          -12.05761310691373       -5.23251856605821        6.51301828556447
H          -11.65355877272911       -4.49716684923100        4.94404939373888
H          -11.21178767366859       -3.66985537185711        6.46195526117837
N           -9.84006983284814       -6.60648547753825        5.44698408123253
H          -10.56222067106182       -7.12150165062260        4.97420004412568
C           -9.99039204761192       -5.35042676313969        5.98616788525989
C           -8.57335624265560       -7.00592214135264        5.64728103754197
H           -8.18979350752748       -7.96465308717927        5.33869105555760
N           -7.90378764239864       -6.06776505081342        6.27218758230933
C           -8.76852946511761       -5.01999417195101        6.48616169625011
H           -8.43291284475141       -4.12462897275474        6.97546300422357
78
 energy: -116.040305645216 gnorm: 0.028545441978 xtb: 6.7.1 (edcfbbe)
Fe          -5.79677245817235       -6.26714779582721        6.91209751179947
N           -5.70502237205567       -7.97955123726391        5.80113643224031
N           -5.15680944622074       -5.20531915126195        5.30055762835535
N           -5.65905077989908       -4.55475623129425        8.08099405979406
N           -6.25457491478557       -7.30586460713157        8.55819349160374
C           -6.01389830631751       -9.23415389181702        6.23528197021674
C           -5.93718409516017      -10.17234651936039        5.14168291427401
C           -5.54052623765288       -9.46086535670780        4.04335069995205
C           -5.39877994146360       -8.09179203492488        4.47516752317625
C           -4.91668132400953       -5.69686241317271        4.05430408890107
C           -4.48279199574170       -4.64257843427383        3.16549773244936
C           -4.45179454979609       -3.49591754508059        3.91161877867860
C           -4.89014595815835       -3.87352667248986        5.25473404079575
C           -5.24277615681685       -3.32994927267390        7.65566878682927
C           -5.08134781945763       -2.43458137088526        8.78246213225762
C           -5.40624292486173       -3.15463318887081        9.91162434934719
C           -5.76743769312222       -4.47937975828638        9.43508059720973
C           -6.36103451685403       -6.83919521440815        9.83448670753574
C           -6.65821680198861       -7.92452158084073       10.74864061984129
C           -6.69486367999541       -9.05819801275717        9.99872001121199
C           -6.43130673992314       -8.65468362732255        8.62316920437944
C           -6.34688578246585       -9.53170091140081        7.55601239086135
H           -6.54717907028831      -10.57035960515827        7.78923314151979
C           -5.02999959230425       -7.02686218595526        3.66648008008392
H           -4.79774318500599       -7.25255023216094        2.63239979714446
C           -4.94920800262367       -3.00403329688538        6.33044110445255
H           -4.71624893291616       -1.96557654976126        6.13434832901543
C           -6.15182143929786       -5.53585257160001       10.24755650500461
H           -6.27037228825049       -5.33789673422903       11.30235381682695
C           -5.31208512851185       -9.95560557035746        2.65006540333130
H           -5.48359419747413      -11.02636410094370        2.58248365324951
H           -4.28992429383523       -9.75762789060366        2.33032146964465
H           -5.98002715092239       -9.45917079576715        1.94539078580436
C           -6.27114786113503      -11.62876038539262        5.19888187562709
H           -6.89508156534519      -11.84683890580882        6.06017877721356
H           -5.37133633152718      -12.23917412419348        5.26689435228127
H           -6.81155885810655      -11.93093456953419        4.30396485807921
C           -4.21011794827630       -4.81868660105763        1.70890766871673
H           -4.92994617222240       -5.50212652092909        1.26045807503177
H           -3.21376661308095       -5.22948611119955        1.54081622798468
H           -4.28047793312874       -3.86465696279700        1.19526427272234
C           -4.06736327534527       -2.15758267423506        3.52272758946348
H           -4.53621258175217       -1.35332969047117        4.07769050229058
C           -3.18962833287777       -1.82001750990687        2.57858358541539
H           -2.65138316903373       -2.55126883043282        2.00508272435390
H           -2.97237497603778       -0.78792764391593        2.36594366935705
C           -4.63823947004658       -1.01400245783959        8.66821816312832
H           -5.50554056576886       -0.36043671853101        8.55367558649818
H           -3.98722919950068       -0.86646936459213        7.81165238180155
H           -4.09249678328848       -0.70129076400045        9.55226466568519
C           -5.37535838289459       -2.78542956369692       11.31156040335933
H           -5.51038403480177       -3.59706538633361       12.01706756056545
C           -5.19831935843701       -1.57014660813324       11.83693786637809
H           -5.05881033041634       -0.69414791493761       11.23787972482585
H           -5.16766914740380       -1.42059285071420       12.90334292168991
C           -6.88743422937511       -7.76891695451594       12.21715176390401
H           -7.72440102835999       -7.09700628830533       12.40195037109748
H           -6.01226383924823       -7.35824602384497       12.71845849925814
H           -7.12162626263248       -8.72403231322175       12.67962175803320
C           -6.95525696372428      -10.45080777841798       10.46668438934720
H           -7.99323314767321      -10.73061824673838       10.28343206590879
H           -6.77095494909687      -10.53531088222925       11.53515686237328
H           -6.31536106294417      -11.16523003550166        9.95613931290306
O           -3.70770432116205       -6.48400903051351        7.51559889681055
H           -3.42370068155572       -5.74098267198190        8.06063884362773
H           -3.15611964184168       -7.27266531383815        7.51382576756689
C          -11.29447003487899       -4.64347657162423        5.97139421861866
H          -12.04576756270010       -5.22435419121322        6.50485251028395
H          -11.64500971956562       -4.49388400379293        4.95212058301328
H          -11.20196727236139       -3.67751392084806        6.45329409948249
N           -9.84277083194310       -6.60377963378209        5.45519098410054
H          -10.56427964503532       -7.12339936503943        4.98087343042423
C           -9.98674584894035       -5.34980388866632        5.98713543173217
C           -8.56465898278140       -6.99322282678493        5.65923680525485
H           -8.18356758079966       -7.94286977525443        5.34687047319825
N           -7.88367597916495       -6.06692479720004        6.28965955552131
C           -8.75562493022500       -5.03421032825969        6.49427214719214
H           -8.42861481721414       -4.14093863829810        6.98289202009102
78
 energy: -116.043282665599 gnorm: 0.058729889903 xtb: 6.7.1 (edcfbbe)
Fe          -5.77794751280225       -6.26076629684626        6.91084319235500
N           -5.69699766489361       -7.97198591663067        5.81834544220132
N           -5.17503206165745       -5.20637670294769        5.30784000204572
N           -5.65331244315282       -4.56144491220069        8.07539738409244
N           -6.24622346327641       -7.31191825210410        8.55156837846967
C           -6.02481696981641       -9.21894671999598        6.24413635068965
C           -5.94654029215765      -10.16415290253147        5.15066501301571
C           -5.54756800212453       -9.44937350919710        4.05843357414057
C           -5.41137394863139       -8.07841529090268        4.49550359935558
C           -4.93284894327169       -5.69492055171903        4.05971846163072
C           -4.49351639566987       -4.64155480225524        3.17260679016684
C           -4.46521895820546       -3.49749745743687        3.92009960755236
C           -4.90821936005870       -3.87816145397851        5.25510828338905
C           -5.25202352494706       -3.33280814373266        7.64701767340267
C           -5.09735985828954       -2.43475887229753        8.76562273867627
C           -5.42217663404066       -3.15153242000427        9.89636114956998
C           -5.77793830693185       -4.47927986875237        9.42236128727790
C           -6.37499857698571       -6.83984581221976        9.81932700187914
C           -6.67262801845726       -7.92177000052622       10.73475795341067
C           -6.70434818751048       -9.05711126733189        9.98521306060157
C           -6.44181230658517       -8.65610348163719        8.61719299891002
C           -6.35975477436025       -9.53850821295917        7.55252454531843
H           -6.55146575867866      -10.57845279749585        7.77766757025007
C           -5.04216553887499       -7.02552231688673        3.67470881022597
H           -4.80523757363340       -7.25960705191169        2.64656983576551
C           -4.95642538298341       -3.01054943656303        6.32691716867509
H           -4.69594648642081       -1.97876867014520        6.13332138767024
C           -6.16364091038104       -5.53639172651720       10.23201445509496
H           -6.27117583734722       -5.34425817777827       11.28862984810774
C           -5.31359746379373       -9.94308895505580        2.66869131255610
H           -5.48423713315545      -11.01371586714551        2.60542991078517
H           -4.29085916504985       -9.74448062919940        2.35271038357866
H           -5.97961804299594       -9.44674891385193        1.96319849245618
C           -6.26919378930182      -11.61896571056048        5.20890170311470
H           -6.89402479356807      -11.84685493304813        6.06691950478314
H           -5.36404868816754      -12.22168190202922        5.27705140771800
H           -6.80216143813296      -11.92445900291473        4.31048692043283
C           -4.21347013831353       -4.81734991031496        1.71800718682871
H           -4.92983992019125       -5.50309317004385        1.27067555479561
H           -3.21507311331179       -5.22297957658044        1.55505096890370
H           -4.28353969163660       -3.86357512716851        1.20342286783891
C           -4.07800870365308       -2.15852211887535        3.53056225875494
H           -4.55087139880865       -1.35862862890110        4.08644282173319
C           -3.19863530289147       -1.82876304195567        2.58699946708714
H           -2.64475508955610       -2.55852380869688        2.02584987596357
H           -2.97934179743052       -0.79890398290193        2.36581145868990
C           -4.63505627713926       -1.02160843971609        8.64949457507170
H           -5.49319486204314       -0.35356234782631        8.55389915536847
H           -3.99828021577620       -0.88505799960526        7.78057184096135
H           -4.06431816929167       -0.72294003980073        9.52346341861604
C           -5.37728233797968       -2.78848803239307       11.28675187106898
H           -5.50399771390396       -3.61413680931973       11.97649934784253
C           -5.20417733332428       -1.57844969099749       11.82956558019445
H           -5.11848251495464       -0.67496865840415       11.25353742026308
H           -5.18301048639357       -1.44603806858517       12.89717755022558
C           -6.88971878105552       -7.76407859654227       12.19749099892573
H           -7.72295701128814       -7.08928825648457       12.38877991673971
H           -6.00756958019825       -7.35428870145350       12.68755409721556
H           -7.11845963228981       -8.71989123167847       12.66011946002448
C           -6.95827188551081      -10.45146805715610       10.45290656382727
H           -7.99335999913326      -10.73685147314571       10.26555521184939
H           -6.77484902485269      -10.53436873316928       11.52082871341581
H           -6.31256712440523      -11.16220778237614        9.94487975435345
O           -3.63653124662226       -6.44432780739354        7.40551218373315
H           -3.38325352214120       -5.79288783097156        8.12354058098887
H           -3.14114719095136       -7.29612911868988        7.57005320449006
C          -11.27861069115846       -4.63784817431210        5.97340153989242
H          -12.03449532126930       -5.21593266696771        6.50357403941184
H          -11.62592812029657       -4.48869697466340        4.95266919401760
H          -11.18491425323251       -3.67104992131787        6.45266820520527
N           -9.83195287927425       -6.60174321543523        5.46658424502099
H          -10.55255198220812       -7.12334709458587        4.99249971760697
C           -9.97453538876229       -5.34750259473013        5.99711392320562
C           -8.55303356773087       -6.98941403586361        5.67393873823695
H           -8.17142885431712       -7.93560094763161        5.35643261099593
N           -7.87158664264309       -6.06627683740626        6.30705681114808
C           -8.74351333348197       -5.03777540703321        6.51115646374623
H           -8.42297469426659       -4.14465614959271        7.00403740637577
78
 energy: -116.045767993520 gnorm: 0.022195514764 xtb: 6.7.1 (edcfbbe)
Fe          -5.75935114111699       -6.25760580658794        6.90971601790306
N           -5.69324982057548       -7.96513314434842        5.83379683432573
N           -5.19252945995487       -5.20975467530381        5.30929950291232
N           -5.65019659739722       -4.56913963533679        8.06549583150204
N           -6.23743833323489       -7.31789501803581        8.54238568442006
C           -6.03281239843723       -9.21037667140253        6.25393472066909
C           -5.95513908687284      -10.15518896558412        5.15862604601543
C           -5.55544885600040       -9.43878746554519        4.07089460865706
C           -5.41865462086367       -8.06816957731384        4.51054066629248
C           -4.94535830327017       -5.69740437373686        4.06366267656894
C           -4.50343846845187       -4.64484218356849        3.17896199324825
C           -4.47584782188620       -3.49917239734965        3.92710445629645
C           -4.92210241022995       -3.88241363610544        5.25684301090170
C           -5.25714958156105       -3.33736134031117        7.63887093581216
C           -5.11183057576590       -2.43520899470960        8.74890581750295
C           -5.43932241891822       -3.14997723717378        9.87953619376599
C           -5.78764837691940       -4.48313659955921        9.40991524070706
C           -6.38407274231593       -6.84169261138583        9.80669915889609
C           -6.68836917469678       -7.92082483890357       10.72115743083494
C           -6.71757622990842       -9.05804359990461        9.97495740534716
C           -6.44924698181469       -8.65977537873534        8.61279861389110
C           -6.37104344769346       -9.54523876443687        7.55231838521980
H           -6.56123152546752      -10.58571991260603        7.76839156635656
C           -5.05196074064249       -7.02451995229141        3.68183755886145
H           -4.81264214907717       -7.26596887193130        2.65799168009585
C           -4.96104377749611       -3.01247822858374        6.32508500100855
H           -4.67948096266745       -1.98660528241533        6.13206800474572
C           -6.17457816420853       -5.53847940109309       10.21935365947671
H           -6.27939143606796       -5.34875334703401       11.27663865754103
C           -5.31451239424930       -9.93055200014242        2.68439319186890
H           -5.48475803886074      -11.00291709865332        2.62599167331604
H           -4.28869866697750       -9.73083707167700        2.37513577383975
H           -5.97977530552497       -9.43352596656513        1.97745190735244
C           -6.26814384650515      -11.61138428892747        5.21820407185037
H           -6.89516408983896      -11.84677755821586        6.07473962344175
H           -5.35527096402402      -12.20522745309726        5.28932725956899
H           -6.79495359559788      -11.92039902889654        4.31526039206082
C           -4.21553056699215       -4.81759103284918        1.72724953059350
H           -4.92882384511436       -5.50684117603632        1.27879081079185
H           -3.21306987910191       -5.21820669956468        1.57078981353536
H           -4.28632293821319       -3.86164363179565        1.21254565510810
C           -4.08711613840556       -2.16073431720012        3.53905554067988
H           -4.56669414937481       -1.36229302864462        4.09219508436885
C           -3.20419422662206       -1.83775796899616        2.59830592573139
H           -2.63875793460781       -2.56979183529551        2.04733840986480
H           -2.98451951740930       -0.80785617511143        2.36804240571551
C           -4.63250468821263       -1.02881082912577        8.63423385035062
H           -5.48186975560226       -0.34506483256749        8.55714205709802
H           -4.00863591382805       -0.90186567703227        7.75174426027960
H           -4.03925643393415       -0.74704176661139        9.50266025221222
C           -5.38882385009061       -2.78830442153577       11.26872081653670
H           -5.49369161790293       -3.62810051931874       11.94726197742467
C           -5.22477509811525       -1.58414971009759       11.82117791370008
H           -5.16969570415403       -0.66264559396585       11.26011051617852
H           -5.19397384615752       -1.46861290307132       12.89213285774850
C           -6.89592286435176       -7.75874223852586       12.18423714584717
H           -7.72634288353387       -7.07943433748801       12.37937860360498
H           -6.00434581888243       -7.34888571674890       12.66112288915151
H           -7.12080731085510       -8.71678366699193       12.64684893505668
C           -6.96530761646498      -10.45363853059546       10.44039361096096
H           -7.99859417393352      -10.74505521136094       10.24635270807292
H           -6.78373979297415      -10.53497174937782       11.50970509999593
H           -6.31114810291452      -11.15950938760085        9.93240663702456
O           -3.62541478450635       -6.47854021482801        7.47028926072634
H           -3.31912968139857       -5.79483551275548        8.05782924453299
H           -3.09665757360440       -7.27518036233227        7.54959806427349
C          -11.26099695106335       -4.62986622701193        5.97511722157098