87
 energy: -128.361436314377 gnorm: 0.256338436282 xtb: 6.7.1 (edcfbbe)
Fe         -21.93900000000000       34.21200000000000       78.40400000000000
N          -20.32600000000000       34.25400000000000       79.66899999999998
N          -20.76200000000000       34.97500000000000       76.95500000000000
N          -23.52800000000000       34.32700000000000       77.23300000000000
N          -23.12600000000000       33.78700000000000       79.95499999999998
C          -20.32100000000000       33.97100000000000       81.01599999999999
C          -19.00400000000000       34.21800000000000       81.56999999999999
C          -18.23100000000000       34.63600000000000       80.57100000000000
C          -19.03800000000000       34.66200000000000       79.36499999999999
C          -19.38400000000000       35.16699999999999       76.95200000000000
C          -18.95800000000000       35.47799999999999       75.58199999999999
C          -20.03700000000000       35.48099999999999       74.81900000000000
C          -21.16200000000000       35.18399999999999       75.65500000000000
C          -23.56100000000000       34.78200000000000       75.93500000000000
C          -24.92600000000000       34.85900000000000       75.47799999999999
C          -25.69200000000000       34.45700000000000       76.48000000000000
C          -24.84200000000000       34.10600000000000       77.58600000000000
C          -24.44600000000000       33.34000000000000       79.86700000000000
C          -24.79700000000000       32.59500000000000       81.05900000000000
C          -23.71200000000000       32.59000000000000       81.83700000000000
C          -22.67599999999999       33.32600000000000       81.17599999999999
C          -21.43100000000000       33.53800000000000       81.70200000000000
H          -21.30700000000000       33.34500000000000       82.76800000000000
C          -18.58400000000000       35.02000000000000       78.09699999999999
H          -17.51500000000000       35.20200000000000       77.98399999999999
C          -22.45600000000000       35.10299999999999       75.19799999999999
H          -22.61700000000000       35.31600000000000       74.14100000000001
C          -25.27200000000000       33.62400000000000       78.80500000000001
H          -26.34100000000000       33.45700000000000       78.93500000000000
C          -16.74800000000000       35.01500000000000       80.60500000000000
H          -16.35800000000000       34.89300000000000       81.63800000000001
H          -16.62400000000000       36.07500000000000       80.29599999999999
H          -16.17500000000000       34.35099999999999       79.92299999999999
C          -18.64200000000000       34.02500000000000       83.05499999999999
H          -19.27100000000000       33.21800000000000       83.48800000000000
H          -18.83000000000000       34.96700000000000       83.61300000000000
H          -17.57300000000000       33.73600000000000       83.14599999999999
C          -17.48100000000000       35.76100000000000       75.16099999999999
H          -17.10200000000000       34.91699999999999       74.54600000000001
H          -16.84500000000000       35.86100000000000       76.06699999999998
H          -17.43400000000000       36.69400000000000       74.55999999999999
C          -20.11400000000000       35.70500000000000       73.30600000000000
H          -21.05100000000000       35.99799999999999       72.81099999999999
C          -19.00600000000000       35.53700000000000       72.58100000000000
H          -18.10700000000000       35.08899999999999       73.02999999999999
H          -18.97800000000000       35.84400000000000       71.52499999999999
C          -25.34600000000000       35.31500000000000       74.06299999999999
H          -25.56600000000000       34.42400000000000       73.43599999999999
H          -24.52000000000000       35.89100000000000       73.59399999999998
H          -26.25900000000000       35.94500000000000       74.12699999999998
C          -27.22100000000000       34.31900000000000       76.52700000000000
H          -27.77500000000000       34.32900000000000       77.47699999999999
C          -27.88300000000000       34.18400000000000       75.37400000000000
H          -27.34100000000000       34.17300000000000       74.41700000000000
H          -28.97800000000000       34.08300000000000       75.36799999999999
C          -26.19200000000000       31.97400000000000       81.32599999999999
H          -26.50900000000000       31.38000000000000       80.44199999999999
H          -26.93500000000000       32.78100000000000       81.50300000000000
H          -26.14100000000000       31.30400000000000       82.21099999999998
C          -23.46300000000000       31.94000000000000       83.20200000000000
H          -24.30600000000000       31.26000000000000       83.44799999999999
H          -23.39400000000000       32.72500000000000       83.98500000000000
H          -22.52200000000000       31.35100000000000       83.17100000000001
C          -19.92300000000000       29.44600000000000       76.62600000000000
H          -20.22100000000000       29.32700000000000       75.56200000000000
H          -20.06700000000000       28.47700000000000       77.15100000000000
H          -18.85400000000000       29.74700000000000       76.66900000000000
N          -22.14300000000000       30.42299999999999       77.36300000000000
H          -22.70600000000000       29.64900000000000       77.07399999999998
C          -20.77000000000000       30.49800000000000       77.26700000000000
C          -22.56100000000000       31.56200000000000       77.90600000000001
H          -23.61000000000000       31.79100000000000       78.09500000000000
N          -21.52500000000000       32.35300000000000       78.17300000000000
C          -20.38900000000000       31.68800000000000       77.80400000000000
H          -19.40900000000000       32.12200000000000       77.95699999999999
C          -21.48500000000000       39.16800000000000       79.90500000000000
H          -21.86700000000000       39.49300000000000       80.89599999999999
H          -21.70900000000000       39.95700000000000       79.15600000000001
H          -20.38700000000000       39.01200000000000       79.97499999999999
N          -23.53800000000000       37.78499999999999       79.35100000000000
H          -24.19800000000000       38.52099999999999       79.50100000000000
C          -22.15700000000000       37.88200000000000       79.50500000000000
C          -23.79300000000000       36.53200000000000       78.97000000000000
H          -24.79900000000000       36.15900000000000       78.77900000000000
N          -22.65900000000000       35.82000000000000       78.85999999999999
C          -21.61300000000000       36.66000000000000       79.17800000000000
H          -20.58600000000000       36.31900000000000       79.14400000000001
87
 energy: -128.417410643734 gnorm: 0.109267704115 xtb: 6.7.1 (edcfbbe)
Fe         -21.96278085263131       34.22451174101349       78.42531856694613
N          -20.32132842653186       34.25963847952315       79.67271989507776
N          -20.75570950108321       34.94118015891998       76.93774802388891
N          -23.54142619913117       34.28835396075807       77.21657310825431
N          -23.12617773002079       33.70897261215863       79.94973068658564
C          -20.32047229659336       33.98672983023047       81.01075612109713
C          -19.00578190130086       34.21589007648986       81.57565990624086
C          -18.21914008025636       34.63307542104134       80.55762601695874
C          -19.04231393610754       34.65261225675145       79.35886399223928
C          -19.39158130849827       35.14572265439238       76.94673605650304
C          -18.93478488505098       35.47391244567806       75.59639058480710
C          -20.03394584458050       35.47076262426958       74.80063015101217
C          -21.15872461287362       35.16434851743222       75.65089389346819
C          -23.57137373498750       34.76665881370442       75.93477760574950
C          -24.93259139544581       34.85516109016690       75.46120959641594
C          -25.72276468828385       34.44784916380777       76.48535967067163
C          -24.84741344494523       34.09939993449103       77.58205973864919
C          -24.44541806328301       33.32595533509475       79.87667993598441
C          -24.81492715930263       32.59776347827893       81.07079325010636
C          -23.71693107989463       32.58927719785375       81.86385326444575
C          -22.67941691627200       33.30597274100300       81.17525084496167
C          -21.42695989760135       33.53978867779552       81.70342885410243
H          -21.29958340169989       33.33593744502062       82.76103018094977
C          -18.59881081564573       35.01510192111211       78.08994297758967
H          -17.53461094518411       35.20757732798643       77.98391924026042
C          -22.45830483375597       35.09701591537030       75.19494588614300
H          -22.61622267673625       35.32252213694711       74.14675095089656
C          -25.27330681180953       33.61643114120277       78.80774239577738
H          -26.33604565443273       33.44495093265633       78.93409362860093
C          -16.75951329526022       35.01181487202727       80.60219641888752
H          -16.36610234213125       34.89673955621516       81.61780651176676
H          -16.62405398821751       36.05553872916647       80.29645720948481
H          -16.18172767764198       34.36624983936648       79.93101511120634
C          -18.64814921938619       34.02479337176754       83.03539704563138
H          -19.25918490194688       33.23193773035570       83.47893186573430
H          -18.82495068933504       34.94944423806879       83.59870582718833
H          -17.59440091486042       33.74489234306657       83.14228833207842
C          -17.49424709339435       35.75674599925654       75.18928006036255
H          -17.09678108042973       34.92876889947091       74.58930509789600
H          -16.85429522168838       35.86805110656353       76.06629695561178
H          -17.44167149048939       36.67050520176484       74.58308589248085
C          -20.09517008222802       35.70481759019614       73.33009277728468
H          -21.03010087731063       36.01161122465499       72.86090740366440
C          -19.01360717476060       35.53959369205317       72.57367324284255
H          -18.11687078672085       35.10817954150094       72.98632081147410
H          -18.99587776850071       35.81731293507961       71.52541384040201
C          -25.33409887477189       35.31553158092179       74.07528872882239
H          -25.55020489590888       34.44462394150723       73.44213979475613
H          -24.53130064701577       35.88766143140135       73.60364786841637
H          -26.23304924126531       35.94047413742648       74.12737557714090
C          -27.20515163547916       34.32246504110820       76.50998100542014
H          -27.73407803163257       34.33146111376816       77.46203454365389
C          -27.89010838480963       34.18313049230936       75.37916785519178
H          -27.38038747637003       34.15080251377961       74.42888902578657
H          -28.96967152429116       34.08418123081685       75.37295825798515
C          -26.17676976449263       31.98054325444572       81.31950142314811
H          -26.50124557611834       31.39156976773215       80.45397597337038
H          -26.91900771390255       32.76662182178379       81.50017602112646
H          -26.14130910978563       31.32214489804264       82.19347944907716
C          -23.47513836646116       31.93959075372812       83.20041081887642
H          -24.29886818046859       31.26660917245681       83.45306428350540
H          -23.39494770524968       32.70828386156431       83.97730096376286
H          -22.54410744972018       31.36205059672660       83.17427302893638
C          -19.92384449237644       29.43500460791985       76.62603731797610
H          -20.21168679875325       29.31703371064618       75.57442678852884
H          -20.05459719112197       28.47611051645103       77.13890513460606
H          -18.87330144702991       29.73428042336229       76.66961325696860
N          -22.12768337006052       30.41166810306074       77.35474996083185
H          -22.69567018216705       29.63506152319820       77.06713583020107
C          -20.75980979563720       30.48471875067808       77.26329410230998
C          -22.55540402348758       31.56067258012327       77.89829031360122
H          -23.59097507073485       31.78703569000493       78.09159736784059
N          -21.53850682038770       32.36145197234755       78.14443174998696
C          -20.40477476490071       31.69068820335567       77.78925035612892
H          -19.43313254570145       32.12404023099984       77.94497985649383
C          -21.48777302506214       39.18874670326279       79.91230800400051
H          -21.85835216690383       39.50772544034962       80.89151872527702
H          -21.69880780748591       39.96579401934655       79.17110349286344
H          -20.40869016915535       39.02220174657688       79.97282627008104
N          -23.51984277849739       37.80518332411449       79.36229831308867
H          -24.19413867197854       38.53239054822001       79.51266169149471
C          -22.15373694873124       37.92636259254568       79.51008202634777
C          -23.76816944674411       36.54490072266790       78.97066294775058
H          -24.76065717036328       36.16197688607526       78.78247863592564
N          -22.63695736718755       35.87653188337340       78.84530975437337
C          -21.62214926079634       36.72110946740521       79.18419998027362
H          -20.60634040875009       36.37849384266999       79.15251407569203
87
 energy: -128.438737564868 gnorm: 0.025959557609 xtb: 6.7.1 (edcfbbe)
Fe         -21.98330651049892       34.22391002888431       78.43899872422095
N          -20.32616410296166       34.27752180773786       79.67717183426977
N          -20.75482043863060       34.91139676341533       76.92288733929422
N          -23.55613545394484       34.26577819487478       77.20904098191606
N          -23.12203690946017       33.64823087231584       79.93811031218128
C          -20.32495256012194       34.00018608392515       81.00333443963648
C          -19.01153156002454       34.21764565728346       81.57495310086084
C          -18.21655844701460       34.62875151931632       80.54561931992160
C          -19.05400165755538       34.65044495344765       79.35633155153704
C          -19.40401472171748       35.11755255082137       76.94355174280217
C          -18.92254188691226       35.45801127456203       75.61419338465089
C          -20.02682859782515       35.45531168429964       74.79288429422481
C          -21.15549623351881       35.13536454709367       75.64651359389504
C          -23.57815639063407       34.74545218685162       75.93567151848886
C          -24.93312178581360       34.84476474634003       75.45070979482611
C          -25.74234813140533       34.43400035380702       76.48419392157085
C          -24.85199905152978       34.08480299017167       77.57562972287565
C          -24.43494130357694       33.30105759039408       79.87490316437012
C          -24.82512527133333       32.59990102253771       81.07935455512521
C          -23.72228315200877       32.58790518245761       81.88156447558202
C          -22.67951828861754       33.28144065102304       81.16504730695007
C          -21.42463833481435       33.53093961441231       81.69813271476384
H          -21.29530857551013       33.32140381614079       82.75018009992839
C          -18.61547843232536       35.00793922970753       78.08614740070543
H          -17.55648012495970       35.21485702322263       77.98548783554995
C          -22.45922752618299       35.08057972350793       75.19132007438388
H          -22.61741932631414       35.32984457610566       74.15238385937600
C          -25.26995998865767       33.59212191007641       78.80428955269228
H          -26.32916141386258       33.42434283720046       78.93621579921792
C          -16.77242554362421       35.00527427264650       80.59493800083304
H          -16.38054512322892       34.89506846327284       81.60312311705377
H          -16.63112704148702       36.04196323409249       80.29121270637299
H          -16.18582767620591       34.37359028486544       79.92888303516304
C          -18.65319297832780       34.02703078440722       83.01394317160745
H          -19.25406682377310       33.23991161753963       83.46281303782605
H          -18.82534834664469       34.94297861713520       83.58129768798956
H          -17.60574212708995       33.75434725654296       83.12635491970947
C          -17.50997026104525       35.74849159202940       75.22476126192022
H          -17.09457215701148       34.92830896351930       74.63645092987450
H          -16.86975300458446       35.88133159222961       76.08938201461498
H          -17.45990696526231       36.64918391301399       74.60927840315146
C          -20.07340974696314       35.70381417512731       73.36443875166168
H          -21.01132924052258       36.03185453333891       72.92695489815806
C          -19.02011281374814       35.54045134785125       72.56472502564502
H          -18.10702342687275       35.12845877020814       72.93972735049446
H          -19.03256459487217       35.78860104313083       71.51658769701363
C          -25.32279257377224       35.31455742365536       74.08922563444300
H          -25.53509255263649       34.45999805954249       73.44310504139966
H          -24.52982893678040       35.89017275924685       73.62297697745034
H          -26.21593153252802       35.93603476836194       74.13582785784445
C          -27.18286662818766       34.31979886597202       76.49359605519278
H          -27.68696769528181       34.33540238063711       77.45328979036292
C          -27.90250807939945       34.17736113478479       75.38306376260773
H          -27.42661244262300       34.12420389234889       74.42533300905086
H          -28.97426049916999       34.08892949015416       75.39046043505195
C          -26.16498476890958       31.99128920436867       81.31928760243693
H          -26.48750510143744       31.40526130590033       80.45987893485024
H          -26.91283279178678       32.76366534310764       81.49810313019793
H          -26.13895270091888       31.33682603329804       82.18693951232557
C          -23.49265578185863       31.94178488229807       83.20317344306797
H          -24.30636594377249       31.27204478590380       83.46081320111399
H          -23.40129722716705       32.69725792657487       83.98279533489317
H          -22.56714929216811       31.36788392675810       83.17850687013909
C          -19.91835281790090       29.41933613649301       76.62680161704027
H          -20.20301703879753       29.30069497592546       75.58227929960471
H          -20.04249508625019       28.46521610850728       77.13277666468026
H          -18.87734076176188       29.71798770571998       76.67065975088849
N          -22.11391070578687       30.39031888114400       77.34451602995135
H          -22.68307910055858       29.61111836422989       77.05982998713876
C          -20.74942914275983       30.47013387141385       77.25674881649010
C          -22.55543788465794       31.54889994233087       77.87536457243363
H          -23.58264827871460       31.77055163486455       78.07304171500104
N          -21.55488842284585       32.35901192207962       78.11161970688407
C          -20.41977938874393       31.69517028904351       77.76231247646329
H          -19.45488055408295       32.13354242160426       77.91613485441539
C          -21.48975197675825       39.23244903470047       79.92609082391989
H          -21.84972444115601       39.54900326775169       80.90042056499770
H          -21.68780245031594       40.00765157764076       79.19136325875344
H          -20.42154272769266       39.05075767144991       79.97791846330686
N          -23.50557408219177       37.83457472151758       79.37569036156701
H          -24.19783402157064       38.54847560206277       79.52622476227332
C          -22.15074151101867       37.98273993269081       79.51770870991423
C          -23.73517010923963       36.56420548010684       78.97000129499236
H          -24.71539510225386       36.17030734508641       78.78441109950158
N          -22.59952924484292       35.92501130787887       78.84642417061521
C          -21.61261942826293       36.78922482584663       79.18385883669076
H          -20.59997712444071       36.45602494411214       79.15473114514006
87
 energy: -128.448754605205 gnorm: 0.024014259690 xtb: 6.7.1 (edcfbbe)
Fe         -21.98800221194952       34.22633881316376       78.44400442292626
N          -20.33551299286463       34.28034030002257       79.67783302465399
N          -20.75639964206194       34.87942546354948       76.91476594566628
N          -23.55941138253394       34.25017097548258       77.20848428491924
N          -23.11336649283875       33.61128629742181       79.92564286227643
C          -20.33296458079298       34.00161523958786       81.00003549374740
C          -19.01906682356190       34.21752767758435       81.56909347188683
C          -18.22372265247077       34.62412630990752       80.53818426292941
C          -19.06599564556933       34.64727909609299       79.35602750740755
C          -19.41212574473018       35.08989753288296       76.94668214333905
C          -18.91835218977176       35.43156714139959       75.63097838394080
C          -20.01606697696379       35.43302707681304       74.79690261404842
C          -21.15207536572563       35.10628522511273       75.64203729781917
C          -23.57470714264049       34.72395621405431       75.93483628157038
C          -24.92416419315687       34.82392616233474       75.44471641423036
C          -25.74128158643603       34.40856959760254       76.47457428927974
C          -24.85228852548504       34.06286370705008       77.56976200296070
C          -24.42715492933949       33.27855784401140       79.86739644797568
C          -24.82721938965088       32.59964714173200       81.08245027673350
C          -23.72689542670758       32.58539612687117       81.88749044235770
C          -22.67690105129712       33.25979998062479       81.15821234505103
C          -21.42541888505253       33.51574941794832       81.69488898156168
H          -21.29249917694264       33.29906059228159       82.74404464929169
C          -18.62584445774245       34.99903084819385       78.08884978168764
H          -17.57110638919036       35.21954110965508       77.98999678849057
C          -22.45614106505518       35.06092127870128       75.18778978214267
H          -22.61745675818475       35.32838136701461       74.15420183609098
C          -25.26670386754856       33.56456263902457       78.79824714750798
H          -26.32437168571148       33.39252412193141       78.93470310939321
C          -16.78204757500935       35.00064918811916       80.58452165885409
H          -16.39166285148235       34.89157807911032       81.59333956255190
H          -16.64138575100266       36.03791226333092       80.28018943857835
H          -16.19034919634253       34.37288303784839       79.91840516397909
C          -18.65633650899294       34.02894704359095       83.00219707390178
H          -19.25235624772989       33.23912275276922       83.45313499722222
H          -18.83029222664281       34.94506116262381       83.56923157015332
H          -17.60671274818201       33.76264971741823       83.10930454610441
C          -17.50904198690359       35.74052131528236       75.26457052540803
H          -17.06764928381423       34.91513828087993       74.70053416985142
H          -16.88343671670156       35.90625380337163       76.13688411459196
H          -17.47213032035343       36.63056072430702       74.63211378558464
C          -20.06027576231997       35.70485958892916       73.38201827401308
H          -21.00543360582343       36.05231233626503       72.97540107993889
C          -19.03196002195038       35.54709149307022       72.54534513475895
H          -18.09756563028908       35.13614251619333       72.87751486841331
H          -19.09080231565491       35.77455126394126       71.49275290012648
C          -25.31082563125578       35.31561342793950       74.09383933050806
H          -25.51775651830182       34.47318707882518       73.42937781622345
H          -24.51814978640927       35.90466957631050       73.64137444294722
H          -26.20697528040677       35.93247687836950       74.14895572174028
C          -27.17650070927400       34.31027665206512       76.48480241569861
H          -27.66158479765469       34.33637038928210       77.45441990749899
C          -27.92620367617561       34.17003983502183       75.39083072509007
H          -27.47914225672944       34.08629166300804       74.41712432430825
H          -28.99863673053037       34.09558608616432       75.42561106347378
C          -26.16698808400080       31.99861284289809       81.32108679460988
H          -26.48491016104353       31.41202457855291       80.45980907557802
H          -26.91692213738091       32.77033464054134       81.49652887051603
H          -26.14332999261819       31.34608114854606       82.19042629232688
C          -23.50999854212458       31.94437773496955       83.21279022830228
H          -24.32822103451360       31.27898695648255       83.47066599135893
H          -23.41397265548212       32.69590490774286       83.99653757052288
H          -22.58792627070317       31.36393621499278       83.19146900667886
C          -19.90725690259713       29.40271421846999       76.62746203918877
H          -20.18867893600835       29.27460099303901       75.58278434589074
H          -20.03029272823452       28.44950390701824       77.13671901708545
H          -18.86574106283763       29.69997850876155       76.67209447450182
N          -22.10582796026491       30.36533040934816       77.33070895502286
H          -22.66841278828499       29.57864655793333       77.05311649918534
C          -20.74276088431929       30.45979165278432       77.24345468888846
C          -22.56264636719899       31.52887814203039       77.84293272171557
H          -23.59073177512055       31.74055562867896       78.04272907795277
N          -21.57271249689675       32.35571968233180       78.07054465862707
C          -20.43154489625441       31.70086768370929       77.72649735963880
H          -19.47154473429608       32.15158120571241       77.87133757789790
C          -21.49038316195141       39.29531165710303       79.94190642197820
H          -21.84564180689284       39.61055950990207       80.91890736229192
H          -21.68048748628487       40.08025437853577       79.21436126002030
H          -20.42277473132359       39.10795510359088       79.99220964739074
N          -23.49652475005201       37.86810088875558       79.38837874839739
H          -24.20437471858012       38.56714830210901       79.54265701186338
C          -22.14531455101568       38.04223186970667       79.52398270259322
C          -23.70249460237070       36.59053463846305       78.97863351186918
H          -24.67479432338330       36.18227330940267       78.79414511537972
N          -22.55629235010842       35.96754028675927       78.84868671330175
C          -21.58618711988093       36.85593972886176       79.18152509516474
H          -20.56587862006554       36.54860126017549       79.15128426085253
87
 energy: -128.455848325291 gnorm: 0.020223826873 xtb: 6.7.1 (edcfbbe)
Fe         -21.98482587318648       34.22632421561787       78.44331712442315
N          -20.35002579883720       34.28205895878528       79.67667303058413
N          -20.76131090986708       34.85185298586640       76.91201711160156
N          -23.55945237226927       34.24715424813423       77.21352814285704
N          -23.10369621734741       33.58396167888433       79.91432371116471
C          -20.34372593002361       33.99933307410984       80.99802631133926
C          -19.02894431429650       34.21660511991845       81.56325766515262
C          -18.23566261106044       34.62098858367029       80.53290073952802
C          -19.08059347971027       34.64580381319431       79.35673734380734
C          -19.41986491147047       35.06292474481906       76.95186469001469
C          -18.91778206732486       35.40741004851316       75.64648165934749
C          -20.00616433407223       35.41487149785191       74.80455324842977
C          -21.14984687107327       35.08216366245981       75.63857944241875
C          -23.56984155195696       34.70888079580348       75.93529461128036
C          -24.91527753812778       34.79962458470997       75.43967750045960
C          -25.73618151677808       34.37925948646117       76.46312607233503
C          -24.85217408750777       34.04418675075281       77.56555599161705
C          -24.42020782854174       33.25825547236201       79.85807218277748
C          -24.82767496883255       32.59685442312901       81.08116439635934
C          -23.73196653763073       32.58030291121482       81.88825151435118
C          -22.67475434213392       33.23916191743865       81.15316639091600
C          -21.42768892413884       33.49601062123425       81.69287460554985
H          -21.28985119099923       33.26932814612260       82.73912413987310
C          -18.63501206371092       34.98861158137787       78.09339521018930
H          -17.58407577345181       35.21941959659119       77.99537649096598
C          -22.45288302195284       35.04276151924297       75.18470214347637
H          -22.61711869238582       35.31582683455876       74.15392010847583
C          -25.26328927869055       33.53617469105335       78.79111743202769
H          -26.31852153801337       33.34925297239722       78.92928882783052
C          -16.79337763189552       34.99685083885318       80.57249081830224
H          -16.40026696836509       34.88835998558186       81.58089767861196