87
 energy: -128.467853276938 gnorm: 0.000038282651 xtb: 6.7.1 (edcfbbe)
Fe         -21.95803666098480       34.23827817462801       78.42161822564469
N          -20.36443197239484       34.16036454250227       79.63250924668826
N          -20.79385257060078       34.89566200169208       76.92667699560509
N          -23.56387819869460       34.32517617032921       77.21824886096985
N          -23.11989626645011       33.56901511198419       79.91363691780680
C          -20.34467468261326       33.77519269782089       80.93319493102253
C          -19.00507922478819       33.86624101407023       81.47398048871362
C          -18.21481779943886       34.31412496296448       80.46278932702741
C          -19.08391053374567       34.49125481026591       79.31895074421135
C          -19.45214229794713       35.11366206150283       76.97066071846599
C          -18.96131537072625       35.55682046607303       75.69078054196150
C          -20.04787386045291       35.60156230688879       74.85775780188345
C          -21.18484932614387       35.19358612857346       75.66258008001509
C          -23.58203766255626       34.71715197870201       75.91561282361776
C          -24.91693625886473       34.65435408237452       75.38005462991099
C          -25.71971292057989       34.20444318212067       76.39654692058136
C          -24.84529115360068       34.01250595179739       77.53723557646464
C          -24.45729703749459       33.33190937732633       79.86539305363095
C          -24.93555845702969       32.83646044236901       81.13727556957157
C          -23.85108010768683       32.78404989893913       81.95658184257158
C          -22.72696855477103       33.24661267332554       81.17286904546177
C          -21.43762686324572       33.34381141690587       81.66101288937229
H          -21.27137491335601       33.05923955074714       82.68908545595318
C          -18.64670999402716       34.93149315072532       78.08424014332682
H          -17.59288853545818       35.14201359388338       77.97733190015148
C          -22.47598930584599       35.10849106455075       75.18082263500955
H          -22.63719485369890       35.36052257759641       74.14356360171978
C          -25.27112350786068       33.53489036945498       78.76512115554431
H          -26.31915341684602       33.29798843494885       78.87418291429729
C          -16.74973764276302       34.59084685356554       80.45833806896981
H          -16.31388027276269       34.38374373254766       81.43272426770797
H          -16.55650363047362       35.63550381643152       80.21206663540998
H          -16.24325356158404       33.97060851182210       79.71809676408587
C          -18.63800187201353       33.51944601920232       82.87645213599311
H          -18.86959284628251       32.47477439770791       83.08609170828475
H          -19.19482446308820       34.13667132966076       83.58199300481529
H          -17.57580263312613       33.67561153368074       83.04937351239730
C          -17.55401856698497       35.94781440526715       75.39833191259764
H          -16.94149669312660       35.07042311525001       75.18272165418293
H          -17.11194692687174       36.46562825649333       76.24849503097735
H          -17.52226645896896       36.60840475780118       74.53413014822766
C          -20.11732250833365       35.99467258808248       73.46850474250341
H          -21.03461211702790       36.48718704907287       73.16637548955489
C          -19.16869520377347       35.79329705847289       72.55902533115321
H          -18.25820480918959       35.26722964166276       72.78710706862951
H          -19.28414216669901       36.12673898798846       71.54080775592502
C          -25.31381646142396       35.08072150613460       74.00939580495378
H          -25.12939005875033       34.28589495718447       73.28448704028871
H          -24.74583314093951       35.95661512542436       73.69943536152267
H          -26.37361643051643       35.32729929513211       73.98638069314680
C          -27.14723014198083       33.97839855479974       76.40555846331878
H          -27.64404495006205       34.16105500580677       77.35207042114506
C          -27.87435314991989       33.56518920221833       75.37176818667830
H          -27.43301520234095       33.32092605413729       74.42147040706439
H          -28.94093729693416       33.43289556102803       75.45040139100547
C          -26.35418355283028       32.47549273559942       81.42194473462118
H          -26.69724560891597       31.69567492882533       80.74121234909023
H          -27.00498680451281       33.34165066181725       81.29624367883886
H          -26.46389549903237       32.11192482674303       82.44081953864462
C          -23.76391291527875       32.34926415369763       83.37981881027217
H          -24.73797176340615       32.04003403922299       83.75160332095743
H          -23.39977359619654       33.16298332287759       84.00762986051620
H          -23.07516677430126       31.51030183222548       83.48257405112389
C          -19.66795274305007       29.42584938182968       76.70234147938569
H          -19.91582980374135       29.08000643239450       75.69872449973752
H          -19.69791286605063       28.56878476814013       77.37526307946517
H          -18.65883383255813       29.82576927994715       76.69273206482411
N          -21.96303252494248       30.25723721833487       77.26360156636991
H          -22.43615001913789       29.39051971462395       77.06741425956041
C          -20.61551313244241       30.47954533389138       77.14626633142234
C          -22.53245132313044       31.40937258990072       77.68358978540167
H          -23.58111972225486       31.52966619426278       77.86159005360507
N          -21.62971505243656       32.34569694268303       77.83912210806805
C          -20.43248231794878       31.78280780930178       77.50933724355157
H          -19.52567473458453       32.34917173764622       77.55494804871212
C          -21.50565889654782       39.64746406753630       79.80239825499923
H          -21.68768342930467       39.92620328473536       80.84045046313078
H          -21.99508385594119       40.38116701163133       79.16179301292036
H          -20.43684932873897       39.68068523075330       79.61564215483682
N          -23.33758978064700       37.94504287682890       79.66730600209586
H          -24.07412564206287       38.56507775402694       79.96159942814221
C          -22.01616681377767       38.28079136403125       79.52525172961238
C          -23.46516859225554       36.63959715131645       79.33904776011246
H          -24.39184358982803       36.10425858633523       79.35807849496702
N          -22.30782521786790       36.12922213635618       78.99868298004398
C          -21.39663492130777       37.13740403569280       79.10958410732694
H          -20.36332383112156       36.97385708514191       78.88447070989797
