87
 energy: -124.720496994855 gnorm: 0.000026689314 xtb: 6.7.1 (edcfbbe)
Fe           5.21860176672494       18.20521210657136      -17.37836988920414
N            4.00844706267305       17.39435128235480      -18.75688996440190
N            4.37001624745525       19.98977474109259      -17.70428398470970
N            6.41292264327310       19.01898178058083      -16.00220362539254
N            6.00056807058986       16.40044756877184      -17.00227241506956
C            3.90256252451152       16.07553862995061      -19.07333582067108
C            2.92127930546320       15.87805284230474      -20.11722677411200
C            2.42884874397264       17.10991671991914      -20.41700708892128
C            3.10631080264924       18.04042961675341      -19.54188016755226
C            3.39635539874964       20.28762739153602      -18.60469671209309
C            3.02527990716742       21.68174562346208      -18.51588214159044
C            3.79156111530324       22.21700301515305      -17.52784592173134
C            4.62898399323798       21.14447319603061      -17.03743335593423
C            6.42670954062895       20.31058719412258      -15.59421544772898
C            7.47823820130982       20.52928987546285      -14.61880219374486
C            8.09246882587099       19.31790701444487      -14.44939573457900
C            7.40543603043657       18.39269585980927      -15.31561731922299
C            7.01586691246052       16.11683603446675      -16.14885570685571
C            7.29326790602434       14.69323244826912      -16.13877665642731
C            6.38800186549238       14.12745749321380      -16.99760984071385
C            5.60300258557894       15.21135584823918      -17.52955867392852
C            4.62279561663417       15.05047109213228      -18.49360405649698
H            4.42113808102929       14.04756945565868      -18.83731490831442
C            2.81925171637530       19.39266412793015      -19.48745441983442
H            2.06894617773042       19.77152994388216      -20.16480173233628
C            5.58883459373842       21.30664421298891      -16.05686172554890
H            5.70562170208471       22.29453682116890      -15.63840351732632
C            7.70523600023622       17.04425974842798      -15.39146376636162
H            8.52900300261859       16.68492699963955      -14.79404538883471
C            2.57257819504500       14.55338013972908      -20.70419947726976
H            2.17971574904958       13.88597165600998      -19.93663111858670
H            3.45351065285661       14.08257294828600      -21.14155011892111
H            1.81996814521293       14.66042410073236      -21.48166517867742
C            1.39518721501919       17.49735798104318      -21.41863020683528
H            1.79311754461355       18.23516007899266      -22.11581058656243
H            0.52573734865453       17.93419109553133      -20.92576241027629
H            1.06513956550863       16.63183688290550      -21.98792990898594
C            6.17638150267375       12.68570854534679      -17.30349100085263
H            6.66763160201666       12.40797286289717      -18.23783583196772
H            5.11449357345773       12.46537609150641      -17.40267761444118
H            6.58687297197818       12.07097796798549      -16.50489433371778
C            8.31013505124201       14.05636676385568      -15.33215071683187
H            8.51675056075362       14.52954162273647      -14.37910100571301
C            8.99632570856125       12.96953419039247      -15.67088152731866
H            8.87024972055590       12.48491769736888      -16.62320618006436
H            9.73330522793228       12.54112926826318      -15.01198161080701
C            9.19406222121163       18.96169278725696      -13.51343461149438
H           10.14916253388557       18.91540189581021      -14.03889995910530
H            9.01472431209800       17.98956291434905      -13.05621248080558
H            9.27037949200146       19.70775804614820      -12.72504584146016
C            7.75379206637532       21.79371533984728      -13.97323547786586
H            6.89028067281167       22.42219149422396      -13.78685034803634
C            8.95629977072996       22.22881853579155      -13.61134183889086
H            9.85255396989578       21.66979692273347      -13.81593146095866
H            9.08775027920401       23.17892873169228      -13.12032345830467
C            3.82772420902813       23.61461820697232      -17.01257258592992
H            4.81213179901380       24.05592287913032      -17.17163072255839
H            3.61792373111751       23.63433008836643      -15.94297242350875
H            3.09000185604494       24.23310890059053      -17.51809676684141
C            1.99449729217495       22.33443765545437      -19.37207844828201
H            2.26470524193381       22.25441275062408      -20.42541463614596
H            1.89735112993599       23.38844043187661      -19.12394515470884
H            1.02224996892914       21.85931435762642      -19.23634564379772
C            2.54706514656705       16.79304837471062      -12.69958773361845
H            1.86822020845607       15.94099625444244      -12.73535560238748
H            2.06912863319282       17.58573044417642      -12.12401342694602
H            3.45644114099231       16.49219331510909      -12.18900325658699
N            1.92391736269746       17.70364640302038      -14.94783053577524
H            0.93525384977223       17.75667975422358      -14.76523609214906
C            2.87817891264108       17.26165141940209      -14.06898366815545
C            2.55228354677528       18.05250380442335      -16.09292599364643
H            2.05316369806101       18.43480298470453      -16.95918854002352
N            3.84408984814758       17.85852662078286      -15.99226768359419
C            4.06280884348345       17.36699915063226      -14.73954620648453
H            5.05049990376107       17.12434070013256      -14.40718188519137
C            6.69580824794708       21.16184842172654      -19.94245628330985
H            6.32156990517977       21.83460832190806      -20.71163662635544
H            7.77108975390136       21.29469377073055      -19.85058284454568
H            6.23496369992167       21.42480642190101      -18.99477454442636
C            6.37060081468106       19.72549471593264      -20.30324368018582
H            6.88106719954627       19.43202032038851      -21.22090498667948
H            5.29739904556281       19.57774679607435      -20.41231841485454
S            6.96437159351855       18.59342570694525      -18.98149786833650
C            7.07880606810874       17.08154624346140      -19.98557924495088
H            7.81795438659137       17.23043208796719      -20.76836689385699
H            6.10696084945830       16.84393349931465      -20.40621959264385
H            7.39511011948774       16.28493395150174      -19.32145875910651
