87
 energy: -124.370505405682 gnorm: 0.392461225913 xtb: 6.7.1 (edcfbbe)
Fe           5.13700000000000       18.22500000000000      -17.33800000000000
N            3.91300000000000       17.39200000000000      -18.71800000000000
N            4.36400000000000       19.99900000000000      -17.69100000000000
N            6.34100000000000       19.01800000000000      -15.95100000000000
N            5.93600000000000       16.41600000000000      -16.94300000000000
C            3.84700000000000       16.05500000000000      -19.06000000000000
C            2.83300000000000       15.88500000000000      -20.08200000000000
C            2.31100000000000       17.08800000000000      -20.34400000000000
C            2.99300000000000       18.05300000000000      -19.48100000000000
C            3.37500000000000       20.32100000000000      -18.60700000000000
C            3.06700000000000       21.73700000000000      -18.59800000000000
C            3.88900000000000       22.29200000000000      -17.63000000000000
C            4.68600000000000       21.20700000000000      -17.07200000000000
C            6.39700000000000       20.32800000000000      -15.53000000000000
C            7.37800000000000       20.46700000000000      -14.46400000000000
C            7.92600000000000       19.26500000000000      -14.25600000000000
C            7.27400000000000       18.34900000000000      -15.18400000000000
C            6.93100000000000       16.08700000000000      -16.05500000000000
C            7.19700000000000       14.67600000000000      -16.09800000000000
C            6.35400000000000       14.13400000000000      -17.01100000000000
C            5.56900000000000       15.22500000000000      -17.54800000000000
C            4.61700000000000       15.08200000000000      -18.50700000000000
H            4.45200000000000       14.07000000000000      -18.87500000000000
C            2.75800000000000       19.39900000000000      -19.42600000000000
H            1.99900000000000       19.78600000000000      -20.10500000000000
C            5.62400000000000       21.32300000000000      -16.07500000000000
H            5.77200000000000       22.32300000000000      -15.66900000000000
C            7.55300000000000       17.00600000000000      -15.24300000000000
H            8.33900000000000       16.63400000000000      -14.58600000000000
C            2.46300000000000       14.53300000000000      -20.71800000000000
H            2.23700000000000       14.00500000000000      -19.76700000000000
H            3.48900000000000       14.26200000000000      -21.04500000000000
H            1.72400000000000       14.22200000000000      -21.48700000000000
C            1.19100000000000       17.44300000000000      -21.34100000000000
H            1.76500000000000       18.21500000000000      -21.89600000000000
H            0.51900000000000       17.94700000000000      -20.61400000000000
H            0.59100000000000       16.85000000000000      -22.06400000000000
C            6.21600000000000       12.65800000000000      -17.43600000000000
H            5.68400000000000       11.98700000000000      -18.14400000000000
H            6.01200000000000       12.32000000000000      -16.39800000000000
H            7.30600000000000       12.60900000000000      -17.64400000000000
C            8.26400000000000       13.99200000000000      -15.23500000000000
H            7.92800000000000       13.43300000000000      -14.35000000000000
C            9.43500000000000       13.40600000000000      -16.05500000000000
H            9.80700000000000       13.92800000000000      -16.94900000000000
H            9.90900000000000       12.46000000000000      -15.75400000000000
C            9.01300000000000       18.83700000000000      -13.23200000000000
H            9.71500000000000       18.39000000000000      -13.96800000000000
H            8.43500000000000       18.02300000000000      -12.74400000000000
H            9.59800000000000       19.39600000000000      -12.47100000000000
C            7.64700000000000       21.77500000000000      -13.72700000000000
H            6.74300000000000       22.29600000000000      -13.41200000000000
C            9.02500000000000       22.41500000000000      -13.94400000000000
H            9.88100000000000       21.80300000000000      -14.26400000000000
H            9.17200000000000       23.49300000000000      -13.78200000000000
C            4.01600000000000       23.76200000000000      -17.15600000000000
H            4.59600000000000       24.43800000000000      -16.49200000000000
H            2.94200000000000       23.81800000000000      -16.87800000000000
H            4.15300000000000       24.08700000000000      -18.20900000000000
C            1.99200000000000       22.38900000000000      -19.54300000000000
H            2.74500000000000       23.09700000000000      -19.95000000000000
H            1.51100000000000       22.84800000000000      -18.65300000000000
H            1.22900000000000       22.18600000000000      -20.32500000000000
C            2.57100000000000       16.48200000000000      -12.73000000000000
H            1.71900000000000       15.77300000000000      -12.80700000000000
H            2.33500000000000       17.24600000000000      -11.95900000000000
H            3.48400000000000       15.91900000000000      -12.44000000000000
N            1.80600000000000       17.90000000000000      -14.64100000000000
H            0.88200000000000       18.08600000000000      -14.31200000000000
C            2.78800000000000       17.15100000000000      -14.05800000000000
C            2.44600000000000       18.31700000000000      -15.79100000000000
H            1.98500000000000       18.95499999999999      -16.54500000000000
N            3.77300000000000       17.78900000000000      -15.82600000000000
C            3.97900000000000       17.02100000000000      -14.67100000000000
H            4.89700000000000       16.50300000000000      -14.43700000000000
C            6.31300000000000       21.04700000000000      -20.37800000000000
H            6.33200000000000       21.52600000000000      -21.38000000000000
H            7.14200000000000       21.46700000000000      -19.76899999999999
H            5.34000000000000       21.27600000000000      -19.89300000000000
C            6.48200000000000       19.53900000000000      -20.51500000000000
H            7.36200000000000       19.35300000000000      -21.16500000000000
H            5.58000000000000       19.14000000000000      -21.02500000000000
S            6.70800000000000       18.66100000000000      -18.97300000000000
C            7.67000000000000       17.28100000000000      -19.52600000000000
H            8.53600000000000       17.61200000000000      -20.13800000000000
H            7.04800000000000       16.60500000000000      -20.15000000000000
H            8.06200000000000       16.71300000000000      -18.65600000000000
87
 energy: -124.541870446071 gnorm: 0.228258028335 xtb: 6.7.1 (edcfbbe)
Fe           5.13314008541055       18.21723976313909      -17.33255363713328
N            3.90752435669574       17.38804178142685      -18.72166975656938
N            4.35682556813160       19.99888337747500      -17.68660338130215
N            6.35147210783770       19.02125377850115      -15.93716956265648
N            5.93838559492349       16.41262809946920      -16.94669190628500
C            3.83605234299362       16.06287135993211      -19.06750532843347
C            2.82291369968293       15.87956563965725      -20.09283764127657
C            2.30046837409304       17.08507010366178      -20.35297815155717
C            2.98849966228554       18.04142306375576      -19.48555856034341
C            3.38212034338576       20.30814593430448      -18.60113015590056
C            3.07738833425132       21.71288389466642      -18.59178424705113
C            3.89915005437914       22.26912692796455      -17.62480051516937
C            4.68430755606798       21.19004785270992      -17.07613163832854
C            6.39594831478707       20.32590182237377      -15.52168840748085
C            7.38167351377955       20.49256950772612      -14.45490294065118
C            7.93174756862083       19.27759381529828      -14.24669206870617
C            7.27919176704561       18.35815354312605      -15.17571879059508
C            6.92798667151617       16.08873789225505      -16.05932716135564
C            7.20961127139340       14.67368310750586      -16.10013260963181
C            6.34437896439460       14.14355039420986      -17.02032145127083
C            5.56969793110161       15.23452253474854      -17.54192279266802
C            4.61064309029887       15.07802926856579      -18.51205010131462
H            4.45245508584925       14.06821518823964      -18.87473399079643
C            2.75402891974378       19.39615972760047      -19.43074395710732
H            1.99926778595142       19.78860524019828      -20.10391158133811
C            5.62412632131806       21.32636320765570      -16.07246096524239
H            5.77049620474053       22.32438457685279      -15.67154731925395
C            7.55776056501770       17.00740626221637      -15.24038518067716
H            8.33765609985760       16.63036150031715      -14.58726515833784
C            2.49056693170992       14.52449451184860      -20.69103182183536
H            2.23917967426986       13.97189612133168      -19.77789308770216
H            3.48278848754396       14.22745718917294      -21.05074263867110
H            1.74025592022541       14.27424466522440      -21.46303037550344
C            1.20260946727234       17.47869916553327      -21.32500384690898
H            1.73793537984599       18.23331519215927      -21.91265323884819
H            0.49945994370727       17.96319779733480      -20.63693336635330
H            0.63363504765083       16.83712409771195      -22.02304394293189
C            6.25123959332516       12.66601123305628      -17.40224863602230
H            5.67915474762544       12.05934756248834      -18.13250447721888
H            6.02761448798428       12.27767574218144      -16.40097286740023
H            7.31673197318149       12.55676724936806      -17.63698198597293
C            8.27358911759477       13.93533081655147      -15.31774986124633
H            7.95180968505529       13.44748245735273      -14.38057421025072
C            9.38725194647962       13.42040261895090      -16.02754298230665
H            9.77476591638128       13.91861058518210      -16.92202144864313
H            9.90226963234204       12.50069924400712      -15.73296416810746
C            8.99976944810104       18.81031186529459      -13.25684822738549
H            9.73124480822417       18.37336643518622      -13.94804720432062
H            8.45993616092099       18.01184831937385      -12.73150024362238
H            9.55274055467480       19.41121109732143      -12.51116633132897
C            7.69576209821514       21.79537052916263      -13.78854468329343
H            6.79328683012239       22.30172294749928      -13.42108459148322
C            8.96632188657141       22.39254577913778      -13.93651876268896
H            9.83485344688243       21.80962225050491      -14.26063723784883
H            9.15119159449417       23.45791614457751      -13.76295200597041
C            3.97835847263108       23.74774568450196      -17.19777384850698
H            4.59778440596572       24.35957954496027      -16.50709391147976
H            2.93260120264330       23.86215682135122      -16.88487907641286
H            4.13511104240928       24.13832613349626      -18.20993678301285
C            2.02830915603053       22.42155432718544      -19.49973953110213
H            2.72122055152152       23.13533783467352      -19.96166734213725
H            1.48586398630495       22.89139757682968      -18.67120538066061
H            1.28393366288238       22.13930972348171      -20.27861305946080
C            2.55941272570336       16.47352284115070      -12.71080285309424
H            1.72069085893401       15.77288437137102      -12.79406178788588
H            2.33417867643753       17.23372120503049      -11.95366679732319
H            3.46809614560167       15.92545643557076      -12.43614277928839
N            1.84221187396206       17.89028432087850      -14.64927070103350
H            0.90471841764958       18.08405115840059      -14.32457375655809
C            2.78475340541516       17.13275134958489      -14.02308942050522
C            2.47398133516740       18.30593268573394      -15.79172725244869
H            2.00794998571788       18.93981546688710      -16.53612612866671
N            3.74899837288048       17.81514161902475      -15.84349445458618
C            3.95353657490513       17.04930949622616      -14.69829997304964
H            4.87381836411426       16.52868143132764      -14.46255910550291
C            6.31277169016636       21.04651765814113      -20.37500425639318
H            6.33066068353203       21.52009877472945      -21.36722874040861
H            7.13087008418765       21.46384851645966      -19.77332001257491
H            5.35403171364259       21.27716950599021      -19.89550769215144
C            6.47541792931463       19.53981505751874      -20.52911283418504
H            7.35585225511149       19.34762022693835      -21.16004686062643
H            5.58272988222956       19.13573037522691      -21.02737273709928
S            6.73858440611424       18.68373066042878      -18.95559382202458
C            7.67352933602014       17.27189057035388      -19.53516591227523
H            8.53062969920046       17.60994957664462      -20.13355859828268
H            7.05102860528550       16.60459416674601      -20.14541133410079
H            8.05248156236215       16.72098410008884      -18.66454205486257
87
 energy: -124.630524049541 gnorm: 0.132226679978 xtb: 6.7.1 (edcfbbe)
Fe           5.13002763986403       18.21022916845204      -17.32837798444190
N            3.90356976819816       17.38380850274397      -18.72528844584307
N            4.34908000910914       20.00273473355850      -17.68312931790626
N            6.35955617895311       19.02449251567012      -15.91867349819793
N            5.93782036022215       16.40652183848184      -16.94863173290578
C            3.82841322721413       16.06999034337640      -19.07177564785147
C            2.81498460793682       15.87225126015143      -20.10206962742664
C            2.29085502544024       17.08346010899955      -20.36136946111266
C            2.98478410392801       18.03150965067059      -19.48874277315241
C            3.38471184388859       20.29903880260586      -18.59663059020007
C            3.08161536120779       21.69985186606353      -18.58901022428949
C            3.90561153519338       22.25724695763891      -17.62070259581340
C            4.68097615083167       21.17761134403195      -17.07740639574515
C            6.39809053727270       20.32342600807602      -15.51499243950672
C            7.39189379200527       20.50967222821273      -14.44833110674762
C            7.94084969778144       19.28477169704758      -14.23969628655185
C            7.28075430920020       18.36521088490258      -15.16526366306496
C            6.92789691647744       16.09279257779328      -16.06591473405503
C            7.22663646321659       14.67599590619762      -16.10619958685338
C            6.34214509412152       14.14937606871835      -17.02984201643560
C            5.56876195826453       15.24016777445491      -17.53647379721324
C            4.60392567609236       15.07322744560408      -18.51692601618339
H            4.45268379953008       14.06604960181751      -18.87424180994028
C            2.74881958897915       19.39252892874656      -19.43570036601955
H            1.99937202785961       19.79102000074562      -20.10344442168440
C            5.62540921475683       21.32984616397805      -16.06764749256805
H            5.76945463471586       22.32590202703214      -15.67365277927129
C            7.56149008345372       17.00939111574409      -15.23851826969600
H            8.33591401767306       16.62594024047138      -14.58935006722962
C            2.51829570470022       14.51720847043473      -20.66411029202286
H            2.24312144298613       13.93454515156479      -19.78782638058399
H            3.47880239243950       14.18853709639047      -21.05569234833023
H            1.75472337598054       14.33713999458876      -21.43868992545559
C            1.21489063981955       17.51388226477465      -21.30802598229998
H            1.70881678438233       18.25618452584980      -21.93054106581719
H            0.47744373226656       17.98472613928023      -20.66095512771420
H            0.68297478733873       16.81695912500340      -21.97761527597529
C            6.28904704786472       12.67676619276306      -17.36621627754474
H            5.67100556411553       12.14944454185033      -18.12169978032187
H            6.04630211763220       12.23532506755109      -16.40097190546466
H            7.32986642656580       12.50224339540126      -17.62811745388838
C            8.27994380500601       13.88213262427481      -15.39389023556390
H            7.96435629833558       13.45795727285497      -14.41851440984244
C            9.33163029433394       13.43708702675754      -16.00492190159889
H            9.73186247802220       13.90009505874971      -16.91071792046034
H            9.90293018555839       12.55380207845996      -15.69955616808707
C            8.98637097748342       18.78678671282706      -13.28118216346984
H            9.74817002799938       18.35486275699641      -13.92856781376370
H            8.48437924944609       17.99886113053046      -12.71962347009717
H            9.50235291857059       19.43633517597761      -12.55470913575000
C            7.73550829392269       21.81233497107768      -13.83876108911069
H            6.83863409459641       22.31468733853544      -13.43896250692072
C            8.90590920397507       22.36609083491485      -13.93747100424919
H            9.79068147183477       21.81653483431544      -14.27142518336517
H            9.12867370762889       23.41810079274699      -13.73212296555806
C            3.93975058279894       23.72995757869719      -17.24121337333368
H            4.60421777816904       24.26168455543172      -16.52287686660630
H            2.92075279415064       23.90315928226681      -16.89634457827320
H            4.11349215677200       24.18650683492758      -18.21324398939739
C            2.06817975839282       22.45260465227152      -19.45309201063188
H            2.70139174686803       23.17434719216604      -19.96738445106484
H            1.46624852877315       22.93625026860878      -18.68592937938012
H            1.35053430728529       22.07704466972899      -20.22329134239000
C            2.54989147318377       16.46614548362468      -12.69488207781172
H            1.71920916638989       15.77077592860214      -12.77812383939075
H            2.33067262738468       17.22136556411198      -11.94398665543776
H            3.45407290904950       15.92725954899497      -12.42655473423099
N            1.87676562908197       17.88301630746737      -14.66111514756602
H            0.93175174743801       18.08298594540943      -14.34195475905221
C            2.78641796599449       17.11567149172646      -13.99354993518374
C            2.50433946946700       18.29625288646404      -15.79362335474201
H            2.02917124107048       18.92632920069933      -16.52803968442273
N            3.72399455688437       17.83588587391286      -15.85808849142584
C            3.93142722562395       17.07945340008707      -14.72870472997629
H            4.84952096895445       16.55659592651628      -14.48889468138342
C            6.31117018507672       21.04704421357523      -20.37486596661848
H            6.32881801207791       21.51809924023847      -21.35902728705315
H            7.12276154289815       21.45751210124561      -19.77650649547679
H            5.36405339020037       21.27777020891329      -19.89582274372946
C            6.47012173591337       19.54279553133169      -20.54196794163613
H            7.35049873816834       19.34191822561704      -21.15599298666584
H            5.58439699349210       19.12896277258249      -21.02359923780979
S            6.76911773649942       18.70527789445854      -18.93727855628033
C            7.67950012353885       17.26116098105721      -19.54279049108645
H            8.52726433267407       17.60726318527590      -20.13162933918083
H            7.04867434950078       16.60789635746135      -20.14036704688754
H            8.04402358003463       16.72531036006933      -18.66936689471091
87
 energy: -124.674624430244 gnorm: 0.063394767325 xtb: 6.7.1 (edcfbbe)
Fe           5.13535726606917       18.20686159617996      -17.33476931771752
N            3.90182582440587       17.38250041088427      -18.72545025905820
N            4.34256630657036       19.99809963674588      -17.67748955881907
N            6.35748408632946       19.02099979614550      -15.91031756207364
N            5.93539927396780       16.40594283799958      -16.95448687299396
C            3.82551902361605       16.07228327273772      -19.07076488929741
C            2.81472087914554       15.87081760585937      -20.10094728252412
C            2.28941532655542       17.08701392212531      -20.36048755746048
C            2.98322901243980       18.02910135582738      -19.48759337642309
C            3.38232455113907       20.29195867478106      -18.59349701385115
C            3.08564803843038       21.69559520395526      -18.58259977156845
C            3.90497591360173       22.24980902453289      -17.62101126997351
C            4.67813499538908       21.16975635326461      -17.07384478768750
C            6.39409469471209       20.31778999105722      -15.51524156354822
C            7.38836985267672       20.50242720279789      -14.45588419925851
C            7.94077418017263       19.27972649721742      -14.24278106500872
C            7.27786674699178       18.36325121399713      -15.16139552370408
C            6.92781366701458       16.09963282497601      -16.07477374534706
C            7.22064359223383       14.68632618944644      -16.11795991546146
C            6.34594909297765       14.15296266501143      -17.03680296045930
C            5.56434400905090       15.24049853611059      -17.53883526280686
C            4.59787687542821       15.07075087919969      -18.51946031092175
H            4.45002801945473       14.06336280530625      -18.87505072911851
C            2.74566012820311       19.38922143319116      -19.43667899612051
H            1.99892428465287       19.79298948949899      -20.10315318114095
C            5.62372369787420       21.32724950407686      -16.06489148551893
H            5.76858149805140       22.32523662657292      -15.67722405209576
C            7.56206437402349       17.00934924615595      -15.24059576041977
H            8.33411463964214       16.61929055862926      -14.59304283909383
C            2.53822381135581       14.51152554463142      -20.64430819823254
H            2.24892145489684       13.88731876395841      -19.79710565310052
H            3.47693378121845       14.14009283393571      -21.05985416319612
H            1.76153122143302       14.40912060717718      -21.41870435183144
C            1.22282920932109       17.54145640915790      -21.29557797305392
H            1.67401564077769       18.28804828280477      -21.95153437404376
H            0.44975142355294       18.01521901867498      -20.68762902571748
H            0.73460303904753       16.78541978272469      -21.93228752975948
C            6.31748101579057       12.68469096114188      -17.34114196651987
H            5.65466387463217       12.24756577749122      -18.11875681785694
H            6.07138171051235       12.18661704115270      -16.39916180179663
H            7.34758454599242       12.43623571014102      -17.61363544125987
C            8.22575376287155       13.86064165816421      -15.41633365429417
H            7.93560882745887       13.45106920528738      -14.44129441657565
C            9.35971568330844       13.44746494887187      -15.99958268065489
H            9.70260301092807       13.87345312167273      -16.93958143239830
H            9.94798865769033       12.59982994927999      -15.65162203981916
C            8.97819323594014       18.76988520868072      -13.29905992330984
H            9.77169121225814       18.32984829978840      -13.90733550289449
H            8.51320849976699       17.97927226363780      -12.70469085001646
H            9.44841856769170       19.47862627144470      -12.59937765575939
C            7.70918173275148       21.81120890566572      -13.88156848199665
H            6.84356201538586       22.33536818111325      -13.46677388023479
C            8.91995520657301       22.36631353199938      -13.92171469470827
H            9.77884149579331       21.82272892967639      -14.30325603924902
H            9.12823031041557       23.40333995779480      -13.67737930988206
C            3.91021095974567       23.71375132337363      -17.27547393863109
H            4.61896561005993       24.15205067135173      -16.53460691628405
H            2.90315314587593       23.95059068844725      -16.91563300248227
H            4.08210523117419       24.24003475833575      -18.22066039827779
C            2.10072998540580       22.47725922058356      -19.41414813763032
H            2.68115064563274       23.22516168832397      -19.96650006880696
H            1.45025226105759       22.99509121181017      -18.69863249167846
H            1.42233467266474       21.99946835949639      -20.16565085399542
C            2.54335260933289       16.46246993410669      -12.68551376738037
H            1.71269620133247       15.76562205841152      -12.75829787408501
H            2.32339416911918       17.20991070516999      -11.92739162353114
H            3.44203838337797       15.92295421154999      -12.40811301142877
N            1.89195989007461       17.88100906712356      -14.66690313113084
H            0.95083920198511       18.08207931325095      -14.35347203870537
C            2.79350791951967       17.11103591599311      -13.98727943847177
C            2.51233910849155       18.29702684945608      -15.79872297745656
H            2.03699594100152       18.92300431958580      -16.52845824767455
N            3.72865173114139       17.84584358794400      -15.86987446901922
C            3.92729866316658       17.09560867794210      -14.74568296582912
H            4.84154732100292       16.58015046932517      -14.51533703332295
C            6.30939548766161       21.04428436397566      -20.37655906784974
H            6.32481187082518       21.51860597586168      -21.35631626701703
H            7.11970038902915       21.45172788284186      -19.77831838588228
H            5.36841877055856       21.27855710417395      -19.89212390851604
C            6.46892081008938       19.54245551054220      -20.54452999246160
H            7.34571151467776       19.33383067697055      -21.15695065722040
H            5.58303300831411       19.11519884018729      -21.01277897346644
S            6.80590060118937       18.72915446972747      -18.92232435941981
C            7.68296676868648       17.25970487484470      -19.54548056622053
H            8.52916465842762       17.59990748960586      -20.13517909913050
H            7.03773163374979       16.61510804563901      -20.13490790356440
H            8.03741803744416       16.72517521369532      -18.67087946579496
87
 energy: -124.692434514558 gnorm: 0.055169340762 xtb: 6.7.1 (edcfbbe)
Fe           5.13859517612750       18.20521782070576      -17.33669781050522
N            3.90938827395358       17.38443689840535      -18.72373823358298
N            4.33707215924412       19.99757449891954      -17.67291253637683
N            6.35011789539552       19.01615368531092      -15.90529416584114
N            5.93669559856376       16.40178400391794      -16.96343935227919
C            3.82909024428152       16.07532037165333      -19.06623199862734
C            2.81979480079197       15.87164043375749      -20.09453621403166
C            2.29341974171354       17.09349225516663      -20.35473548900802
C            2.98820349310697       18.02960203610236      -19.48278263141258
C            3.37706616349269       20.29057112322949      -18.59092326178381
C            3.08608536294507       21.69904986374253      -18.57582028861948
C            3.90082834847233       22.24936640291989      -17.61976792302917
C            4.67437951106838       21.16792565539950      -17.06689531043327
C            6.38771092210630       20.31140496329178      -15.51367980116590
C            7.39144377189792       20.49634803116480      -14.46707315935272
C            7.94271493883292       19.27108526191191      -14.25254135218708
C            7.27215709292763       18.35896900385328      -15.16159853700857
C            6.93272106433931       16.10321947763540      -16.08494074956447
C            7.23071009472024       14.69366986818819      -16.12838192184650
C            6.35774573473039       14.14817373253148      -17.03537939057277
C            5.56636227856640       15.23279336533069      -17.54324247391287
C            4.59630588377329       15.06644856062589      -18.52029006256586
H            4.44517015843183       14.05984026975282      -18.87584581565653
C            2.74439020384082       19.38812111570236      -19.43479350185189
H            1.99903468111749       19.79277497134796      -20.10215669548942
C            5.61977690760056       21.32421415714916      -16.05958078300829
H            5.76899902758566       22.32374674551270      -15.67836186098975
C            7.56258425936518       17.00796008609937      -15.24574278839226
H            8.33327460080620       16.61244277432721      -14.60019309852307
C            2.54886168597350       14.51270889788453      -20.63338771957839
H            2.24800206228979       13.85397563025830      -19.81318912292938