78
 energy: -115.981127969385 gnorm: 0.248846025356 xtb: 6.7.1 (edcfbbe)
Fe          47.38400000000000       41.34800000000000       28.68100000000000
N           46.65400000000000       43.17000000000000       28.19300000000000
N           49.19200000000000       41.86600000000000       27.98500000000000
N           48.11300000000000       39.55199999999999       29.26700000000000
N           45.62000000000000       40.89899999999999       29.50700000000000
C           45.36599999999999       43.63900000000000       28.36500000000000
C           45.32700000000000       45.02300000000000       27.96600000000000
C           46.54299999999999       45.36599999999999       27.55500000000000
C           47.39400000000000       44.21200000000000       27.67200000000000
C           49.50700000000000       43.04699999999999       27.36000000000000
C           50.81799999999999       42.92500000000000       26.76500000000000
C           51.26600000000000       41.68900000000000       27.00100000000000
C           50.26000000000000       41.01400000000000       27.80200000000000
C           49.41600000000000       39.14200000000000       29.12500000000000
C           49.61800000000000       37.96300000000000       29.94500000000000
C           48.46599999999999       37.68500000000000       30.55500000000000
C           47.51100000000000       38.67900000000000       30.11700000000000
C           45.29300000000000       39.68600000000000       30.06000000000000
C           43.86700000000000       39.60600000000000       30.19300000000000
C           43.33800000000000       40.77200000000000       29.79100000000000
C           44.42799999999999       41.60799999999999       29.34900000000000
C           44.31400000000000       42.89600000000000       28.86300000000000
H           43.32600000000000       43.35700000000000       28.87300000000000
C           48.71800000000000       44.16199999999999       27.33100000000000
H           49.18400000000000       45.09300000000000       27.00800000000000
C           50.34699999999999       39.75200000000000       28.32100000000000
H           51.23900000000000       39.17599999999999       28.07300000000000
C           46.18500000000000       38.71700000000000       30.42000000000000
H           45.79500000000000       37.88900000000000       31.01100000000000
C           46.96900000000000       46.74699999999999       27.02300000000000
H           47.48199999999999       47.31300000000000       27.82999999999999
H           46.07299999999999       47.31700000000000       26.69700000000000
H           47.66999999999999       46.62100000000000       26.17000000000000
C           44.09599999999999       45.94100000000000       28.01000000000000
H           43.34399999999999       45.52000000000000       28.71200000000000
H           43.64399999999999       46.01200000000000       26.99800000000000
H           44.39299999999999       46.95100000000000       28.36400000000000
C           51.51300000000000       44.02300000000000       25.94300000000000
H           52.11300000000000       44.66900000000000       26.61900000000000
H           50.75000000000000       44.64800000000000       25.43100000000000
H           52.19000000000000       43.55900000000000       25.19400000000000
C           52.63100000000000       41.12600000000000       26.53900000000000
H           53.51800000000000       41.77400000000000       26.48400000000000
C           52.75100000000000       39.83700000000000       26.19800000000000
H           51.88199999999999       39.16400000000000       26.24200000000000
H           53.72000000000000       39.43400000000000       25.86900000000000
C           50.97599999999999       37.25600000000000       30.06800000000000
H           51.79300000000000       37.99800000000000       29.94200000000000
H           51.06900000000000       36.48099999999999       29.27800000000000
H           51.06600000000000       36.78800000000000       31.07100000000000
C           48.08100000000000       36.55900000000000       31.53500000000000
H           47.28200000000000       36.72700000000000       32.27200000000000
C           48.68000000000000       35.37100000000000       31.53200000000000
H           49.48499999999999       35.15300000000000       30.81400000000000
H           48.37800000000000       34.59200000000000       32.24700000000000
C           43.13300000000000       38.37700000000000       30.74299999999999
H           43.33300000000000       38.28200000000000       31.83200000000000
H           43.49600000000000       37.46200000000000       30.22900000000000
H           42.03900000000000       38.49200000000000       30.58700000000000
C           41.84700000000000       41.16599999999999       29.80600000000000
H           41.33300000000000       40.64200000000000       30.64000000000000
H           41.37100000000000       40.86999999999999       28.84700000000000
H           41.75000000000000       42.26299999999999       29.95600000000000
O           48.30800000000000       42.67500000000000       31.05099999999999
H           47.89700000000000       43.54000000000000       31.04700000000000
H           48.86199999999999       42.35899999999999       31.67100000000000
C           44.79200000000000       38.40200000000000       24.55600000000000
H           45.39800000000000       37.65200000000000       24.00400000000000
H           44.21000000000000       39.00300000000000       23.82500000000000
H           44.10200000000000       37.87000000000000       25.24500000000000
N           46.66499999999999       40.07400000000000       24.74800000000000
H           46.85499999999999       40.09500000000000       23.76700000000000
C           45.69700000000000       39.29700000000000       25.33900000000000
C           47.29000000000000       40.77600000000000       25.67700000000000
H           48.10899999999999       41.46800000000000       25.48300000000000
N           46.75300000000000       40.49000000000000       26.84400000000000
C           45.75400000000000       39.56999999999999       26.66300000000000
H           45.17500000000000       39.19400000000000       27.49700000000000
78
 energy: -116.025747139350 gnorm: 0.098623368363 xtb: 6.7.1 (edcfbbe)
Fe          47.39427406343784       41.37037795086314       28.72609276942627
N           46.65734526413402       43.17507665645567       28.19945311086312
N           49.18995284760774       41.85082608032003       27.95601643056419
N           48.12787238157020       39.57786904710728       29.30528063884540
N           45.60935490845961       40.89800376695335       29.49089536436483
C           45.37710582037178       43.64059193176461       28.36915943133663
C           45.31082261997518       45.02818664356310       27.96694690551038
C           46.54655764348051       45.38069188408521       27.54949351597348
C           47.38892603161047       44.21642691076102       27.68642973519658
C           49.52053001881232       43.03725048131882       27.36041681729333
C           50.83247881340161       42.93500190878822       26.76026138637427
C           51.28997925953458       41.67953229534549       27.00096620790001
C           50.25782950211220       41.00834968159967       27.77883072364085
C           49.41049899694148       39.13744872509677       29.13765981239015
C           49.62829633979479       37.95003940983724       29.94272713518276
C           48.45536550227488       37.66782279580551       30.56662796529365
C           47.51612146970773       38.68423765240970       30.12886299667927
C           45.27938159052344       39.69338312444393       30.04907689215112
C           43.85227630866988       39.60138523551469       30.21107455396471
C           43.32365391443468       40.77821642236425       29.79707338407385
C           44.42852320859883       41.59618811163018       29.34436946573627
C           44.32383628257465       42.88841536176128       28.86187131745947
H           43.34070231395455       43.34787147957759       28.87163525920062
C           48.72071149664246       44.16270753126073       27.33275608942388
H           49.17623511711130       45.08534330361894       26.98928335514631
C           50.34941378306358       39.74582368251932       28.32347721063260
H           51.25223800976808       39.18551629402303       28.11496980201746
C           46.17484492494886       38.71442024353788       30.42580495389783
H           45.78392172234057       37.88591974853422       31.00525243250367
C           46.97108657278683       46.73409116070534       27.02782102865032
H           47.47738698690824       47.30377272269222       27.81591318637375
H           46.09487175654224       47.30138734222773       26.70058240050309
H           47.65775061428597       46.62449274407921       26.18325690469131
C           44.09827614269704       45.92667735447348       28.01402814035389
H           43.34900705009591       45.52767823360956       28.70237343563019
H           43.64948661518411       46.01038261630134       27.01756145993771
H           44.38411778930047       46.92725511049170       28.35477248852478
C           51.50814146415821       44.01711816978622       25.95267049446951
H           52.10315676434745       44.66228395386327       26.60914466295367
H           50.76653801622837       44.63559316231377       25.43786039674406
H           52.17523696028454       43.56924716862873       25.20975699041601
C           52.60035235768068       41.11396402616968       26.55453667645718
H           53.46250099437287       41.77907441396516       26.49776043394216
C           52.74540093416465       39.84178818762032       26.19757365193200
H           51.90290421329632       39.16294165424634       26.20933702008544
H           53.70330242369782       39.44520522067128       25.87606738028311
C           50.96653220792506       37.26320008292156       30.06720650627016
H           51.77891746460116       37.98638558795597       29.94430611165559
H           51.06981643846402       36.49314153455322       29.29398651017140
H           51.06219978173500       36.79510369115967       31.05164469289327
C           48.09948659036570       36.57346414325142       31.51646564105576
H           47.30140017145799       36.75822761716248       32.23525724569122
C           48.68587793520496       35.38192808991203       31.52598199308824
H           49.47145087944633       35.14010876795847       30.82229898027220
H           48.38705454780679       34.61039048053683       32.22956083611585
C           43.13608640436077       38.38643388277637       30.74411142069357
H           43.32864863648353       38.27952060993870       31.81761854920968
H           43.48649031800618       37.48032020225479       30.23856817989925
H           42.05822971340475       38.48468400443644       30.58975854873755
C           41.86220173399108       41.16582458998139       29.80488167481077
H           41.34416547586006       40.65478655003420       30.62295519357347
H           41.38183811240465       40.88085936786601       28.86176297918840
H           41.75073139075481       42.24391699897092       29.94848518859718
O           48.27562848282785       42.65397408888046       30.99439692853130
H           47.89770899837176       43.53001182604958       31.03299050247953
H           48.86574810888336       42.34628194065938       31.66061223763536
C           44.79799038477508       38.40333294100326       24.55530450806272
H           45.38420958244503       37.65737509876092       24.00618917483237
H           44.21339935750230       38.98491140676415       23.83341886872487
H           44.11496310127843       37.88238345467720       25.23057893792229
N           46.66040151600171       40.06741793195856       24.74108540712536
H           46.85368057284042       40.08783390863691       23.75464498691212
C           45.69438256847313       39.29992403116029       25.33634188301379
C           47.28464393187926       40.77686499929452       25.69271749403697
H           48.09433504767647       41.45988705449982       25.49829879349295
N           46.76554243329340       40.50710306463642       26.87120160450658
C           45.77080605632102       39.58586226764956       26.66715921970819
H           45.19386424326837       39.20566218099182       27.48942678610074
78
 energy: -116.040306288803 gnorm: 0.025530879442 xtb: 6.7.1 (edcfbbe)
Fe          47.40041714038224       41.38564882338903       28.75519324712753
N           46.66823265809563       43.18393996510404       28.22447741233686
N           49.18875350937269       41.84363669075606       27.94563689393989
N           48.14202724383039       39.60932683170166       29.34966190455633
N           45.60553025625816       40.90014005775834       29.48986524798892
C           45.39283069956028       43.64121906851560       28.38133214392495
C           45.30468114548486       45.02779160929319       27.97241333242492
C           46.55117911987956       45.38689331913156       27.55111164851851
C           47.38894130888855       44.21801256982702       27.70417987866604
C           49.52525762846896       43.02689144167310       27.35976921767067
C           50.83683618755359       42.93917802992979       26.76169485996349
C           51.29428640151019       41.66793081327054       26.99797165627366
C           50.24902474300194       41.00505368957155       27.76613313420364
C           49.40987671331258       39.15047202349425       29.16536009785493
C           49.63386313527850       37.94715558869565       29.93917846218443
C           48.44788853249825       37.66151949831755       30.57038465877679
C           47.52268729096377       38.70278873405208       30.15212553215548
C           45.27511588167997       39.70158749254984       30.04643953827896
C           43.84646145916591       39.60041407770169       30.22500808364090
C           43.31871164238247       40.78327067034499       29.80120030608488
C           44.43518313250804       41.58684189666143       29.34332677154140
C           44.33620736902439       42.88151897256314       28.86185163368700
H           43.35610881944695       43.33876411378270       28.86655124070809
C           48.72047813992918       44.15859294931720       27.32759238633516
H           49.16661138838111       45.07219247550155       26.95902218178889
C           50.35482929683660       39.75084379356408       28.34334409964195
H           51.26988512425759       39.20395393498694       28.17084069016319
C           46.16980417282544       38.71719644752694       30.43703331185509
H           45.77297589160298       37.88082342369135       30.99407801232595
C           46.97321935277121       46.71958331816265       27.03210030063797
H           47.47936988336481       47.29298006290007       27.80845616275559
H           46.10727119596341       47.28714232664242       26.70347424373047
H           47.65303664471741       46.61754944510151       26.19113962186137
C           44.10123158032430       45.90905284896348       28.01666451003540
H           43.35163713567294       45.52214555822628       28.69763317612080
H           43.65189934468381       45.99977592170780       27.02777742143614
H           44.37941386489580       46.90708140090150       28.34885059127852
C           51.50519072497338       44.00962114724592       25.96666588480324
H           52.09692065750107       44.65940489809144       26.61071618300237
H           50.77420696438864       44.62385903326314       25.44832797363365
H           52.16880853401680       43.57178423219474       25.22577549481140
C           52.55766192482325       41.10723532009277       26.56368088041398
H           53.39982888471642       41.79096482146392       26.52046192437846
C           52.73575785565638       39.84369959895934       26.19272575523030
H           51.91677328987583       39.14790872698793       26.17606749481826
H           53.69361414697325       39.46231846948027       25.88126655900442
C           50.95398782287956       37.26727704039095       30.06441067015611
H           51.76445917816436       37.98168962650603       29.94673080565051
H           51.06882671690972       36.49840451552865       29.30049808692423
H           51.04879263546632       36.79746620397557       31.03989342412798
C           48.11351306892620       36.59146969147447       31.48511279132565
H           47.31907152560126       36.79693882128897       32.19372372666985
C           48.69101760977656       35.39367811332301       31.51333513918532
H           49.46544073200091       35.12424387688856       30.82074674203542
H           48.39773943461977       34.63597957088668       32.22127005998244
C           43.13931095300149       38.39742884502898       30.74828849787713
H           43.32601722492092       38.27746997316439       31.81442067291734
H           43.48522158291805       37.49772226203590       30.24362862414462
H           42.06867976363044       38.48467437931855       30.59349838871651
C           41.87832858724850       41.16982791853240       29.80257663556646
H           41.35482503048948       40.66348756160679       30.61013100026678
H           41.39796539934713       40.89168352328927       28.86467558859982
H           41.75740667934032       42.23936733296545       29.94074739135978
O           48.21347166037052       42.59392741319600       30.91213530807461
H           47.90590108455206       43.50139734943250       30.99473286684363
H           48.84648518131588       42.32548864603586       31.58455954330383
C           44.80336707516586       38.40510046099756       24.56048868071748
H           45.38198039969826       37.66320052019441       24.01298804435525
H           44.21772646441046       38.97596066960166       23.84174507959781
H           44.12418101514385       37.89008089606765       25.22948660271677
N           46.66098100628018       40.06686134952317       24.73810501695687
H           46.85789280205185       40.08775077047109       23.75002394480942
C           45.69524736395655       39.30419573497879       25.33784583254107
C           47.28309889404909       40.77912375564805       25.70366040698362
H           48.08603188887977       41.45878367509087       25.51037248456034
N           46.77616385841931       40.51728007449802       26.88480329305184
C           45.78541068586413       39.59771913587704       26.67021427488990
H           45.20792865690222       39.21161415912301       27.48358861252035
78
 energy: -116.045614466100 gnorm: 0.031307976244 xtb: 6.7.1 (edcfbbe)
Fe          47.40443497962072       41.39645171784758       28.77698006399946
N           46.67720816309589       43.18792333145592       28.24403904063587
N           49.18305844124427       41.84573252693168       27.94814901189975
N           48.14989050499040       39.63595048199345       29.38331704384919
N           45.60824620730530       40.90276494879928       29.50035843463057
C           45.40290606094818       43.64068489126935       28.39597115858808
C           45.30675113259921       45.02329496677378       27.97978986985105
C           46.55344751289771       45.38483759657674       27.55676609128420
C           47.39230442126912       44.21874242526969       27.71644878447911
C           49.52127962072816       43.02505082524085       27.36028687793941
C           50.82993206193252       42.93831354151729       26.76466305321667
C           51.28083732452149       41.66116194469041       26.99689720156800
C           50.23876455970002       41.00736566877225       27.76999185210825
C           49.41371069741547       39.17261879976002       29.19211935862358
C           49.63567013935214       37.95714378599659       29.93942198997512
C           48.44679607191325       37.66823088490887       30.56778276392536
C           47.52638088025805       38.72123749634859       30.17085522418591
C           45.27796633246659       39.70703593380630       30.05609145878716
C           43.84865555346472       39.60510420084641       30.23540321966608
C           43.32272755153775       40.78770981736803       29.80654182228841
C           44.44210000087255       41.58652247280293       29.34993502777163
C           44.34412669815730       42.88017498444314       28.86757731971636
H           43.36383215735204       43.33400191270135       28.86075569550143
C           48.71825511739446       44.15758008663543       27.32238322663527
H           49.15632790801737       45.06276166088020       26.92415404613453
C           50.36129473012507       39.76597636538424       28.37106020911607
H           51.28996194951633       39.23171906730117       28.22813160209354
C           46.17045728567319       38.72178304016814       30.44792404680600
H           45.76851841558525       37.87501651705437       30.98494745332223
C           46.97747677398107       46.71202000000208       27.03286721972220
H           47.48859901166358       47.28774247151890       27.80519794178231
H           46.11251250319742       47.28102485513477       26.70339370159487
H           47.65555072263859       46.60635736964808       26.19014081587478
C           44.09905838483047       45.89507487540095       28.01900948128053
H           43.34863829017404       45.50796581538632       28.69989334519207
H           43.64963601682086       45.98136152831943       27.02922996478863
H           44.37162713230122       46.89647270849956       28.34709411400352
C           51.50429064132393       44.00679609903326       25.97627873159687
H           52.09246786580795       44.65893884904524       26.62224021220831
H           50.77646100725713       44.62114017523977       25.45252240353300
H           52.17269831478236       43.56964479340353       25.23877785815994
C           52.53653657585504       41.09963172578917       26.56742794037100
H           53.36816121227352       41.79588401936908       26.53214735631033
C           52.73380313812840       39.84085760689246       26.18511097131082
H           51.92328497230487       39.13289355641255       26.13448536307807
H           53.69938364281913       39.47799328307998       25.87829877695617
C           50.94803373545044       37.26867755549522       30.06234060919320
H           51.76334400855129       37.97925420163786       29.95133757038296
H           51.06501738370351       36.50016450219310       29.29787447433642
H           51.03434406335875       36.79306390180837       31.03647290776427
C           48.11933450973370       36.59877397612413       31.47184868373402
H           47.32146810994843       36.81251194327142       32.17313885330732
C           48.69672091744425       35.40015525034982       31.51037149205848
H           49.45958305440904       35.11125328002439       30.81087214528673
H           48.40186842606660       34.65084868393279       32.22449701163863
C           43.14102736722067       38.40344680657679       30.75569435311828
H           43.32516135758878       38.27592991284582       31.82198964659688
H           43.48744024603800       37.50556806227203       30.24716124928567
H           42.06991700329471       38.48916546783690       30.59972712701973
C           41.88615379966449       41.17849697868726       29.79774666063881
H           41.35508972377668       40.67237536992664       30.60081914591298
H           41.41180164724691       40.90355908197603       28.85508476946679
H           41.76548362069068       42.24876541615781       29.93449477620761
O           48.10382963058277       42.49935512215836       30.82738716744156
H           47.91101113696516       43.45497281525732       30.89854493615700
H           48.82379256263995       42.27937068526279       31.44879075482153
C           44.81162976642010       38.40957954364610       24.57168246373699
H           45.38973517069799       37.66705659796352       24.02419984973946
H           44.22273421047439       38.97573685143494       23.85129406364213
H           44.13312911098869       37.89503143831668       25.24195322556066
N           46.66742341352493       40.07511858276469       24.74476179263046
H           46.86611722686433       40.09573608411808       23.75690788259568
C           45.70247721640202       39.31163766949823       25.34700133139518
C           47.28839053032049       40.78752892729914       25.71347032931831
H           48.08912986549501       41.46921882220020       25.52052650793632
N           46.78469290298077       40.52564587242737       26.89402270193103
C           45.79643014683101       39.60588778156889       26.67893874659059
H           45.21865944851241       39.21442118924471       27.48918762419175
78
 energy: -116.047872450026 gnorm: 0.019122310452 xtb: 6.7.1 (edcfbbe)
Fe          47.40350738960369       41.40041374662168       28.78447949872454
N           46.68429421810668       43.18920688131323       28.26038630500074
N           49.17630896455886       41.85356979961487       27.96047371540202
N           48.15559466959476       39.66116753243514       29.41301274293315
N           45.61202421029017       40.90400022285721       29.51079813807093
C           45.40992052391881       43.63914823824562       28.41045840247519
C           45.30944667399135       45.01779641669254       27.98858400264620
C           46.55287973763948       45.38126613972193       27.56432164558094
C           47.39475414563912       44.21984148790436       27.72660362300466
C           49.51449797622504       43.02794255040299       27.36330511756833
C           50.81986902628577       42.93797786214952       26.76951143981077
C           51.26348616935077       41.65917183700768       27.00033610897579
C           50.22921332538977       41.01442310530617       27.78278621064440
C           49.42011170358874       39.19872019063270       29.22078090360580
C           49.63616584089893       37.97216771691769       29.94462868078461
C           48.44615764395648       37.67856986066570       30.56394553113695
C           47.52861107398430       38.73914504044114       30.18683118391777
C           45.28159209420871       39.71129628733160       30.06881499745487
C           43.85133478452678       39.61101171385661       30.24481222364892
C           43.32781844898394       40.79113738604511       29.81141936226071
C           44.44800141752593       41.58781836541375       29.35749440706214
C           44.34937045512125       42.87928186525017       28.87358349616931
H           43.36828571501106       43.32979909350279       28.85472664319803
C           48.71352422043704       44.15882026086000       27.31654042811887
H           49.14331627947532       45.05532588413064       26.88987568199540
C           50.37021830189351       39.78711696878002       28.40420652041581
H           51.30772719093165       39.26516879350172       28.27691392259701
C           46.17215695399653       38.72645303319401       30.45736545091994
H           45.76701193602162       37.87016326290602       30.97716395109966
C           46.98057438532274       46.70646666288445       27.03357329910940
H           47.49938364131421       47.28255240491061       27.80281656849289
H           46.11562801051400       47.27822375545345       26.70457446696253
H           47.65646826176049       46.59278185841049       26.18766193069045
C           44.09306917608244       45.88027457457517       28.02171166499894
H           43.34388193965616       45.48821594988996       28.70420825879170
H           43.64409908694113       45.95619206748541       27.02930073791167
H           44.35706556225352       46.88673216496415       28.34608933696719
C           51.50386133935324       44.00693089304737       25.98718994341282
H           52.08482512323738       44.65988184610001       26.64164301397779
H           50.77986210632503       44.62195416836531       25.45528393330993
H           52.18156175560076       43.56860956518074       25.25677513751608
C           52.52078909352047       41.09523210553422       26.56838378543281
H           53.34850202329520       41.79662646596910       26.54910535781566
C           52.72745739475990       39.84166046818144       26.17431852153567
H           51.92903034981030       39.11954515505558       26.12404534302342
H           53.70322614575120       39.49428383865809       25.87757648805934
C           50.94239686142826       37.26927310133010       30.06369085756140
H           51.76603231979232       37.97421920426804       29.96148999686892
H           51.05592452062145       36.50365126450556       29.29415611721678
H           51.01714233034014       36.78493002128506       31.03660788247287
C           48.11702661529690       36.60013957859578       31.46013348054775
H           47.32117569981061       36.82070799704260       32.16195096995587
C           48.69372841762434       35.40142727402990       31.50168892739401
H           49.45719496186955       35.10358665986890       30.80439280712640
H           48.40322285873674       34.66234980372064       32.22927495591802
C           43.14084691906642       38.40795182669135       30.76337559107818
H           43.32385638428003       38.27511029694477       31.83078302697122
H           43.48780289297152       37.51103529367339       30.24999534334527
H           42.06824921961082       38.49568664727612       30.60655691793497
C           41.89109890901651       41.18828151603451       29.78889294155015
H           41.34879395256307       40.68186095686189       30.58611353727222
H           41.42736269628070       40.91758367817254       28.83783416993271
H           41.77474168374153       42.26073126267226       29.92629402524451
O           48.10902641049763       42.44058629682034       30.68085333663810
H           47.86179597903850       43.35082580713686       30.78476067138761
H           48.77098543997332       42.22726112039168       31.34115969021459
C           44.82430743992945       38.41390824568663       24.58208086962194