87
 energy: -124.720517546940 gnorm: 0.000027459337 xtb: 6.7.1 (edcfbbe)
Fe           1.25515708112323      -11.95994913850468      -15.43733127715245
N            2.44594866856264      -13.52058023884829      -15.07134051674872
N            0.21591794508410      -12.36511700927672      -13.77352421180446
N            0.05416767121232      -10.39059429570985      -15.79850228011626
N            2.34243546915777      -11.50187106910168      -17.05796070579971
C            3.50187844461589      -13.93215956672704      -15.81944939971311
C            4.08723905798530      -15.13272616964506      -15.26151686839046
C            3.35864482856845      -15.43246746125060      -14.15455105105491
C            2.33955443429991      -14.41019338935580      -14.05194139417399
C            0.43864454383192      -13.37973219187175      -12.89748527335531
C           -0.50057378413128      -13.32284484762875      -11.79923905312407
C           -1.29750611397690      -12.24610912502227      -12.03484384400512
C           -0.83312700769766      -11.66158293518877      -13.27305616866569
C           -0.98948607455017       -9.96809968749514      -15.04109549606794
C           -1.62558056050155       -8.81286819018153      -15.64335872068783
C           -0.90495283791393       -8.53190365259773      -16.77417134980477
C            0.14129577832406       -9.51924942212636      -16.84180812175548
C            2.14489922017552      -10.46084225327350      -17.90717526552289
C            3.14959057275688      -10.45516563397073      -18.95294720514634
C            3.96783884699693      -11.52259665160684      -18.69314643998919
C            3.44265990663537      -12.15773311859711      -17.51181282017634
C            3.98151279327622      -13.30131559573697      -16.94824722128138
H            4.84046384606895      -13.73800065122504      -17.43419101740619
C            1.41387006862383      -14.35133926791952      -13.02742254046656
H            1.45755150851751      -15.11824441696247      -12.26905036518556
C           -1.41172001193310      -10.55345693717351      -13.86156385359202
H           -2.25979467832756      -10.11295625241806      -13.36028632131222
C            1.11005605560561       -9.54862567512603      -17.83101658483333
H            1.05271811064037       -8.79572990731728      -18.60224217982152
C            5.25891868113303      -15.84598840520649      -15.84364237728965
H            6.13058617188166      -15.19152240206852      -15.87446985152478
H            5.04200297217443      -16.16833036090746      -16.86206541964281
H            5.51072010113493      -16.72346404746727      -15.25303456876153
C            3.51473281945452      -16.56321901650827      -13.19616940550119
H            2.60552525805266      -17.16358433303035      -13.16310211149305
H            3.71117547061843      -16.19192022756992      -12.18964947607838
H            4.33991534171240      -17.20747866518592      -13.48938942567552
C            5.20229391938731      -11.93930345357858      -19.41347728887121
H            4.99513353689830      -12.76570384363637      -20.09556583952772
H            5.96606068894921      -12.26688451138330      -18.70976891411403
H            5.59585307860941      -11.10643882953879      -19.99280454239082
C            3.23202240098967       -9.47404196699224      -20.01190010271483
H            2.90638051832326       -8.47347576330120      -19.75071171535375
C            3.65798920759181       -9.70821757995662      -21.24898365463898
H            3.94789002806144      -10.69055255036812      -21.57870772603077
H            3.70625335089001       -8.92395047414876      -21.98617055622719
C           -1.08127573857078       -7.40067510813955      -17.72611615674665
H           -1.60154928143138       -7.72667866060436      -18.62861002290160
H           -0.11657011840842       -6.99233005543208      -18.02421907625368
H           -1.66457069672806       -6.60901514736521      -17.26029241832348
C           -2.77194271239490       -8.12258192496124      -15.09533251267919
H           -2.83359152798807       -8.10212862914004      -14.01329783290172
C           -3.73133991389005       -7.53808358003311      -15.80552599295766
H           -3.74774715466031       -7.56813092520640      -16.88112535981375
H           -4.55304907886141       -7.02832341213053      -15.33033094771910
C           -2.43697561753737      -11.72041705916585      -11.23141046783929
H           -3.35667091381569      -11.73324367655352      -11.81702989802533
H           -2.24725127240234      -10.69189238997250      -10.92329922055934
H           -2.59175345346207      -12.32222896776694      -10.33917563536500
C           -0.53390980449812      -14.29535876149307      -10.67026614952622
H           -1.32026292802935      -14.04083380558910       -9.96393915459805
H            0.41743370159091      -14.30029838989545      -10.13738939077831
H           -0.71872503490977      -15.30453614291173      -11.03960740485089
C            4.37804341638393       -7.77338970685511      -13.47072484533483
H            5.45479366009788       -7.92808323920778      -13.40189982226771
H            4.04653985014966       -7.27406121407693      -12.56029039349927
H            4.17312748392919       -7.12547238507357      -14.31715351048226
N            3.74589320361276      -10.08279605419094      -12.73581683915154
H            4.26991352927086      -10.06280732588951      -11.87637493863398
C            3.66995315929233       -9.06586740962780      -13.65134560310695
C            2.99373638872760      -11.10678158057358      -13.19739241787207
H            2.86774557181510      -12.03844147539727      -12.68582985104880
N            2.44674306186163      -10.80026275107041      -14.34804921343026
C            2.85772586206565       -9.53446459783976      -14.64377079890729
H            2.54486369350069       -9.04790523260820      -15.54387164115895
C           -2.14243699843942      -14.45019348144930      -15.17364511110896
H           -3.16807657220012      -14.37533082325760      -14.81770650483458
H           -1.47235433751226      -14.37306584585178      -14.32265539253101
H           -2.00030390459993      -15.42350865794578      -15.63727739435720
C           -1.85661077459711      -13.34396060259280      -16.17048225531711
H           -2.00460243731735      -12.36196182766470      -15.72435131079629
H           -2.48694362666029      -13.44840089238246      -17.05362558599125
S           -0.11356209533072      -13.44641768696343      -16.74982239698658
C           -0.34433130059680      -12.65583337287827      -18.37177927257254
H           -0.73907734239240      -11.65345908495585      -18.24017564938267
H           -1.01608705645977      -13.26529074974893      -18.97066807701511
H            0.63130178251334      -12.60635618280823      -18.84243300935998
