78
 energy: -116.056934294788 gnorm: 0.000035179995 xtb: 6.7.1 (edcfbbe)
Fe         -13.33702756341257      -17.53016992784126      -70.89779592037952
N          -15.03518635745065      -18.11785480559135      -69.99105352982590
N          -14.23366724535323      -15.85576406641364      -71.50029811080252
N          -11.66061121837496      -16.99413990378418      -71.83574281075123
N          -12.46473897604736      -19.25762424049244      -70.33786055627473
C          -15.24764029340610      -19.27655105578221      -69.30880365000648
C          -16.58456308360547      -19.30877814993343      -68.76049350119474
C          -17.17140042494930      -18.13358729847919      -69.11527747384415
C          -16.18848979952810      -17.40314540303656      -69.88285970048203
C          -15.49927885639404      -15.45654776801616      -71.20662402772636
C          -15.78824637937419      -14.18360160339803      -71.81642124959158
C          -14.66896505765298      -13.82772517995341      -72.51727111197113
C          -13.70011867639820      -14.88203641354900      -72.28079183991099
C          -11.44762036871636      -15.82771425382670      -72.50120337436691
C          -10.09796130783064      -15.76231743106613      -72.99906975333982
C           -9.50019480718618      -16.94266534003225      -72.65046031649278
C          -10.49451706370093      -17.68562375475356      -71.89932025681355
C          -11.16884731953341      -19.61705270079988      -70.54652076590531
C          -10.88751425459404      -20.89266102063793      -69.92906583064890
C          -12.04704957132671      -21.29958290882479      -69.34390022551996
C          -13.01702209611076      -20.25977126697265      -69.59955296070011
C          -14.31855621442636      -20.28635960111826      -69.13137319564811
H          -14.62474270698055      -21.14996273555515      -68.56090878206818
C          -16.41213778735082      -16.16080947448154      -70.44105829848414
H          -17.37825926803314      -15.70813534592209      -70.27801274875364
C          -12.38918518100541      -14.83600667331829      -72.71204445416046
H          -12.07397414139516      -13.95614472743363      -73.25119360705297
C          -10.24261459605804      -18.88983332981345      -71.26901341822604
H           -9.24178754531036      -19.28586070108375      -71.33780023368823
C          -18.54343897124776      -17.63529859509993      -68.81562725080721
H          -18.49752994010518      -16.69551037386334      -68.26499484659125
H          -19.09583959114179      -18.35608151823270      -68.21765620972181
H          -19.09687630240958      -17.45887092562715      -69.73824531505460
C          -17.14142918777812      -20.44159517826066      -67.96751164697366
H          -16.55894917032466      -20.59892579502806      -67.05903262736952
H          -17.11743682532145      -21.36480192594736      -68.54705325246057
H          -18.17175001495794      -20.24393633905807      -67.68242080899860
C          -17.08985457744204      -13.46513871027875      -71.72294055107662
H          -17.36437436723658      -13.30022626703038      -70.68064006231043
H          -17.88368464093582      -14.04697312536489      -72.19259363669853
H          -17.03229903951726      -12.50266683579729      -72.22507436430338
C          -14.49399025260312      -12.64657618091789      -73.33749791600791
H          -14.95532586330143      -11.74276386460311      -72.95305039983715
C          -13.86808863071134      -12.60382642080991      -74.50812869349059
H          -13.44362974649722      -13.48405957571359      -74.95996948667697
H          -13.78346050507288      -11.68784102630728      -75.06938652437540
C           -9.53368110317868      -14.63664726811477      -73.79456640044771
H           -9.65838685810750      -13.69103406021951      -73.26651165218949
H          -10.04272122916371      -14.55418854294900      -74.75541124138708
H           -8.47486195380155      -14.79462356641009      -73.98412369320518
C           -8.15258083036424      -17.36254371389889      -72.97618467153723
H           -7.40356920543480      -16.57814797762051      -72.94319892892558
C           -7.78705608402084      -18.58551577010898      -73.34311205375592
H           -8.49817806495265      -19.38726007963155      -73.44755010918222
H           -6.76234618104685      -18.82111198046758      -73.57880593432589
C           -9.56363174873928      -21.57471484639851      -69.97719834940041
H           -8.79072319085272      -20.94054936974386      -69.54290473826211
H           -9.28076768250830      -21.79068556683537      -71.00775652999141
H           -9.58950478725461      -22.51159090541633      -69.42593346233048
C          -12.33171029841413      -22.54550263447804      -68.57647594894502
H          -11.45166987876588      -23.18237917532101      -68.53407026412454
H          -13.13983928273813      -23.10858022569223      -69.04411095757271
H          -12.63297507242365      -22.30907415711962      -67.55533487819733
O          -14.06978081553092      -18.67926855269361      -72.74281122700623
H          -14.91373344580899      -18.99587160287401      -72.40256974892350
H          -13.45778129752513      -19.42284828870454      -72.71739170587094
C          -11.29474831742121      -13.99579666011100      -67.10056536649464
H          -10.36267817479846      -14.26685000577734      -66.60476578141211
H          -11.97688328131134      -13.59743999878218      -66.34959614055474
H          -11.08763690470316      -13.21904162389058      -67.82987032234384
N          -12.26680973511528      -16.30369781219046      -67.10829269754976
H          -12.18248966760489      -16.45251740111064      -66.11618939913753
C          -11.89030764460553      -15.17215485940320      -67.78333059851431
C          -12.76587510233233      -17.17422367448041      -68.01447561553083
H          -13.13898971119071      -18.14704025887513      -67.76979395334875
N          -12.72818441728065      -16.66324693831085      -69.22097041916736
C          -12.18621290181889      -15.41784989946184      -69.09351375316892
H          -12.04680934304880      -14.78688284303954      -69.94699815981673
