87
 energy: -124.720522735781 gnorm: 0.000066928860 xtb: 6.7.1 (edcfbbe)
Fe          25.00840728737798       22.08044019813597       -5.57793936424008
N           25.27038002406187       20.40230706622780       -6.62801790780652
N           26.95973671166096       22.09859516173420       -5.12451442523157
N           24.75288608379167       23.76894478152853       -4.52008938112124
N           23.07251737317145       22.11137315910930       -6.09728330272412
C           24.31951332333411       19.70999009415958       -7.30668081320422
C           24.88194355742306       18.51530066513015       -7.89976354038333
C           26.19870061188545       18.50767470006622       -7.56485002411322
C           26.42141213144761       19.69782559611345       -6.77238762935444
C           27.89807831903924       21.19632670828615       -5.51449093980105
C           29.20391655994628       21.56857376622527       -5.01679681003608
C           29.02968574605280       22.71977591620743       -4.31374962214262
C           27.62076391143473       23.03423188936047       -4.39412110105716
C           25.70419392701361       24.46494960372897       -3.84795443224971
C           25.12524729286681       25.61880425199422       -3.18802013904830
C           23.79527741341485       25.61377874249586       -3.51696290688789
C           23.59104184751182       24.46060810243864       -4.35516492008616
C           22.14883736515278       23.04515419557049       -5.75263150679271
C           20.85932971832012       22.72980125569168       -6.33646354646546
C           21.04443601800968       21.57904114302870       -7.05617830927444
C           22.42793685970319       21.21464508407668       -6.88906963382305
C           22.99868575602731       20.08246925257057       -7.44418785763365
H           22.35876240067366       19.43718728723069       -8.02619084377247
C           27.65525007159851       20.06222383219716       -6.26751766326886
H           28.49305238762771       19.41499067993231       -6.47822030339238
C           27.04422268067198       24.13037257415500       -3.78146477501928
H           27.69278632327065       24.77480127260841       -3.20818128598152
C           22.37294751292860       24.12746775272750       -4.92359806714213
H           21.53193714048432       24.76639183727931       -4.70134080849925
C           24.10627156881777       17.53176429486214       -8.70686728150501
H           23.67864044690958       18.01044842356545       -9.58840032504114
H           23.28884106262940       17.11529757193048       -8.11826753786898
H           24.74234186483148       16.71386276187939       -9.03646475317341
C           27.25590735663812       17.51312684477130       -7.90347038096580
H           27.68959821828634       17.09334777710498       -6.99576480803378
H           28.05766493803583       17.98152490716259       -8.47559003634370
H           26.84531446534402       16.69863182397897       -8.49506454499190
C           20.06452200039758       20.85505206427581       -7.91173744730445
H           19.64767971759328       19.99529862326856       -7.38433613333987
H           20.54159415945103       20.49326840969281       -8.82130962935510
H           19.24695801653956       21.51850510647670       -8.18673789256138
C           19.66427395627150       23.52786051433824       -6.17605734882891
H           19.82283832789634       24.59640024674745       -6.08389924868842
C           18.42254462388238       23.05635671706031       -6.12652353705155
H           18.20794015790160       22.00268144688877       -6.16438006713661
H           17.57465592890076       23.71241500876990       -6.01918048208585
C           22.75221422800622       26.61717798366922       -3.16741645671574
H           22.13451160228641       26.26640208794999       -2.33864452203212
H           22.09746848475621       26.80623151485388       -4.01699824134448
H           23.22027194278841       27.55468939464883       -2.87422045804826
C           25.86360925066283       26.56523045386793       -2.38181358912720
H           26.88820486554803       26.74266620691632       -2.68796546291870
C           25.39031595797846       27.20567642686609       -1.31769483633535
H           24.39770355374167       27.03362490275073       -0.93929922076167
H           25.99406889213692       27.90968963684972       -0.76931447189978
C           30.03470213947306       23.54061792086602       -3.58132112240331
H           29.78073506294155       23.60238947984763       -2.52271842484554
H           30.06664044517846       24.55472571886747       -3.98053814552221
H           31.02761664531965       23.10640558578726       -3.66956168729406
C           30.45003763452970       20.78760036724157       -5.25916025783942
H           30.35785415757368       19.78191677460794       -4.84791826529085
H           31.30544989879053       21.27012945149547       -4.79283944216088
H           30.64717171523073       20.69808876199347       -6.32788344165907
C           25.05709194483064       25.88611699767723       -9.65995390554213
H           24.81060064573390       25.55502379912404      -10.66875479818150
H           25.91280162835089       26.55849298688848       -9.72141197323797
H           24.21149164432207       26.43512284348816       -9.25772786039149
N           26.37971281360068       23.85007464278981       -9.04462313953545
H           27.00936059766616       23.89720465490622       -9.82881235916172
C           25.35907203002694       24.72648727898797       -8.78326423186358
C           26.38296836612055       22.92043702432613       -8.06322139544897
H           27.07563506755660       22.10630596023071       -8.00878124969191
N           25.42763046418176       23.15475164275125       -7.19743089976308
C           24.78219562831701       24.27451205872486       -7.63126793475125
H           23.95170568965176       24.67819168010858       -7.09080137509662
C           26.79925507675339       20.19779890835476       -2.25764619057172
H           27.46390882647602       20.46918987620039       -1.43984174505320
H           27.34810748610357       20.27250866827442       -3.19171685774287
H           26.48126798828751       19.16623858076177       -2.12615892886576
C           25.59724077456687       21.12184716425437       -2.27889339208943
H           25.89917179897411       22.16097050293024       -2.39901904884876
H           25.00844645519320       21.00995089158932       -1.36837966040528
S           24.48924438831985       20.68826161590750       -3.68188135417939
C           22.93626258616297       21.31772527257107       -2.97417810794938
H           23.03389617988681       22.37602822857678       -2.75431704727947
H           22.70112180050090       20.75205670998871       -2.07635616638479
H           22.16376047534030       21.16855022875469       -3.72036901695271
