78
 energy: -116.058073293252 gnorm: 0.000123815805 xtb: 6.7.1 (edcfbbe)
Fe          28.16677674650534       93.92294375907930       53.03637948415319
N           29.09955153393247       95.61000837246435       52.45431565683354
N           29.24047279203722       93.90910257345841       54.71703474439276
N           27.18883663176162       92.28846626446814       53.62356597169531
N           27.05156251873654       93.98600453134506       51.36110007348713
C           28.92201661210766       96.28766838427887       51.28784881411492
C           29.81191166215074       97.42418505421124       51.21677498521898
C           30.53805067741370       97.41483074231813       52.36751355184934
C           30.08250754370331       96.27183299466563       53.12552994865895
C           30.18813596489992       94.80955524741330       55.09529595058542
C           30.76130177880101       94.44936193577907       56.36756608357274
C           30.14137152186144       93.29093641348460       56.75295948808216
C           29.18553871076717       92.98216837253099       55.70560282911821
C           27.41160070419313       91.57557001940604       54.75962861377918
C           26.52707177028506       90.43958020990411       54.83573590706095
C           25.75366086638947       90.47880990657637       53.70685248792990
C           26.18765519860085       91.64965865746053       52.96762854453534
C           26.08679192149622       93.10081228851666       50.99138855957673
C           25.54467754661590       93.44636573672425       49.69692415006940
C           26.21140501929536       94.55986033732437       49.28853256141746
C           27.15103052938764       94.87951567859581       50.33933268267133
C           28.01669066184021       95.95603849207735       50.29670726857248
H           27.98827479995080       96.58315550617391       49.41901091323412
C           30.58790089348116       95.91286920127071       54.35973741111704
H           31.36643944903137       96.53437783899672       54.77539645607003
C           28.35240622654779       91.88168265615995       55.72562676509713
H           28.43522633794947       91.20989067687952       56.56623078429001
C           25.67125697639565       92.01371906091777       51.73734526072064
H           24.89422817026806       91.39363101630269       51.31704546134051
C           31.59876997851486       98.35758229521610       52.82323152403706
H           31.31314748989668       98.83057074884351       53.76317603194599
H           31.76596851836100       99.13799519132071       52.08499120835095
H           32.53962885302290       97.83029594134001       52.98364459854661
C           29.86663840066534       98.37916307420096       50.07391513373820
H           28.90114485803950       98.86597552607667       49.93345234459162
H           30.11862499015087       97.85734833211860       49.15042076234494
H           30.61502240139394       99.14845364937543       50.24771678370777
C           31.77162489749114       95.25161876181470       57.11154999289878
H           31.57906374965985       96.31706821551464       56.99509435067956
H           32.78004688447785       95.04849828816459       56.74620845771523
H           31.73518209476949       95.00553684351998       58.17076442337342
C           30.32714260917629       92.51303142242395       57.95754016974228
H           29.43918888681497       92.02337887390610       58.33973707893436
C           31.47697557162274       92.35573323472947       58.60559972823416
H           32.39965474977090       92.77876150208360       58.24821875220855
H           31.53901990890835       91.77182203308637       59.50895699394813
C           26.45122332793461       89.48692824367056       55.97710498244073
H           26.57191761104781       90.01134194699880       56.92368785232412
H           27.23576636939661       88.73156606207782       55.90692587643877
H           25.48701291196172       88.98275108089084       55.97930014608855
C           24.68973528309758       89.59090129318277       53.29311098829173
H           23.87483670522639       90.05722935440778       52.75121653379987
C           24.64628130862096       88.28163068045237       53.51797174123769
H           25.44806530583858       87.75805841698549       54.00876789048318
H           23.81230132173071       87.68145179850244       53.19355445106284
C           24.46531759493048       92.68454826614918       49.00746108791529
H           23.55866935843468       92.67067286232185       49.61300555237586
H           24.77288873822191       91.65250668178324       48.83729037108072
H           24.22764045337745       93.13378065892620       48.04633479095536
C           26.05814920786576       95.34397669250865       48.03047500531628
H           25.29000885271132       94.90981517365978       47.39528274817246
H           26.99513000844395       95.36079160249029       47.47334047130661
H           25.77819572304723       96.37448867692353       48.25121242729840
O           26.57758146069006       95.28868660881541       53.97070866034412
H           25.88797354848388       95.22532990184334       53.30084620520572
H           27.01086697604427       96.14102504074668       53.85203563442744
C           30.84341311329234       90.10617872803753       49.98058529086727
H           31.47619372982265       89.38697238294516       50.50045099784938
H           31.37256348829094       90.44426552587375       49.08966887212146
H           29.92918501351836       89.60755333754022       49.67448896336693
N           31.47133071812513       92.06789550537002       51.40503318918127
H           32.46470914571453       91.97927242443460       51.26742299929348
C           30.51207179275151       91.25222656345522       50.86448188551578
C           30.84133868798672       93.00167805848288       52.15284115807923
H           31.34368788030723       93.77558851630653       52.69570393902908
N           29.54251238743194       92.82698361355136       52.11831863270808
C           29.32223094696549       91.74258965140325       51.32076946189204
H           28.33000441955031       91.38987878673424       51.12977144928052
