78
 energy: -116.058227228157 gnorm: 0.000150433352 xtb: 6.7.1 (edcfbbe)
Fe           1.59807718611616        5.85186605507311       13.88579744010075
N            2.56473203016368        7.56608809419533       14.19043562675917
N            2.11988980926140        5.90198771883173       11.93979636275285
N            0.68917820175422        4.07827474597021       13.58471454128981
N            1.10922204487944        5.77219611634372       15.81414754359592
C            2.70832318559336        8.22259043406856       15.36920633677461
C            3.48164111131966        9.43368229039917       15.19236534594059
C            3.79587468720580        9.49496106279950       13.87200503321819
C            3.21212169299942        8.31865256119137       13.26160456480422
C            2.79122111410119        6.90140635364157       11.30275044215038
C            2.92597382068365        6.61487426977282        9.89937994569889
C            2.31830616167969        5.40352308015354        9.69144224821869
C            1.81061582097874        4.98548999263158       10.98275676030589
C            0.60275530562591        3.38867142977168       12.41061785727625
C           -0.15019328321694        2.17489287495194       12.58422955714951
C           -0.54166519547330        2.14933985338914       13.89818243583922
C            0.00323609228211        3.34804427054309       14.50191567300205
C            0.36029944265818        4.82101420005290       16.43019662546226
C            0.19466535087409        5.12924744533548       17.83522848036917
C            0.86812899737578        6.28931385320146       18.05187224979853
C            1.42966017682528        6.67615596947551       16.77496915238405
C            2.18223920017263        7.81872173445609       16.58194048426173
H            2.37046802913710        8.44420938281996       17.44126888340272
C            3.31188907816644        8.02818130756366       11.91654145194167
H            3.84806850796735        8.72906603154759       11.29531024797799
C            1.13041075066496        3.80175922212643       11.19830892886971
H            0.97608730281375        3.15592079634335       10.34753751380625
C           -0.16927536647265        3.69629651042340       15.82880384689623
H           -0.75710237437776        3.03450074368343       16.44596656683404
C            4.57770227221704       10.52606690521570       13.13276245940887
H            4.91756666520877       11.30958460843518       13.80551054033868
H            3.96802071148392       10.98404385250818       12.35332460681618
H            5.45141407141766       10.07797362963900       12.65916997915216
C            3.82741221218959       10.37805086812086       16.29209439260593
H            4.39663041731265        9.86720094647084       17.06872725393051
H            2.92429065445914       10.78549508548044       16.74750412019898
H            4.42489939904370       11.20576401274559       15.91798329330130
C            3.54937942174088        7.52092717025914        8.89587280089923
H            4.63512400903664        7.41063819438986        8.89205510009553
H            3.31740605971027        8.56085620829551        9.12053277408365
H            3.17765679311739        7.28763477705918        7.90010847483034
C            2.15542516869001        4.66071690934425        8.46154225809581
H            1.24156244407877        4.08301456885991        8.37998085561018
C            3.02570935035767        4.62933384782945        7.45733716783559
H            3.97029898823819        5.14260041709663        7.50096923542548
H            2.83155840011590        4.06285551271603        6.56165109354053
C           -0.37197912779626        1.14467021140221       11.53194357777634
H            0.50847249597555        1.04335678146682       10.89887336484398
H           -1.21699509482541        1.41124228518476       10.89448758731740
H           -0.58179204883439        0.18143282141350       11.99263005167829
C           -1.30747193088115        1.14643016257461       14.60403419359885
H           -1.05054828269864        1.01153451351765       15.64824114050950
C           -2.28092738175316        0.40751166195459       14.08149283071870
H           -2.61241635683656        0.53010796078156       13.06522727811078
H           -2.80150517670203       -0.33251605336494       14.66643155276319
C           -0.57113821729188        4.28658794866373       18.79659352397131
H           -0.12776126514390        3.29337705282773       18.87267211727039
H           -1.60412855570728        4.17145784587936       18.46757032042752
H           -0.57486767580283        4.73548847955694       19.78681737655507
C            1.04012633723674        7.06187999831092       19.31457487870679
H            0.53130431263726        6.57126692054264       20.14066557928742
H            0.63227014439910        8.06759201001693       19.20895470241530
H            2.09691301810181        7.15043955469219       19.56675758276968
O            3.51781605477816        4.64484591506333       14.23448022730179
H            3.94156003438096        4.75998115741552       13.37700742295585
H            3.15105723257542        3.75408971090433       14.25135310242148
C           -2.74268505151616        9.35028910464170       13.86750141988005
H           -3.72758799815747        8.94058474654109       14.09129002373205
H           -2.84256843139451       10.03866966962957       13.02837828190761
H           -2.39167723586472        9.90432046682393       14.73234942055626
N           -1.96299953553102        7.40449228313834       12.49779291540583
H           -2.73901816968544        7.41459637127915       11.85650257624512
C           -1.78056603370155        8.26536641057246       13.54811961035775
C           -0.91824204527099        6.54666814933520       12.48494595025290
H           -0.79651943329079        5.76077982651048       11.76860909381765
N           -0.08591163996063        6.81190530655020       13.46223377083421
C           -0.60868005662450        7.87859236085829       14.13268441995394
H           -0.10943880499326        8.29227245006279       14.98436555265400
