78
 energy: -116.058078459140 gnorm: 0.000076136323 xtb: 6.7.1 (edcfbbe)
Fe          12.26190635815300      -71.34093479451518      105.07865180917534
N           12.86922026482002      -73.07550814991956      104.25660617484267
N           10.56767452203984      -71.43432775972235      103.98856928001523
N           11.62407920281012      -69.65562140713426      105.93123810588737
N           13.91368250024051      -71.29513460804209      106.18981375565249
C           14.04583776408682      -73.71779141906218      104.48403285451509
C           14.14334691972378      -74.90927460624449      103.67223364802139
C           12.99614638954920      -74.97175961842686      102.94318613621947
C           12.21477210692178      -73.81473166439453      103.31713741098746
C           10.22104253503509      -72.39606242238526      103.08591177157801
C            8.95993194137133      -72.08646916985509      102.46642269347697
C            8.54838001947503      -70.89450846359837      103.00471278269389
C            9.56880585199028      -70.51291985166837      103.95990013779893
C           10.47554874833438      -68.98136052114739      105.65202904220517
C           10.37242484577684      -67.78807515273300      106.45475051232523
C           11.49743044129128      -67.75170284016937      107.23376670406134
C           12.26036224378645      -68.93644268012821      106.88784233968907
C           14.24940806153232      -70.35273351310516      107.10750977526845
C           15.53611427680085      -70.64928298081686      107.70124058959168
C           15.96996128686348      -71.79555626747779      107.11473346608028
C           14.94147142430501      -72.18306608561413      106.17230340942659
C           15.01876650745741      -73.31002645998868      105.37735519680695
H           15.90385281627312      -73.92162832338009      105.46202103259994
C           10.98021415308425      -73.51310162340609      102.77536439068774
H           10.58765035500814      -74.18995280131114      102.03191602946168
C            9.52367785178205      -69.36307735750405      104.72389047931958
H            8.67796770911197      -68.70746258114086      104.58435171983704
C           13.48880543180639      -69.24858212511522      107.43998979827127
H           13.88843897812399      -68.57653472217955      108.18411887992525
C           12.56456129270593      -75.99212225881948      101.94586415484349
H           11.62921620056823      -76.45993801568044      102.25456560934697
H           13.31633117278661      -76.77017625674605      101.83934455437360
H           12.40570405418460      -75.53344811431056      100.96934911811155
C           15.30439598377315      -75.84324215413089      103.68678504621735
H           15.44599217139570      -76.26298360917968      104.68299314258735
H           16.21949744423607      -75.32045202146742      103.40798188982042
H           15.15161984955779      -76.66279986525497      102.98879293537667
C            8.24601480739169      -72.95716520996764      101.49162061023846
H            8.37856733285031      -74.00846003630301      101.74333181832196
H            8.62332085518918      -72.80284936468162      100.47908462294504
H            7.18201368849430      -72.72932226516335      101.49862095575219
C            7.34086503162756      -70.14344016228463      102.74337887572302
H            6.93810814667002      -69.59635570565597      103.58787073032819
C            6.71346455747511      -70.07173138784157      101.57380392024402
H            7.09141815511197      -70.55361225388464      100.68905611084577
H            5.80708854579776      -69.50143528762371      101.45545816053242
C            9.21328591010850      -66.85368726813616      106.45772661297919
H            8.27632080255123      -67.40179772312638      106.37023305986054
H            9.27437167874982      -66.15414822951796      105.62227095985713
H            9.19676191164253      -66.28299960879475      107.38394360199162
C           11.88820810896194      -66.78259776570923      108.23365189242054
H           12.43179059253377      -67.18028937845769      109.08282066509246
C           11.64064752887514      -65.47781635245677      108.18108413187649
H           11.14677162656527      -65.02193536472278      107.34066542788993
H           11.94872318813714      -64.81334453822596      108.97135896291090
C           16.19045052708502      -69.81576298701371      108.74891628675020
H           15.56244128057770      -69.75830602452368      109.63809452821417
H           16.35551205765484      -68.80107667973603      108.38551883703190
H           17.15086953437577      -70.23738276600535      109.03516953755285
C           17.22972185097055      -72.55766548390943      107.34529234179092
H           17.84657173088399      -72.06745346363860      108.09440696125252
H           17.80594708633948      -72.63459403030188      106.42289389039567
H           17.00849822931165      -73.56766549529881      107.69107630547117
O           11.16449035616276      -72.62097942858192      106.63462303215654
H           11.50521890938267      -73.48903920563603      106.39244053475326
H           10.26626735642401      -72.56350360809439      106.29100954281544
C           15.18945089345826      -67.62363702205776      102.13198203776609
H           14.63823173982866      -66.95745065266790      101.46842136374995
H           16.08033813187908      -67.96751047842119      101.60655168067652
H           15.49688169636108      -67.06392687745794      103.00967744101644
N           13.81573097527440      -69.66054067226827      101.64688005623283
H           13.93728765715582      -69.62930726716669      100.64797797169342
C           14.34469981984580      -68.77222911402059      102.54623765041677
C           13.10427995176252      -70.57458543583050      102.34405569813455
H           12.57800064179031      -71.39278059437864      101.89778258123238
N           13.15081866308457      -70.31949230900702      103.62895600646655
C           13.91915244616261      -69.20123382116957      103.77072105334230
H           14.11215631871796      -68.78309641447414      104.73705716417925
