78
 energy: -116.058050438822 gnorm: 0.000066195627 xtb: 6.7.1 (edcfbbe)
Fe          14.05341029708240      -32.38803636527599       -4.22053033949371
N           15.31016437371009      -33.80000187263065       -3.59398946447793
N           12.81702758944035      -32.79541309199212       -2.70785287800273
N           12.75428402523534      -31.01253078622088       -4.91538673789778
N           15.27457194831185      -31.99468722300991       -5.76973603059192
C           16.49784844316816      -34.14916354725246       -4.15175988369529
C           17.11402848988016      -35.23037961684629       -3.41233221862991
C           16.26705384736580      -35.52464833092928       -2.39124370429647
C           15.14778762143077      -34.61554248944547       -2.51893875144174
C           13.00263566326412      -33.72292400587742       -1.73109368827863
C           11.91238382348521      -33.70409954596865       -0.78912688904578
C           11.04861410020004      -32.73345454463621       -1.22101874408628
C           11.64268550760991      -32.17690201276380       -2.42231070014381
C           11.57313203151976      -30.64711812641219       -4.34247613779032
C           10.92915866108777      -29.61438701517502       -5.11075822935927
C           11.75781392039181      -29.34727105543585       -6.16975226734320
C           12.89196789352822      -30.23710280507209       -6.02340860356685
C           15.08928192494301      -31.06354444354233       -6.74536388269581
C           16.22129954559309      -31.03271538059882       -7.64380319615095
C           17.09877209436911      -31.96516359747481       -7.18383086017840
C           16.49009238012465      -32.55422338730508       -6.01270419891334
C           17.06606165807288      -33.56565657915864       -5.26833160784151
H           18.03029409442312      -33.93103033736144       -5.58677555280059
C           14.08187847776030      -34.58589406504449       -1.64272076531288
H           14.08756685340984      -35.29574471877027       -0.82950172381164
C           11.05202491733886      -31.18407096068862       -3.17855273813549
H           10.10635211017878      -30.79362304908490       -2.83543243815444
C           13.97976296269831      -30.24911612141430       -6.87856729521385
H           13.97291397482821      -29.55448319542480       -7.70448086347775
C           16.39425463927479      -36.55749421140724       -1.32426004236881
H           16.40944703439449      -36.09335116760622       -0.33744545477081
H           17.31077501382536      -37.12935793180622       -1.44667366979058
H           15.55165503286366      -37.24799355132611       -1.35974753047403
C           18.42132705011285      -35.85286324504236       -3.76521863342573
H           19.21773239986650      -35.10831447962698       -3.75000702372259
H           18.38171022958103      -36.28480133940192       -4.76535053624925
H           18.67674293840907      -36.64171496142022       -3.06196192034626
C           11.82251233131724      -34.54455514166711        0.43683687875540
H           12.80284084175907      -34.66664833454691        0.89546472355744
H           11.43603348058542      -35.53690665753827        0.19948867696246
H           11.15478257238102      -34.08011342682229        1.15978648744822
C            9.80442472740488      -32.28849881109731       -0.63329082766966
H            9.58312423089278      -31.23347011131627       -0.74842970775773
C            8.93626375609369      -33.06097438636660        0.01187609043776
H            9.07969163794504      -34.12239833058765        0.11366078363885
H            8.03214744055842      -32.65849593831312        0.43799259749092
C            9.58960068086790      -29.03526417947684       -4.81655581586595
H            9.66315827218861      -28.24501231490658       -4.06754659260988
H            8.91440776228151      -29.79957397154185       -4.43462803357314
H            9.15933288718994      -28.61103766053463       -5.72165541713171
C           11.58175835883399      -28.41101566255694       -7.25752144228101
H           11.99659486299462      -28.71794369380471       -8.21100762221128
C           10.97305901309102      -27.23255088502469       -7.17165887043207
H           10.58467366521671      -26.85442573211274       -6.24227499813516
H           10.86553516978102      -26.59068022118899       -8.03034262214334
C           16.33433936350470      -30.12835504101047       -8.82306139244248
H           16.28044413025389      -29.08447721435304       -8.51286621523484
H           15.52342526414566      -30.31285580623815       -9.52842614303999
H           17.27811199794520      -30.28334583548626       -9.33998242322540
C           18.43048277749086      -32.35683451919007       -7.72571344114924
H           19.20856601375754      -32.20062153589419       -6.97833064395022
H           18.67832994537270      -31.76949989003357       -8.60647146479853
H           18.43630615446015      -33.41110710612769       -8.00376879940713
O           12.98059852702683      -33.87049479636166       -5.60557286752686
H           12.18261102150183      -33.37084160383223       -5.80962201867412
H           13.55535881737408      -33.81429445815554       -6.37676187360411
C           16.48548380818000      -27.73997204651251       -2.33348157224053
H           17.54786514711617      -27.77568450648461       -2.09258201224989
H           15.97601092942418      -27.18454269703573       -1.54612318487097
H           16.35866441721772      -27.20881299774437       -3.27153991233100
N           15.95448257594170      -30.01453913997328       -1.42999978011067
H           16.34101362351914      -29.85285315944301       -0.51452695973510
C           15.92662415398129      -29.10978243713101       -2.45876730297829
C           15.36993165178338      -31.15217262697749       -1.86859351379639
H           15.25087653498163      -32.03473758117439       -1.27416577859669
N           14.97404871104385      -31.02245939267803       -3.11175407558350
C           15.31351697300700      -29.75762037716718       -3.49255713050740
H           15.09545220081331      -29.39971061311975       -4.47708058045469
