78
 energy: -115.957779261997 gnorm: 0.248927291623 xtb: 6.7.1 (edcfbbe)
Fe          11.56700000000000       -2.39400000000000        1.19600000000000
N           12.14400000000000       -0.62300000000000        2.08700000000000
N            9.81500000000000       -2.35200000000000        2.29200000000000
N           10.88800000000000       -4.04000000000000        0.14700000000000
N           13.21600000000000       -2.24300000000000       -0.07900000000000
C           13.31700000000000        0.06500000000000        1.81400000000000
C           13.29400000000000        1.26200000000000        2.62500000000000
C           12.15300000000000        1.26900000000000        3.35100000000000
C           11.40700000000000        0.06300000000000        3.03500000000000
C            9.49100000000000       -1.46000000000000        3.29400000000000
C            8.31300000000000       -1.92800000000000        3.97200000000000
C            7.94500000000000       -3.08900000000000        3.39000000000000
C            8.89300000000000       -3.37700000000000        2.31900000000000
C            9.72600000000000       -4.71600000000000        0.40400000000000
C            9.57200000000000       -5.72000000000000       -0.63300000000000
C           10.64600000000000       -5.64600000000000       -1.47100000000000
C           11.50800000000000       -4.58100000000000       -0.95800000000000
C           13.54300000000000       -3.21500000000000       -1.00300000000000
C           14.91700000000000       -3.03700000000000       -1.44200000000000
C           15.42200000000000       -1.82900000000000       -0.68800000000000
C           14.31000000000000       -1.38900000000000        0.12100000000000
C           14.32500000000000       -0.29500000000000        0.95600000000000
H           15.21200000000000        0.33800000000000        0.93400000000000
C           10.18600000000000       -0.29000000000000        3.58200000000000
H            9.73400000000000        0.40200000000000        4.29300000000000
C            8.86100000000000       -4.45800000000000        1.44900000000000
H            8.06400000000000       -5.18400000000000        1.60800000000000
C           12.70700000000000       -4.19000000000000       -1.48400000000000
H           13.03500000000000       -4.71000000000000       -2.38400000000000
C           11.68900000000000        2.33600000000000        4.37100000000000
H           12.45100000000000        3.14100000000000        4.43800000000000
H           11.56800000000000        1.87000000000000        5.37200000000000
H           10.72500000000000        2.77800000000000        4.03900000000000
C           14.42700000000000        2.30800000000000        2.60900000000000
H           14.78500000000000        2.45100000000000        1.56700000000000
H           15.27400000000000        1.95400000000000        3.23500000000000
H           14.04800000000000        3.27800000000000        2.99600000000000
C            7.62300000000000       -1.19100000000000        5.15400000000000
H            7.78400000000000       -0.09600000000000        5.05300000000000
H            8.06100000000000       -1.53200000000000        6.11600000000000
H            6.53200000000000       -1.39800000000000        5.13900000000000
C            6.74500000000000       -3.99600000000000        3.74500000000000
H            6.22300000000000       -4.55800000000000        2.95700000000000
C            6.31300000000000       -4.12200000000000        5.00300000000000
H            6.80800000000000       -3.57700000000000        5.82000000000000
H            5.45700000000000       -4.77200000000000        5.23700000000000
C            8.33500000000000       -6.66600000000000       -0.69100000000000
H            7.41800000000000       -6.09400000000000       -0.43200000000000
H            8.46100000000000       -7.49400000000000        0.03900000000000
H            8.22500000000000       -7.07800000000000       -1.71700000000000
C           10.96400000000000       -6.48900000000000       -2.72900000000000
H           11.49900000000000       -6.03100000000000       -3.57400000000000
C           10.60500000000000       -7.79100000000000       -2.83700000000000
H           10.06800000000000       -8.29200000000000       -2.01800000000000
H           10.84600000000000       -8.36300000000000       -3.74500000000000
C           15.71300000000000       -3.90300000000000       -2.42800000000000
H           15.31000000000000       -3.76300000000000       -3.45400000000000
H           15.62000000000000       -4.97400000000000       -2.14700000000000
H           16.78200000000000       -3.59900000000000       -2.41600000000000
C           16.83000000000000       -1.19900000000000       -0.76000000000000
H           17.33200000000000       -1.51900000000000       -1.69800000000000
H           17.43700000000000       -1.53700000000000        0.10700000000000
H           16.74600000000000       -0.09100000000000       -0.75600000000000
O           10.68300000000000       -1.28400000000000       -0.04600000000000
H           10.85600000000000       -0.38500000000000        0.23300000000000
H           10.20100000000000       -1.53200000000000       -0.75100000000000
C           14.79600000000000       -6.23100000000000        3.78100000000000
H           14.29100000000000       -7.17700000000000        4.07100000000000
H           15.42900000000000       -5.88700000000000        4.62700000000000
H           15.42700000000000       -6.41900000000000        2.88600000000000
N           12.83700000000000       -4.76100000000000        4.37800000000000
H           12.76300000000000       -5.09700000000000        5.31700000000000
C           13.76700000000000       -5.19200000000000        3.46500000000000
C           12.06700000000000       -3.84000000000000        3.81400000000000
H           11.24600000000000       -3.33100000000000        4.31700000000000
N           12.46900000000000       -3.65900000000000        2.56500000000000
C           13.53000000000000       -4.49800000000000        2.31900000000000
H           14.01700000000000       -4.52300000000000        1.35300000000000
78
 energy: -116.015247732250 gnorm: 0.102594045576 xtb: 6.7.1 (edcfbbe)
Fe          11.56953529385461       -2.40671929816044        1.20275682188355
N           12.14491302410073       -0.64185274431329        2.09045232066055
N            9.82970648175017       -2.37287198521106        2.30874182781043
N           10.89549402559597       -4.03167360515240        0.14662692886952
N           13.22961004399350       -2.26757483233334       -0.04734946719892
C           13.29988239878741        0.05879256732714        1.82535716109690
C           13.30092770413630        1.26853159576394        2.62806193582337
C           12.15447181821144        1.27636548272124        3.35792344841150
C           11.42178613258997        0.06479970207634        3.01982970181391
C            9.49163729970384       -1.47252102321539        3.28603655238160
C            8.30281136003065       -1.92825654036399        3.97414822948894
C            7.92980350427958       -3.10599262927446        3.38940525120799
C            8.89500523076055       -3.37374050439421        2.32466701726529
C            9.73954010455349       -4.71259657274818        0.39153302203769
C            9.56942279490309       -5.73441712780675       -0.63188057829270
C           10.64382584229152       -5.65628161022565       -1.47931465324040
C           11.48938597291529       -4.57370005121036       -0.96283545566972
C           13.56597770264185       -3.19669253326436       -0.99202411640497
C           14.93480604661169       -2.99854112202596       -1.42467579436548
C           15.40856894545329       -1.86021917801506       -0.71294214054887
C           14.30995083119475       -1.42560782791470        0.11608793440353
C           14.31254231577633       -0.31429835207534        0.95546975049185
H           15.19461146981205        0.32049927882598        0.93215998903313
C           10.19704692533419       -0.30117038818523        3.56629469772505
H            9.75438126726915        0.38315918046941        4.28518966367419
C            8.86680085946690       -4.45252887344566        1.44620236756933
H            8.06595195718272       -5.17005352596841        1.59795594986425
C           12.71112895130297       -4.18427109967129       -1.48224178855840
H           13.04593430299890       -4.71636817820367       -2.36747191439260
C           11.69521516406560        2.32210117143827        4.35693171353326
H           12.43639865928578        3.12364207379560        4.43648519523348
H           11.56767633764581        1.87498247254287        5.34947269440039
H           10.74150354804400        2.76430846868054        4.04472506340084
C           14.41271907574162        2.29733549733847        2.60776476738634
H           14.77549391128541        2.44879400003695        1.58523688416486
H           15.25504537890572        1.96045895412199        3.22446343915221
H           14.05723804814600        3.25900085369261        2.99106032417111
C            7.63382745697142       -1.19851759472898        5.13060443628002
H            7.78384777919545       -0.11656894402247        5.04893055341616
H            8.05458096275719       -1.52550748962541        6.09043361858345
H            6.55686779658620       -1.39789103168519        5.13412591194263
C            6.76820508447993       -3.97913134380091        3.74861033781330
H            6.26329862455376       -4.53194922700025        2.95614263485736
C            6.32172476549953       -4.11455755151997        4.99441253836434
H            6.79885913630268       -3.59730583957623        5.81682376532327
H            5.47617931382278       -4.75588942347424        5.22918626748012
C            8.35420463271895       -6.65027771329833       -0.69322209167617
H            7.44240784355882       -6.09834810441335       -0.43641992020764
H            8.46385706094074       -7.47520277347435        0.02205577542881
H            8.23209921238213       -7.06614527679408       -1.69838718814553
C           10.94621654773344       -6.48456406044275       -2.69458255142683
H           11.48369970193176       -6.01754277118298       -3.52266951068269
C           10.60325466654626       -7.76884094936621       -2.82330191246436
H           10.08431437212047       -8.29079937953907       -2.02921764486614
H           10.84115724845353       -8.33707042887091       -3.72016313309412
C           15.69686503534931       -3.87255021956497       -2.40296936617596
H           15.31196033649452       -3.75770461910153       -3.42658709846098
H           15.61703833394932       -4.93766592268437       -2.14281349199221
H           16.75824698837593       -3.60234777893976       -2.41157196712276
C           16.79064422663318       -1.22415123136383       -0.76766789651596
H           17.31634982647311       -1.51747722389622       -1.68309392797613
H           17.40893692964644       -1.53429128633111        0.08728647296169
H           16.73262279613056       -0.12722013371108       -0.75505350479652
O           10.67409266456915       -1.25911796313009       -0.05402588182684
H           10.83617507645409       -0.35039451292849        0.20422339569911
H           10.16572956432763       -1.51116353133655       -0.80356721602592
C           14.79292130482393       -6.23299430519877        3.78387465175875
H           14.30484372919123       -7.17180318434800        4.07036839885876
H           15.42660682685232       -5.90029287500743        4.61438314072853
H           15.41708896520909       -6.41488563253652        2.90501297132588
N           12.84682510391985       -4.77071819592144        4.38293130446650
H           12.76856046648428       -5.10760053505481        5.32638558656326
C           13.77141010364652       -5.19798266362569        3.46747327996106
C           12.07709500304505       -3.83731634332483        3.80354697684254
H           11.26291352848323       -3.33430303439298        4.29833996499683
N           12.46832914783061       -3.64428946269289        2.56189389653727
C           13.51979798233008       -4.48908443284909        2.32912984728175
H           14.00359312260265       -4.51535670489597        1.36983383170241
78
 energy: -116.035237367062 gnorm: 0.039318486901 xtb: 6.7.1 (edcfbbe)
Fe          11.57054998853717       -2.41403294120366        1.20461834408769
N           12.14911263042358       -0.66294566603494        2.09653811694550
N            9.84760466145578       -2.39380575250846        2.31935372192722
N           10.90225915013102       -4.01849754223102        0.14814723611540
N           13.23982045830836       -2.29958391506773       -0.01154121216925
C           13.28886367324624        0.04177792852090        1.83714066194185
C           13.30459822833866        1.26430051699504        2.62394060435257
C           12.15366150228149        1.27353314042178        3.35657315142447
C           11.43698901936873        0.05533650822014        3.01151697020781
C            9.50399768677325       -1.49000615401513        3.27982847127518
C            8.30679764888601       -1.92903529741786        3.97200829692125
C            7.93048794061447       -3.11787913770350        3.38803632861745
C            8.90656003444343       -3.37515558759415        2.33003814810098
C            9.75267219115205       -4.70379376521250        0.38725206751177
C            9.56953358828916       -5.73551821037718       -0.62176843440377
C           10.64501606636663       -5.65343165965631       -1.47547389632016
C           11.47953493995076       -4.56367920611914       -0.95859594695763
C           13.57859151052426       -3.19825934209366       -0.97113286224799
C           14.94347398187544       -2.96903280451297       -1.40965024636640
C           15.39247056001174       -1.88929712009709       -0.72953801841158
C           14.30447119847367       -1.46411898874037        0.13036848518619
C           14.30202537128710       -0.34295437314216        0.96341202528008
H           15.17584974268697        0.29684327546678        0.92917095330030
C           10.21370977671334       -0.32108011517446        3.55750643792436
H            9.77734754516579        0.35804147287564        4.27993822577634
C            8.87452740807253       -4.44794116842869        1.44466098942664
H            8.06411855969519       -5.15314532641082        1.58113804722605
C           12.71827250417821       -4.18696948592910       -1.46916351693740
H           13.06122351697910       -4.72755006560644       -2.34218043437459
C           11.69826978937942        2.30265018961390        4.34029565089111
H           12.42895875441232        3.10302689267047        4.42612933471467
H           11.56668756373654        1.86567158632137        5.32949427700355
H           10.74837926933492        2.74423723851726        4.03988034770828
C           14.39904764003340        2.28160008543965        2.60413174934682
H           14.76437656266491        2.44010500500598        1.59200077143684
H           15.24000622341992        1.95580813515868        3.21721303693329
H           14.05342100519853        3.23766962409147        2.98919024143308
C            7.64692297146224       -1.20597384120932        5.10262394789256
H            7.79245193014974       -0.13097239429838        5.02807316453876
H            8.05835963428019       -1.52516175375285        6.06267798111932
H            6.57692836660426       -1.40542399590639        5.11653079523486
C            6.80248443278041       -3.95945193709951        3.74517240745724
H            6.31629868351624       -4.50700290315569        2.94462501552255
C            6.33563513766799       -4.10665609093754        4.98268264751165
H            6.79587382783386       -3.61531949103529        5.81992382302242
H            5.49232547511801       -4.73921303375534        5.20967778634704
C            8.37632100986094       -6.63254360498940       -0.69091824337924
H            7.46788243968980       -6.08934446601846       -0.43566667581990
H            8.47376907518101       -7.46094400551935        0.01277124330784
H            8.25227745733157       -7.04679242668714       -1.68823353463520
C           10.93535807239801       -6.46582103293722       -2.64956713598954
H           11.47404881547921       -5.98537610084547       -3.46199366741805
C           10.60163835345997       -7.74402879561211       -2.80179822132005
H           10.09656534636397       -8.29405274725679       -2.02826403640400
H           10.83564078210821       -8.30151976449507       -3.69670974974653
C           15.68254815532197       -3.84113196542631       -2.38246750692104
H           15.29584847594500       -3.73492451121347       -3.39868700943468
H           15.59875812533489       -4.89758122553397       -2.11877723161458
H           16.74057768566873       -3.58925180680963       -2.40102852096376
C           16.75095905156313       -1.24797375699940       -0.77631082181136
H           17.28827444412176       -1.52921112845191       -1.67996072494786
H           17.36420436425090       -1.54764708738950        0.07812263897375
H           16.69072048678454       -0.15888741479143       -0.75620333619217
O           10.65052257558191       -1.22684875117602       -0.07911200624553
H           10.79477234869103       -0.30290168563841        0.14115894884293
H           10.13797826140975       -1.47010309398098       -0.85069244572282
C           14.79061999330070       -6.23417282794308        3.78290236164728
H           14.31205226104498       -7.16899038809244        4.06921631493302
H           15.42445540411373       -5.90827668576766        4.60604114780220
H           15.41203644088171       -6.41266624696647        2.91315590838088
N           12.85286949526434       -4.77532597996334        4.38585307030856
H           12.77027409699782       -5.11264638429116        5.33126428307832
C           13.77351472665596       -5.20021606919999        3.46643825357473
C           12.08634113858181       -3.83100227706754        3.79622706846391
H           11.27784125475131       -3.33098693320039        4.28656563004863
N           12.46582411924914       -3.63159475112183        2.55784140996968
C           13.51256620276812       -4.47826676911052        2.33573078101938
H           13.99637118802089       -4.50868184839493        1.38163611474091
78
 energy: -116.042806611565 gnorm: 0.030166352211 xtb: 6.7.1 (edcfbbe)
Fe          11.56441417992487       -2.40505460160925        1.19445719036269
N           12.15582744382228       -0.68280287622492        2.10471621843399
N            9.86880800743396       -2.40715368442266        2.32314387657203
N           10.90570738689036       -4.00568816970363        0.15781407365905
N           13.24312781752391       -2.33015962795452        0.02116702578078
C           13.28957146213002        0.02149145665486        1.84855493503993
C           13.30620050425240        1.24877983811619        2.62257335795037
C           12.15537049753086        1.25859368369354        3.35405458400249
C           11.44703372992533        0.03923745022223        3.01325452959274
C            9.52492830123362       -1.50327167933058        3.27884715880095
C            8.32769339845781       -1.93241672362295        3.96851548017393
C            7.95143639326449       -3.12230998715208        3.38873880641491
C            8.92335610315415       -3.37859284528345        2.33300101240897
C            9.75865099873696       -4.69305683921406        0.39591011288492
C            9.57446833211802       -5.72759609288781       -0.60042336413616
C           10.64956185694253       -5.64601277062292       -1.45168598884451
C           11.47873459209963       -4.55740137668754       -0.94270887259871
C           13.57464971388072       -3.21727536485917       -0.94984469617374
C           14.93247077088525       -2.97576664516722       -1.40434780568331
C           15.38190583367951       -1.89531135829088       -0.71806411083768
C           14.29788380400066       -1.48799730060126        0.15865960671601
C           14.30087511432101       -0.36652515789656        0.97936963948216
H           15.17015796087200        0.27501226052540        0.93371924219028
C           10.22969786023100       -0.33790602641257        3.56009608232709
H            9.79907055604060        0.33484022127646        4.28887226278465
C            8.87751256839853       -4.44349441916573        1.44589279677725
H            8.05581727579733       -5.13710695405119        1.56604209374323
C           12.72142545762782       -4.19913927432380       -1.45150472219505
H           13.07527787075787       -4.75329509645722       -2.31115286868011
C           11.69436283777305        2.28503732621598        4.32991425627348
H           12.42265013207131        3.08713156627589        4.41603428730394
H           11.56138419527969        1.84743666560711        5.31836947196931
H           10.74297513909058        2.72135730096959        4.02755027751057
C           14.39337533150050        2.26707646309153        2.59902444345790
H           14.75617967680564        2.42936577838760        1.58692431999378
H           15.23599947434539        1.94402877332169        3.21093139952687
H           14.04450875171807        3.22015013830689        2.98818745225516
C            7.66067944279391       -1.20547586790413        5.08250506747099
H            7.80305803160898       -0.13118064874066        4.99954387388582
H            8.06839577872124       -1.51865283748664        6.04578527462446
H            6.59266011104614       -1.41387948740424        5.09068518667095
C            6.82865365850355       -3.95574109440659        3.73860142204665
H            6.35877487313708       -4.50048021736500        2.92750087536570
C            6.34420427850857       -4.10609459259438        4.96961329271455
H            6.79843219994452       -3.63294207324732        5.82192075305635
H            5.49509802174412       -4.73320174499337        5.18088921899483
C            8.38667023251747       -6.61890048435479       -0.68324624914129
H            7.47895637863055       -6.07519232912740       -0.42894097055403
H            8.48055699719286       -7.45442337544268        0.01212122457071
H            8.27367033685382       -7.02320609246256       -1.68582129725463
C           10.93579463963303       -6.44695012030084       -2.61761892001648
H           11.47786274636438       -5.95197268405416       -3.41678909895838
C           10.60301552478963       -7.72392051026386       -2.78507994169717
H           10.11161518690826       -8.29493259659599       -2.01658124774128
H           10.83650153436084       -8.26503926646754       -3.68722165597028
C           15.66681821067555       -3.83178172864017       -2.38073711358992
H           15.26988189174969       -3.71668519130305       -3.38924998678242
H           15.57947963799102       -4.88250245393434       -2.10644612818861
H           16.72279148403977       -3.57597711437850       -2.39852024234728
C           16.72754995366569       -1.25250562248256       -0.77510263126630
H           17.25930932796769       -1.53767523077712       -1.67923584797545
H           17.33224886420475       -1.55482337703809        0.08166072370480
H           16.65021666783582       -0.16736066661454       -0.75678695729014
O           10.61833430856483       -1.19156679832705       -0.11628614594329
H           10.75079630157068       -0.25502694877316        0.06515213557885
H           10.11422752820493       -1.42778906710565       -0.90044578879618
C           14.78727374497461       -6.23199282872598        3.77788432266581
H           14.31103046079811       -7.16769381995695        4.06508069793887
H           15.42366158556574       -5.91004720125439        4.60062872827614
H           15.40954470163255       -6.41105550095378        2.90922017241286
N           12.85403717090545       -4.76930363235568        4.38387954230319
H           12.76935032307050       -5.10816404309654        5.32894659657869
C           13.77202791461287       -5.19535508757158        3.46166795410699
C           12.09101328249260       -3.81971573630208        3.79306360735049
H           11.28602183724166       -3.31746414297334        4.28437241982975
N           12.46549333784807       -3.61847892748808        2.55363558984231
C           13.50979246757156       -4.46864735387946        2.33405527543161
H           13.99542769303887       -4.50240555357856        1.38209270285180
78
 energy: -116.048337330387 gnorm: 0.021285810826 xtb: 6.7.1 (edcfbbe)
Fe          11.56545717560682       -2.40018299512099        1.19487639702144
N           12.15728520204527       -0.70000479637989        2.10221692105491
N            9.89258385498320       -2.41422957023767        2.31708552655249
N           10.90748248506920       -3.98449187260139        0.17049919697045
N           13.22799788268662       -2.35189163935926        0.04970295770515
C           13.29052998493391        0.00162159712169        1.85416050944283
C           13.30866082873181        1.22885484703023        2.62079389403975
C           12.15846920521331        1.23960244500770        3.35013596409865
C           11.45466097355036        0.02245799590558        3.01278586768343
C            9.54959255740313       -1.51459561599137        3.27581007199521
C            8.35703882638841       -1.93715010007173        3.96513731817111
C            7.97936426813937       -3.12484419030822        3.38877064527621
C            8.94302260295665       -3.37950940769409        2.33300066851731
C            9.76195477104087       -4.67651219308194        0.40692184381346
C            9.58167880753604       -5.71522082919606       -0.57420731941914
C           10.65879004434654       -5.63723123410178       -1.42022627953349
C           11.48077789306728       -4.54974427020565       -0.92006856642956
C           13.56135835740869       -3.23459531260978       -0.92474989841793
C           14.91153395946932       -2.98476197330806       -1.39157212882400
C           15.36170429204733       -1.90277992626083       -0.70052641120229
C           14.28146975881490       -1.50927102476346        0.18524324771778
C           14.30193809434036       -0.39042975710311        0.99428068662155
H           15.17358232506611        0.24420132459882        0.94318070273775
C           10.24728152554518       -0.35424392093730        3.56777044543741
H            9.82368002002519        0.30913747934330        4.30720809976400
C            8.87720951421933       -4.43687663167783        1.44660130109390
H            8.04817588403464       -5.12136537081838        1.55322471185765
C           12.72693211745106       -4.21647391891884       -1.42694363717958
H           13.09281520707391       -4.78635821564795       -2.27050331777849
C           11.68720509016370        2.26487163299714        4.32145944058449
H           12.41137221132572        3.07141077241225        4.40848707181153
H           11.55199579969315        1.82548405601490        5.30975821895359
H           10.73346302252447        2.69309773166247        4.01213333574958
C           14.39233950581711        2.24967935926581        2.59294005205818
H           14.74783026909569        2.41659732770157        1.57813277437693
H           15.23986970054870        1.92761063054526        3.20000356131317
H           14.03816922447539        3.19962460079015        2.98783816685004
C            7.67808992128722       -1.20266486805036        5.06504282087999
H            7.81251259532374       -0.12785284986043        4.96629783582628
H            8.08075515967199       -1.50164637650544        6.03564540852239
H            6.61169913502545       -1.42342383314432        5.06326192455959
C            6.85452744946051       -3.95913827335028        3.72947790547983
H            6.39766137702700       -4.49815167432939        2.90732117361183
C            6.35495312306965       -4.11369989471107        4.95341036461823
H            6.79309690080885       -3.64444368212371        5.81714238193660
H            5.49641683963785       -4.73466591471656        5.14477430561171
C            8.39490010160286       -6.60531787251560       -0.67171062240497
H            7.48527883360951       -6.06309877916522       -0.41901664491936
H            8.48341982114346       -7.45101355953539        0.01294141807195
H            8.29606520182224       -6.99524473545944       -1.68288195521873
C           10.94811401817988       -6.43090389922979       -2.58743732323881
H           11.48413750533327       -5.91930888760023       -3.37892142525444
C           10.61564476991440       -7.70665976604108       -2.76678555348846
H           10.12305279716892       -8.28903262321119       -2.00795095593946
H           10.84111173551870       -8.22719437621480       -3.68243116273227
C           15.64283007982273       -3.82470505864116       -2.37890710529142
H           15.23722911606441       -3.70073187655335       -3.38203570456049
H           15.55960457839646       -4.87532974660593       -2.10687787730772
H           16.69774594639269       -3.56306431243059       -2.40138270550753
C           16.69955813400744       -1.25504238152967       -0.76872997853902
H           17.22764465444752       -1.54527882838961       -1.67358267470236
H           17.30512038091058       -1.55032155178382        0.08922031139620
H           16.61044193925627       -0.17177158813171       -0.75937845415095
O           10.57700711314496       -1.14832226756423       -0.15434352677917
H           10.70385316546617       -0.19834234662077       -0.03485580267390
H           10.09790874696272       -1.37112070687112       -0.95996458425727
C           14.78566426643033       -6.23123941229443        3.77233238861346