78
 energy: -115.966134001380 gnorm: 0.267297905791 xtb: 6.7.1 (edcfbbe)
Fe           8.02100000000000       -6.87500000000000        9.10700000000000
N            8.80100000000000       -8.75500000000000        9.08600000000000
N            9.55900000000000       -6.21200000000000       10.28700000000000
N            7.17000000000000       -4.99900000000000        9.22600000000000
N            6.36800000000000       -7.54000000000000        8.10900000000000
C            8.21700000000000       -9.88600000000000        8.55700000000000
C            9.05300000000000      -11.02900000000000        8.86200000000000
C           10.10100000000000      -10.58700000000000        9.55800000000000
C            9.96600000000000       -9.15200000000000        9.71200000000000
C           10.67800000000000       -6.96900000000000       10.57900000000000
C           11.65500000000000       -6.09900000000000       11.18600000000000
C           11.15400000000000       -4.86700000000000       11.24400000000000
C            9.80800000000000       -4.90700000000000       10.68200000000000
C            7.70000000000000       -3.91500000000000        9.90100000000000
C            6.77500000000000       -2.80900000000000        9.77300000000000
C            5.72000000000000       -3.22400000000000        9.05000000000000
C            5.95900000000000       -4.61000000000000        8.68900000000000
C            5.31600000000000       -6.73800000000000        7.65200000000000
C            4.42900000000000       -7.53700000000000        6.83400000000000
C            5.02800000000000       -8.93400000000000        6.81800000000000
C            6.21400000000000       -8.84600000000000        7.62900000000000
C            7.04300000000000       -9.91600000000000        7.85600000000000
H            6.73800000000000      -10.87600000000000        7.44000000000000
C           10.84500000000000       -8.31700000000000       10.35800000000000
H           11.76500000000000       -8.76600000000000       10.73200000000000
C            8.91100000000000       -3.87100000000000       10.56200000000000
H            9.18200000000000       -2.92600000000000       11.03300000000000
C            5.12300000000000       -5.40200000000000        7.93600000000000
H            4.22900000000000       -4.93200000000000        7.52700000000000
C           11.26200000000000      -11.44200000000000       10.11000000000000
H           12.14000000000000      -11.35500000000000        9.43500000000000
H           10.95200000000000      -12.50700000000000       10.16200000000000
H           11.54700000000000      -11.08000000000000       11.12100000000000
C            8.76000000000000      -12.49000000000000        8.45400000000000
H            8.18600000000000      -12.50100000000000        7.50300000000000
H            8.15800000000000      -12.98700000000000        9.24400000000000
H            9.71500000000000      -13.03700000000000        8.30500000000000
C           13.06000000000000       -6.51400000000000       11.67300000000000
H           13.35800000000000       -7.46400000000000       11.18000000000000
H           13.04600000000000       -6.66800000000000       12.77300000000000
H           13.79700000000000       -5.72500000000000       11.41000000000000
C           11.94000000000000       -3.67800000000000       11.84700000000000
H           12.85100000000000       -3.87800000000000       12.42900000000000
C           11.57700000000000       -2.40200000000000       11.70400000000000
H           12.07400000000000       -1.61200000000000       12.28500000000000
H           10.77600000000000       -2.12500000000000       11.00300000000000
C            7.02400000000000       -1.42600000000000       10.41300000000000
H            7.57800000000000       -0.78100000000000        9.69800000000000
H            7.63000000000000       -1.54300000000000       11.33700000000000
H            6.05300000000000       -0.94400000000000       10.65500000000000
C            4.46300000000000       -2.43100000000000        8.61300000000000
H            3.53000000000000       -2.97200000000000        8.39500000000000
C            4.44900000000000       -1.09600000000000        8.48300000000000
H            5.35400000000000       -0.50600000000000        8.68800000000000
H            3.53200000000000       -0.57500000000000        8.17000000000000
C            3.14400000000000       -7.07900000000000        6.12000000000000
H            3.38900000000000       -6.27000000000000        5.39900000000000
H            2.41900000000000       -6.69000000000000        6.86600000000000
H            2.69800000000000       -7.93200000000000        5.56600000000000
C            4.47600000000000      -10.18100000000000        6.08800000000000
H            3.78100000000000       -9.86200000000000        5.28200000000000
H            3.92400000000000      -10.82300000000000        6.80700000000000
H            5.31400000000000      -10.75200000000000        5.63500000000000
O            7.04300000000000       -7.41300000000000       11.02500000000000
H            7.58900000000000       -7.03500000000000       11.71500000000000
H            6.29700000000000       -7.88300000000000       11.14300000000000
C           11.52600000000000       -7.29100000000000        4.61600000000000
H           11.90700000000000       -6.42300000000000        4.03600000000000
H           11.15100000000000       -8.06100000000000        3.90800000000000
H           12.35500000000000       -7.70800000000000        5.22700000000000
N            9.25600000000000       -6.27500000000000        5.03400000000000
H            9.07600000000000       -6.07200000000000        4.07200000000000
C           10.41700000000000       -6.84500000000000        5.50900000000000
C            8.43700000000000       -6.04700000000000        6.04200000000000
H            7.45600000000000       -5.58300000000000        5.95000000000000
N            9.01500000000000       -6.47500000000000        7.14900000000000
C           10.25100000000000       -6.98300000000000        6.84400000000000
H           10.89700000000000       -7.39600000000000        7.60800000000000
78
 energy: -116.023479434817 gnorm: 0.110647143218 xtb: 6.7.1 (edcfbbe)
Fe           8.01436037404937       -6.87080911835872        9.10643823396117
N            8.79342416722319       -8.75527470062785        9.09915527824539
N            9.58124752713573       -6.20337399963721       10.25586203987369
N            7.16538172411226       -5.00260866292945        9.22433327911011
N            6.37675706259742       -7.53901607841836        8.09468846950127
C            8.21930691274885       -9.87888514388215        8.56230883260873
C            9.04852061182696      -11.03680410365194        8.85405829949748
C           10.11121704145929      -10.59150996120128        9.56147986624482
C            9.95508576205250       -9.15492409884807        9.70881335820206
C           10.68469965792007       -6.95398259572160       10.57585195526977
C           11.67487367196040       -6.10064421511683       11.19151380888925
C           11.16455619875265       -4.84318618360586       11.24974886211767
C            9.82202582964316       -4.91368225876485       10.67220851667534
C            7.68350274609010       -3.92281586935850        9.89239828358049
C            6.77024666154609       -2.79970760563788        9.77678519120484
C            5.70393562099903       -3.21615349408301        9.03601855095256
C            5.96176274190865       -4.61281146769255        8.69293880228517
C            5.32338790461305       -6.77265693456424        7.64010058744932
C            4.44072394156483       -7.57921131553708        6.82954609467182
C            5.00158760377941       -8.89123341591659        6.81283704117582
C            6.19517855948969       -8.81785369669850        7.61312274762309
C            7.03556610574442       -9.90063105011529        7.85271375235515
H            6.73139963255440      -10.85956088143523        7.44453009521331
C           10.84111734687903       -8.31388381318566       10.35670855318792
H           11.75513876221069       -8.76444944021818       10.72997157824066
C            8.90361332236598       -3.88318459799931       10.55567383360683
H            9.16488461230077       -2.94408448885770       11.02662628226312
C            5.13025981401947       -5.42098867898730        7.93345334600963
H            4.23821390904942       -4.95099897563175        7.52961218359330
C           11.25283162510049      -11.42692303424682       10.10545137910128
H           12.12696152488810      -11.35196372218170        9.44677877083048
H           10.95687760659111      -12.47938515010427       10.16408930877287
H           11.54117903202413      -11.08590073157201       11.10486326138602
C            8.75851992710995      -12.46998479789358        8.45316380513830
H            8.19379692821765      -12.50069587803742        7.51656017673216
H            8.16924689878466      -12.97432445020575        9.22893944350207
H            9.69338075494853      -13.02227064467068        8.30924356060537
C           13.04990045715334       -6.51868294337667       11.66546259895958
H           13.35806965061873       -7.45267524382029       11.18762933312363
H           13.04646202202973       -6.66550581080620       12.75231497746920
H           13.78247358971711       -5.74410955049338       11.41594675971752
C           11.90657009305689       -3.68458522221298       11.83815969954828
H           12.79841085191659       -3.90921080262393       12.42622268460498
C           11.57427794816245       -2.40512653955759       11.69886733327503
H           12.08415765454827       -1.62374248523716       12.25458095225432
H           10.78777361098402       -2.10458455369091       11.02193757078662
C            7.02017179639114       -1.44345177186698       10.40692723323191
H            7.56952399057632       -0.79573171625444        9.71104349345574
H            7.61449401604412       -1.54288334020323       11.32112053880525
H            6.07097178752749       -0.95829278102124       10.65597512269743
C            4.49184975580355       -2.43682133316163        8.62140138067655
H            3.57489115988246       -2.98746913488373        8.40726718944095
C            4.45922930525784       -1.11151272017840        8.48839721132513
H            5.33812806626234       -0.50755241501103        8.67042890652027
H            3.55429007814486       -0.59368514320505        8.17942341272483
C            3.17832914547507       -7.09772208499092        6.13515798799364
H            3.39542341609508       -6.29103473761601        5.41997853729404
H            2.44607385571727       -6.70706648509182        6.85518060173613
H            2.70939293144328       -7.91807917334803        5.58224361695915
C            4.48172897926386      -10.13608123539640        6.10445857361889
H            3.79205106313689       -9.86014547669805        5.29945688501770
H            3.94107342861070      -10.79662206146444        6.79725105788015
H            5.29681050421020      -10.72059316600482        5.65537444093440
O            7.05777077422093       -7.39938818271872       11.02016576209830
H            7.58108181358311       -7.03918571451794       11.73417451391230
H            6.27279926512615       -7.89627452418207       11.16106902121275
C           11.52470251418573       -7.28688364003124        4.61200561812808
H           11.90934343882251       -6.43719824095566        4.03551372648061
H           11.16710563157090       -8.05193946863111        3.91294192263259
H           12.33863148750055       -7.70187083149515        5.21280938606932
N            9.26658088113674       -6.27585355573967        5.02706324953962
H            9.08303300862435       -6.06901347309268        4.06053153283142
C           10.41525709180343       -6.85546702927805        5.50322306942387
C            8.44367031255434       -6.05430683228304        6.06050829882623
H            7.47249421406406       -5.59576569305561        5.96861319216761
N            9.00432906885350       -6.47113165568365        7.17568509101433
C           10.23333793482467       -6.97669614913895        6.84795910051939
H           10.88056328083788       -7.38368182538586        7.60294098541380
78
 energy: -116.040689326565 gnorm: 0.038751357108 xtb: 6.7.1 (edcfbbe)
Fe           8.01122786783343       -6.86485777824583        9.09788265558588
N            8.78582691993067       -8.75104458022319        9.10765981424490
N            9.59915589685459       -6.19754778403827       10.22171536968547
N            7.16108203284887       -5.01130028537185        9.22034576520983
N            6.38823087410768       -7.53587163953231        8.07858272076874
C            8.21754731892218       -9.86637469767651        8.56903435798026
C            9.04153566502831      -11.03251940745708        8.84777143854531
C           10.11267901775268      -10.58626342985355        9.56291428429265
C            9.94194113271956       -9.15072105662059        9.70686530249599
C           10.69206802762644       -6.93926542412630       10.55788610575496
C           11.68368109109821       -6.10144909973092       11.18920845575373
C           11.16318516079100       -4.82929672245625       11.24819908085489
C            9.83249833701584       -4.92118271972733       10.64653534411794
C            7.67182749359956       -3.93801659938872        9.88324000566056
C            6.77208396931307       -2.80365295252168        9.77763900716077
C            5.69994670645193       -3.21936925199305        9.02292876752975
C            5.96693235981982       -4.62176144349268        8.69315278559471
C            5.33754118006054       -6.79168828830767        7.63108009226771
C            4.45446974051899       -7.61131028152607        6.82605705883645
C            4.98486270708133       -8.85347079267721        6.80899531195584
C            6.19180473881752       -8.79552271976011        7.60256663666092
C            7.03091813835758       -9.88372026848205        7.85226040764188
H            6.72438751485633      -10.84038154706463        7.45033410932111
C           10.83733752756563       -8.30828854675719       10.34928437754115
H           11.74256662968319       -8.76327451766157       10.72861620398230
C            8.89790757296967       -3.89838480574126       10.54208897214243
H            9.14699255262654       -2.96530165644484       11.02017968175313
C            5.13995806042129       -5.43788533940505        7.92947286598175
H            4.24604869503404       -4.97403451822448        7.53171202774909
C           11.24090049156609      -11.40663787349615       10.09993753126419
H           12.11568258261680      -11.33806384553243        9.45190821576290
H           10.95321917719558      -12.45357428403207       10.16266718849274
H           11.53147736586473      -11.07689420589642       11.09410512095903
C            8.75498924089173      -12.44487809940910        8.45102664594097
H            8.19433994160656      -12.48893920756780        7.52191296671243
H            8.17239802941531      -12.95384826100308        9.22044438434449
H            9.68043048509415      -13.00044855168909        8.31270903381358
C           13.03680473478428       -6.52143077362967       11.65809584945651
H           13.35098219352375       -7.44817154936561       11.18938706908081
H           13.04161777095511       -6.66699199190696       12.73907202825443
H           13.77221198297475       -5.75661282871032       11.41902836713153
C           11.86102835385221       -3.69990341565551       11.82685519589975
H           12.72885776534499       -3.95377581614778       12.43138926779410
C           11.56949699188961       -2.40811779140888       11.68856526294663
H           12.11031821066736       -1.63938743899994       12.21826410457543
H           10.78921058683824       -2.07271804414040       11.03451197187345
C            7.01561188849119       -1.46770727703695       10.40131521870428
H            7.56177119340628       -0.81581261481082        9.71654478113813
H            7.60414747314290       -1.55792830557214       11.31103143387838
H            6.07620300532186       -0.98124186719539       10.65318130268365
C            4.53034090529090       -2.45682605447453        8.62535296597822
H            3.62656066833631       -3.02062707676837        8.41860603339657
C            4.47550544763459       -1.13330840271677        8.48922757057565
H            5.33316284814620       -0.50706017308361        8.64882452176891
H            3.57108873735969       -0.62369641518653        8.19449878087081
C            3.20919322764407       -7.11740185946120        6.14976979662428
H            3.42643322708109       -6.31113260725592        5.44508625326061
H            2.48526769210114       -6.72726179028612        6.86777443567255
H            2.72667675757087       -7.92052510311619        5.59734194999151
C            4.48374077543253      -10.09009095468780        6.11832647666524
H            3.79455574861109       -9.83756485379180        5.31507363547108
H            3.95735732446113      -10.75364948412964        6.80939508778266
H            5.29904149216930      -10.66874951042809        5.68028886886392
O            7.05920378665471       -7.37905874072026       11.01447398277511
H            7.55644070544379       -7.05619208567786       11.76779326291413
H            6.27191923070857       -7.89720468383869       11.18016832690757
C           11.52257492322967       -7.28443806424713        4.61391267466055
H           11.90576036924300       -6.44264041588757        4.03997613182206
H           11.17787555382403       -8.04580561658022        3.91564254895230
H           12.32981835067108       -7.69805867832304        5.20765837764960
N            9.26964837292087       -6.27625625135312        5.02790189635414
H            9.08270513802908       -6.06432346577348        4.06053201569606
C           10.41093056445940       -6.86458226600422        5.50483838702767
C            8.44705831974234       -6.05976389908189        6.07881226123549
H            7.48191809981939       -5.60464470106236        5.98909291323931
N            8.99454989296197       -6.47549398190024        7.19452031616509
C           10.21956290099403       -6.97363395535922        6.85404613022060
H           10.87116454430920       -7.37716671108917        7.60090244968052
78
 energy: -116.045476899962 gnorm: 0.021253908821 xtb: 6.7.1 (edcfbbe)
Fe           8.00810576037436       -6.86592058806172        9.09614146408907
N            8.78081318844570       -8.74336427316165        9.11014921334182
N            9.61206355941874       -6.19681677776253       10.18010663791685
N            7.16805482852738       -5.02247016744950        9.20568086323506
N            6.40180355337632       -7.52960543041807        8.06515279716499
C            8.21587869891330       -9.85586327970752        8.57117856966592
C            9.03687852840768      -11.02002736176061        8.84632495262611
C           10.10759093488991      -10.57471467903295        9.56206631336079
C            9.93713040348748       -9.14236727854788        9.70399431424214
C           10.70014931278238       -6.93483351585982       10.53049155017655
C           11.68169229981558       -6.10174960152470       11.17486758884681
C           11.15271856034653       -4.83062724369157       11.23306392385789
C            9.83561926585920       -4.92683014942541       10.61485183584397
C            7.67525964337969       -3.95312299756122        9.87229765217716
C            6.78253693014717       -2.81924585194962        9.77259190183438
C            5.71432734121704       -3.23209132933677        9.01271295717749
C            5.97767651907743       -4.63055220034261        8.68345718728789
C            5.35234223264589       -6.78452403196405        7.62503353658466
C            4.46094277986380       -7.60029319744037        6.82533966320987
C            4.99491564839257       -8.85074954391787        6.80722943434765
C            6.20576382217807       -8.78943973880752        7.59717158457258
C            7.03351536442685       -9.87640956907365        7.85110302297809
H            6.72071283033742      -10.83212684325347        7.45509416810527
C           10.83953912370927       -8.30504989591060       10.33770498113635
H           11.73711446887592       -8.76468748425705       10.72698672011213
C            8.89774444480079       -3.91012392284048       10.52772237074863
H            9.13520797885616       -2.98278132869125       11.02027076425451
C            5.14829382907607       -5.44022017673851        7.92190155179026
H            4.24901964205649       -4.98459699669326        7.53024727374113
C           11.23629755228335      -11.38745515944794       10.09966247074890
H           12.11203421031964      -11.31498607473289        9.45293701655073
H           10.95021265345068      -12.43467649533072       10.16300028001808
H           11.52327782270307      -11.05508320993424       11.09436973879789
C            8.74706441354313      -12.42700350829419        8.44632637141130
H            8.18723724875030      -12.46995207343398        7.51628961266064
H            8.16258376857341      -12.93403448786646        9.21582426111157
H            9.67296104149331      -12.98213087243780        8.31069441004412
C           13.02873216187170       -6.52555959532715       11.65322605549351
H           13.34359431703051       -7.45364585643058       11.18581873382527
H           13.02839437130521       -6.67274221292384       12.73444832539076
H           13.76958687532126       -5.76330300884293       11.42034079260856
C           11.82747577446783       -3.70471363722966       11.82883122132338
H           12.66915118100383       -3.98218942581187       12.46023740479201
C           11.57192616636531       -2.40392728604755       11.68144229894121
H           12.15434205787920       -1.64877005329668       12.18897959018382
H           10.80410326902202       -2.03609124688749       11.02613971335492
C            7.01528242763539       -1.48968140628925       10.40310622152719
H            7.55931692442586       -0.83194867022108        9.72211166973257
H            7.60057618253092       -1.58206508399938       11.31485703946456
H            6.07041105622746       -1.01198899125937       10.65252022506210
C            4.54897668463908       -2.47812690443007        8.62164919327157
H            3.65464377019447       -3.05670430587478        8.41889506361478
C            4.48089713960911       -1.15484786877427        8.48473808992595
H            5.33648169435530       -0.51532351348896        8.61421068571747
H            3.56759543926750       -0.65805488998136        8.20144107349679
C            3.21877811660216       -7.11218412901144        6.15895790825211
H            3.44624973506134       -6.30748286851854        5.45901365261936
H            2.50765738439146       -6.72892656441800        6.89021301068585
H            2.73734963601539       -7.91754930085195        5.60997726427706
C            4.48697781844588      -10.07612253067200        6.12397139457957
H            3.79247088657386       -9.81827998196315        5.32815568279105
H            3.96856094847584      -10.72862406030584        6.82843355413356
H            5.30833052802294      -10.64182898636838        5.68704521925500
O            7.03403233593835       -7.34177999745110       11.02537790244045
H            7.53739718615555       -7.08316183627008       11.80574944640049
H            6.27481356228598       -7.90448136480841       11.19916117471022
C           11.51749864867281       -7.28126642489517        4.62204321661206
H           11.89884160194925       -6.43669746801127        4.05033329048661
H           11.18050201916876       -8.04192529677827        3.91840142146972
H           12.32643834871042       -7.69485764983651        5.21376017266058
N            9.26318103415868       -6.27677815830169        5.04099649886739
H            9.07549205095904       -6.05879535497779        4.07502027873872
C           10.40399866773748       -6.86929864910049        5.51561912139488
C            8.44276363788618       -6.06389898212999        6.09651078497482
H            7.47774266032594       -5.60887745182271        6.01204686034269
N            8.99032046470154       -6.48233606714139        7.20947772377221
C           10.21311039263928       -6.98029194899896        6.86467345981923
H           10.86892463716786       -7.38234363358956        7.60802860722004
78
 energy: -116.047821250728 gnorm: 0.045762625976 xtb: 6.7.1 (edcfbbe)
Fe           8.01530006128715       -6.85989796141215        9.08625557723465
N            8.77038699975592       -8.72996742144050        9.11666661546797
N            9.62022502825074       -6.20046072713219       10.14023036768872
N            7.18400753576550       -5.03615424736844        9.18354769957567
N            6.42255849670752       -7.51974256353922        8.06056760375679
C            8.21096473290129       -9.84163555461214        8.57601600038502
C            9.02981178970281      -11.00292380478962        8.84554211837503
C           10.09941067450675      -10.55905232609616        9.56099160658610
C            9.92941800033530       -9.13052465636654        9.70284818114984
C           10.70810160608491       -6.93165735849175       10.50009116522248
C           11.67635574079703       -6.10331336344841       11.16126036394835
C           11.13648038499980       -4.83643655784340       11.22163417695671
C            9.83641393577275       -4.93647655986812       10.58421299466651
C            7.68597608113184       -3.96967633363613        9.85758303009234
C            6.79862380037638       -2.83887969230720        9.76286537975544
C            5.73597043014188       -3.24834822960529        8.99659879161524
C            5.99644960196331       -4.64045695768873        8.66638101350389
C            5.37467777218693       -6.77564665210817        7.62122820765270
C            4.47645331759765       -7.58739506658938        6.82737100946189
C            5.01015513485053       -8.84217203603616        6.80843416893994
C            6.22291447650358       -8.77924100010217        7.59590654643604
C            7.03426202083316       -9.86755590352326        7.85127518950582
H            6.71513327981168      -10.82130951170689        7.45843729996933
C           10.84289776189931       -8.30182284870033       10.32403208265836
H           11.73365270313954       -8.76669954181174       10.72000104567892
C            8.90271152439475       -3.92156947668323       10.51268783313485
H            9.13562587393390       -2.99964880198686       11.01618233546689
C            5.16112733989496       -5.44106858052877        7.90886299805126
H            4.25579916522267       -4.99613124117962        7.52191179068545
C           11.23189716463783      -11.36326945017933       10.10034903240986
H           12.10943012771927      -11.28215447245305        9.45600432185398
H           10.95242094421662      -12.41278867332395       10.16348408418491
H           11.51252618997388      -11.02607046309620       11.09643489320825
C            8.73568957659524      -12.40628384974174        8.43991376522726
H            8.17842760366557      -12.44278486238597        7.50723266830588
H            8.14480292671475      -12.91142202025826        9.20680273721125
H            9.66096132826046      -12.96375373218116        8.30640256318006
C           13.01896260820920       -6.53061646842491       11.64892174931239
H           13.33239796338088       -7.46032862993874       11.18072455478061
H           13.00991519352053       -6.68127242987088       12.73065435681821
H           13.76578683449451       -5.77041532201240       11.42317270089330
C           11.79955928466331       -3.70800666239518       11.82282888367460
H           12.60756184397611       -4.00252470918931       12.49059457816151
C           11.58572962492417       -2.40241560221153       11.65343419925087
H           12.17218010737037       -1.67162608135320       12.18009098571930
H           10.83366868223569       -2.00283950556761       10.99466724539715
C            7.01505032948142       -1.51508751517011       10.40561654880600
H            7.55780469982090       -0.84642545083214        9.73359556068880
H            7.59346147727965       -1.61127181512973       11.32236699965410
H            6.06015546034555       -1.05156319335982       10.64820408847830
C            4.56640587187305       -2.50435535191355        8.60871285072762
H            3.67756418183915       -3.09736098202002        8.42456311460533
C            4.48674822617449       -1.18286989129971        8.46381104303320
H            5.33333515855111       -0.53010664458366        8.58488956892946
H            3.55937052414392       -0.70069855884061        8.20190295088787
C            3.23302051980205       -7.10159143583030        6.17215996711196
H            3.45986685117616       -6.29540025370532        5.47559565653262
H            2.53114830526209       -6.72453926764763        6.91419291961686
H            2.74825978246759       -7.90610849002432        5.62448620978720
C            4.49355513504450      -10.06143403593306        6.13201701964906
H            3.78897213313121       -9.80071090245758        5.34590862250359
H            3.98312798161577      -10.70852821744142        6.84597871507288
H            5.31241743598851      -10.62158051473472        5.68755870387279
O            6.97229450968692       -7.24221274176410       11.03355305692428
H            7.52967069141153       -7.14425586313017       11.84568171145191
H            6.30756704506221       -7.94581564025105       11.22429608428763
C           11.51034364814955       -7.27611137501550        4.63528398252895