78
 energy: -116.057508268013 gnorm: 0.000055861136 xtb: 6.7.1 (edcfbbe)
Fe           7.95148453781972       -6.93219170098236        9.11475539032356
N            8.68455072793341       -8.80627990023710        9.17541507389363
N            9.55274967374518       -6.28598473242881       10.14956333912078
N            7.18510386199928       -5.09490584343618        9.14628123938131
N            6.36655808311784       -7.59026685246888        8.10432802913159
C            8.14479692515307       -9.91203222430230        8.59751687373089
C            8.96613284725744      -11.07416656205380        8.85150782323045
C           10.01985751799341      -10.64381746345936        9.59667591085409
C            9.83333817798986       -9.22186583208569        9.77939182720511
C           10.60221457782802       -7.03481501331444       10.59011166247123
C           11.59498843509311       -6.20239476531402       11.21423644780107
C           11.14283335285232       -4.91374591093866       11.10815575865800
C            9.84924200624698       -4.99621536792085       10.46080108762346
C            7.74023095254740       -3.98807779926191        9.71213009250759
C            6.86732692866932       -2.84934890378661        9.57562077673339
C            5.76476671263472       -3.29025503480442        8.89340336231545
C            5.98929170712079       -4.70150578764310        8.64275644998179
C            5.30732000486254       -6.85197199606943        7.68331851801399
C            4.37882278355648       -7.66897597887117        6.93173680960578
C            4.90529113427047       -8.92189032012055        6.91125902774965
C            6.14628861639557       -8.85248240210044        7.65274806126977
C            6.96716944860832       -9.94153322443676        7.87446799419754
H            6.66179391734672      -10.88984434138597        7.45962356316649
C           10.72583801971212       -8.40805768261997       10.44986211530472
H           11.60526205245719       -8.87196584254660       10.86988464442484
C            8.98870875170501       -3.92727654352427       10.30475813051758
H            9.31475333173560       -2.97296401005562       10.68737315350458
C            5.11534938952887       -5.50744161129044        7.93657688352519
H            4.21283477186404       -5.05432482679823        7.55529418296932
C           11.17080745735197      -11.41765599689577       10.14259278287562
H           12.11107287449180      -11.04979319560568        9.73068425150087
H           11.07932018168367      -12.47238922727178        9.89544703495773
H           11.21805075055907      -11.32268856327074       11.22778360283142
C            8.65283625525493      -12.44705720454221        8.36419528642987
H            8.60130874010559      -12.46375343577918        7.27538323341181
H            7.69061927720380      -12.78165105033389        8.75270917634998
H            9.41508038091014      -13.15441438103074        8.68169808968347
C           12.87861974526408       -6.68895931955458       11.79317803639245
H           13.51450821128286       -7.11464279374986       11.01586943582821
H           12.69629218243829       -7.46271148481071       12.53956103805495
H           13.41966533681731       -5.87198279886950       12.26382284708717
C           11.82492982619375       -3.71513866637419       11.54988347089240
H           12.38328381508885       -3.81314447369414       12.47500910901777
C           11.84957964565818       -2.55598702603485       10.90196071588166
H           12.38548309220474       -1.70506465706955       11.28894492064748
H           11.35745095626577       -2.42177076994476        9.95364522414353
C            7.12735724604210       -1.49795672251999       10.14366214632858
H            7.77505633369808       -0.91587804213257        9.48569190157186
H            7.61610923757171       -1.57583657881770       11.11351734120498
H            6.19024737804140       -0.95886261162491       10.26713349575566
C            4.57659042821498       -2.56377808992226        8.50435664701062
H            3.65767933487569       -3.13844833627348        8.50305744072683
C            4.53463042902754       -1.28251090599179        8.15280708385055
H            5.42086903556490       -0.67523025239725        8.09198418218997
H            3.60763224760664       -0.80087798147951        7.88887606007324
C            3.10969664796638       -7.16615210180010        6.33367025513452
H            3.30820736118153       -6.35280550353972        5.63510490268214
H            2.44526870336515       -6.78853785102787        7.11110556999365
H            2.59307603073044       -7.95912977957294        5.79849347356875
C            4.36899525318713      -10.16229656166017        6.28278614143240
H            3.43674860967272       -9.95987060323241        5.76122990737739
H            4.17923410953955      -10.92362572953751        7.03978725033166
H            5.08273535967167      -10.56906304629237        5.56599787674540
O            6.98676679940672       -7.41862223971677       11.13998246365157
H            7.62620776438212       -7.00409804872968       11.72932034026409
H            7.14579608836578       -8.36831812032628       11.17170473905366
C           11.70874131889138       -6.56749622911705        5.01433820421182
H           12.09311180999190       -5.57830160259446        4.76590622936514
H           11.50951196419369       -7.09925644864172        4.08399750310762
H           12.47053122920132       -7.10749342438198        5.56774501091926
N            9.34417546297689       -5.83378843955679        5.39100098370946
H            9.23092486456584       -5.39157283458169        4.49363312557265
C           10.47686066648047       -6.46310570316243        5.83664187707777
C            8.41703475483017       -5.91449903055358        6.37193697300631
H            7.42971578563802       -5.50611607740126        6.30133929355905
N            8.89401575255527       -6.55660684667912        7.41076121628581
C           10.17382307207864       -6.90417945273208        7.09278540970152
H           10.78684094368322       -7.44428128484567        7.78372246930910
