78
 energy: -115.972895588180 gnorm: 0.279613336510 xtb: 6.7.1 (edcfbbe)
Fe          14.33400000000000       29.63100000000000        4.94800000000000
N           14.60000000000000       30.98900000000000        6.43800000000000
N           13.63200000000000       28.32700000000000        6.25400000000000
N           14.18600000000000       28.26800000000000        3.44800000000000
N           15.17000000000000       30.92000000000000        3.65200000000000
C           15.08000000000000       32.29000000000000        6.29700000000000
C           14.97200000000000       32.93400000000000        7.59500000000000
C           14.46100000000000       32.06800000000000        8.45900000000000
C           14.28500000000000       30.78800000000000        7.74900000000000
C           13.44200000000000       28.51000000000000        7.62900000000000
C           12.87800000000000       27.33200000000000        8.22800000000000
C           12.71300000000000       26.42100000000000        7.24700000000000
C           13.22300000000000       27.01100000000000        6.02700000000000
C           13.78900000000000       26.95400000000000        3.61000000000000
C           14.00000000000000       26.23800000000000        2.35700000000000
C           14.50100000000000       27.11300000000000        1.47700000000000
C           14.68200000000000       28.41800000000000        2.18400000000000
C           15.46800000000000       30.72000000000000        2.30500000000000
C           16.13100000000000       31.86000000000000        1.75100000000000
C           16.21600000000000       32.79700000000000        2.72900000000000
C           15.63800000000000       32.21700000000000        3.91800000000000
C           15.57200000000000       32.85400000000000        5.15900000000000
H           15.94100000000000       33.87800000000000        5.22200000000000
C           13.74700000000000       29.65400000000000        8.29700000000000
H           13.54500000000000       29.67000000000000        9.36800000000000
C           13.23500000000000       26.44500000000000        4.76700000000000
H           12.74600000000000       25.47600000000000        4.67500000000000
C           15.19800000000000       29.54800000000000        1.60800000000000
H           15.41000000000000       29.52700000000000        0.53900000000000
C           14.09700000000000       32.30500000000000        9.95300000000000
H           14.33100000000000       33.35500000000000       10.23000000000000
H           14.69100000000000       31.62200000000000       10.59700000000000
H           13.01200000000000       32.12500000000000       10.10800000000000
C           15.30500000000000       34.42999999999999        7.77300000000000
H           14.91800000000000       35.00200000000000        6.90300000000000
H           16.40600000000000       34.56500000000000        7.83200000000000
H           14.82500000000000       34.81400000000000        8.69800000000000
C           12.57800000000000       27.17800000000000        9.74100000000000
H           12.00000000000000       28.05800000000000       10.09600000000000
H           13.53100000000000       27.12000000000000       10.30900000000000
H           11.97800000000000       26.25900000000000        9.91300000000000
C           12.22500000000000       24.99100000000000        7.32600000000000
H           11.50100000000000       24.64300000000000        6.57500000000000
C           12.61100000000000       24.08300000000000        8.26200000000000
H           13.33200000000000       24.36000000000000        9.04500000000000
H           12.20600000000000       23.06000000000000        8.24800000000000
C           13.62500000000000       24.78900000000000        2.13200000000000
H           12.74700000000000       24.53100000000000        2.76300000000000
H           14.47600000000000       24.13300000000000        2.41300000000000
H           13.36100000000000       24.63100000000000        1.06500000000000
C           14.99700000000000       26.97100000000000        0.00900000000000
H           15.18900000000000       27.86700000000000       -0.59900000000000
C           15.19500000000000       25.81500000000000       -0.52900000000000
H           15.01500000000000       24.89400000000000        0.04500000000000
H           15.54600000000000       25.73600000000000       -1.56900000000000
C           16.54600000000000       32.02300000000000        0.25500000000000
H           15.64200000000000       31.96800000000000       -0.38900000000000
H           17.24300000000000       31.20700000000000       -0.03200000000000
H           17.03500000000000       33.00900000000000        0.10600000000000
C           16.88800000000000       34.19800000000000        2.68200000000000
H           16.11200000000000       34.97700000000000        2.52300000000000
H           17.61499999999999       34.23800000000000        1.84300000000000
H           17.40700000000000       34.39800000000000        3.64400000000000
O           16.27800000000000       28.70300000000000        5.06300000000000
H           16.23200000000000       27.92500000000000        4.50700000000000
H           16.98500000000000       28.97700000000000        5.52800000000000
C            9.19800000000000       30.69900000000000        2.69200000000000
H            9.09900000000000       31.67100000000000        2.16400000000000
H            8.31800000000000       30.55800000000000        3.35500000000000
H            9.24200000000000       29.88300000000000        1.93900000000000
N           10.64200000000000       31.68100000000000        4.55700000000000
H            9.96400000000000       32.37900000000000        4.78700000000000
C           10.49600000000000       30.70000000000000        3.53900000000000
C           11.83200000000000       31.49900000000000        5.13800000000000
H           12.23900000000000       32.11600000000000        5.93800000000000
N           12.39700000000000       30.44900000000000        4.56100000000000
C           11.58300000000000       29.95200000000000        3.53900000000000
H           11.88300000000000       29.11200000000000        2.92600000000000
78
 energy: -116.027021845672 gnorm: 0.115668570112 xtb: 6.7.1 (edcfbbe)
Fe          14.33314023189092       29.64075380299092        4.94291520622028
N           14.61424217503909       30.98412737903585        6.43942691689298
N           13.62927468064415       28.31492111260315        6.26366478788920
N           14.20468275778890       28.26298041539253        3.45536700324836
N           15.18058918282903       30.93700812409669        3.64197241992270
C           15.07319805779775       32.27635507751484        6.30622400697099
C           14.96459707591499       32.95346994074198        7.58851672796935
C           14.46237593290416       32.06975880408186        8.47460495955579
C           14.26796048768243       30.81428964830251        7.74408054643116
C           13.44185469391211       28.50293873637178        7.62058509308931
C           12.88788073873000       27.31927407221939        8.23313232627788
C           12.72491342853266       26.39879063037529        7.24105106867367
C           13.19508539452911       27.02807899358158        6.01503837669147
C           13.78079116567555       26.96573074921403        3.59606517613196
C           13.98608414520904       26.24794262364781        2.34507219004940
C           14.51796042208281       27.13301713537678        1.45851756723084
C           14.66076018194298       28.41140603231714        2.17968443689391
C           15.46529548575512       30.72754985577424        2.31006349219334
C           16.12008995073625       31.87513125086461        1.73840348830430
C           16.22749851824634       32.80255812881199        2.73228167834907
C           15.64073819338069       32.21178634070535        3.91359081934903
C           15.56609408856382       32.84077080956173        5.15277484737646
H           15.93491747557402       33.85985503116878        5.21637007008013
C           13.74119122027833       29.66453236482182        8.29769397644176
H           13.54503047894649       29.67672956136691        9.36426952143417
C           13.22560550905382       26.44594411930330        4.75777991675589
H           12.77134628082119       25.46303258904762        4.67805417654659
C           15.18858907133425       29.55417813212016        1.61741781714221
H           15.42042675067993       29.53243411673850        0.55889045969032
C           14.10537672635612       32.29895627593208        9.93387503743929
H           14.32947004672640       33.33159534612616       10.22093185494128
H           14.67984754565478       31.62950756822436       10.58264464923199
H           13.03633373403539       32.12127359323403       10.10024461853165
C           15.30027980089103       34.41812056248585        7.77172973967341
H           14.92326699077152       34.99391441624368        6.91991563689277
H           16.38544338029866       34.56089021029923        7.83282877893120
H           14.83893906436935       34.80818346876684        8.68397537400351
C           12.57938772769366       27.18146954631385        9.71505819055942
H           12.01038072996277       28.04414553933415       10.08191950826662
H           13.51122363827059       27.12068647957713       10.29091499402621
H           11.99226851020946       26.27615350721389        9.90021176364441
C           12.23555808109350       24.99984412371605        7.33184364480620
H           11.52127386707367       24.66865559980111        6.57677972739842
C           12.60646962512903       24.10758228790810        8.25361569839935
H           13.32297326688004       24.35758561279361        9.02794793979066
H           12.21501223236447       23.09341564965733        8.24578157051207
C           13.62082995844633       24.80422393281075        2.13689892024194
H           12.75965934846479       24.53177437506594        2.75614171982071
H           14.45694698414727       24.14544241377127        2.40767645845842
H           13.35518077357542       24.62952200566162        1.08988489725909
C           14.98137926387905       26.97118265449862        0.04167810884340
H           15.16872599194175       27.86791908862639       -0.54742204234042
C           15.19456328086441       25.79975593737753       -0.52788957274293
H           15.04143430958121       24.88116539162701        0.01837888850327
H           15.54096247571683       25.72620612588857       -1.55479245703931
C           16.53747965690626       32.01775460145458        0.27947935404253
H           15.65608125454542       31.96723945159298       -0.37086663583357
H           17.22877427364520       31.22061256511656       -0.01796418340377
H           17.02463910424352       32.98404547602470        0.11609423327629
C           16.87594903068307       34.17696909406828        2.68305760741261
H           16.12131763363555       34.95811449721992        2.52756257818146
H           17.59813938814025       34.23215626843185        1.86204545502387
H           17.39869699007176       34.38800981193383        3.62179946350517
O           16.26951073048536       28.69510674004685        5.07416799353945
H           16.25576753177226       27.92037760479684        4.51168433943498
H           17.03168902554565       28.97510924570915        5.54578177673474
C            9.20818515334901       30.70528785337503        2.70321412697671
H            9.10079882212682       31.65781238801715        2.17341278297740
H            8.33225510930628       30.55883097852861        3.34343022776993
H            9.25033535106716       29.89954270154677        1.96445633360947
N           10.62755664514762       31.67753875937564        4.54159765528207
H            9.95379820153605       32.38334733238685        4.77997097491826
C           10.46531702391545       30.71861993224763        3.54397820810874
C           11.82807128364071       31.47156077583093        5.11764631618594
H           12.23141300884078       32.08171822661607        5.91240779050651
N           12.42004865535319       30.44340249299138        4.55216870016360
C           11.58551249148455       29.96762387971361        3.55420601515853
H           11.88226250368452       29.13170203187035        2.94738616457394
78
 energy: -116.043462371783 gnorm: 0.027354573861 xtb: 6.7.1 (edcfbbe)
Fe          14.33193877994854       29.64874375261484        4.93438626321991
N           14.61119450513406       30.98349288638495        6.43573746192688
N           13.60542117877944       28.31408242352698        6.26675167317403
N           14.19974996092517       28.26632276097338        3.45181763112822
N           15.18781444310056       30.95092039758227        3.63401062166455
C           15.06193955575094       32.26243632949411        6.31012166719891
C           14.95392960174558       32.96365547088732        7.57685162349242
C           14.45575928546375       32.06876744392189        8.47536207339957
C           14.25293747066263       30.83121136751955        7.73757597385076
C           13.43970266944000       28.50208693397830        7.60772540035700
C           12.89937854210979       27.31300000603853        8.23043080716440
C           12.73214491939587       26.39222033984047        7.22848038722971
C           13.17861183824528       27.04714988569838        6.00171894808719
C           13.76686878562169       26.97946244896134        3.58373755849771
C           13.96375090530724       26.25794916550869        2.34160701336036
C           14.52133264789282       27.14702037538999        1.44962722290310
C           14.64533617940074       28.40494435694154        2.17524311346253
C           15.45637969187675       30.73416846372344        2.31660481141741
C           16.10833911053795       31.88677852130419        1.73151539774125
C           16.23389429950250       32.80455423962841        2.73518159058693
C           15.64313801997817       32.20333704901967        3.91231871044916
C           15.56081059437813       32.82654789580719        5.14803814984944
H           15.92790986984925       33.84179993279446        5.21254529202427
C           13.73779822332507       29.67087967503437        8.29419992367640
H           13.54190200394051       29.68091886578984        9.35675355773953
C           13.22562755095100       26.44512231945267        4.75172528551174
H           12.80973062249588       25.44651539749311        4.68621842386909
C           15.18482494454887       29.55976844385195        1.62968616726513
H           15.43746990682966       29.54056939156711        0.58012208684646
C           14.11331027447190       32.28998591587897        9.91051675258859
H           14.33420695380527       33.31304241418187       10.20480878280797
H           14.67781245443046       31.62503044037865       10.56106531135877
H           13.05284660359053       32.11066008394046       10.08639863879719
C           15.29629074650208       34.40354116141916        7.76858942933303
H           14.92731001904984       34.99014799762004        6.93004754809958
H           16.37427141579571       34.54794133615953        7.83187447844655
H           14.84866326267720       34.79424756585455        8.67811257836337
C           12.58720882038319       27.17965530573476        9.68574175644569
H           12.02203864990055       28.03682431708385       10.04952428064284
H           13.50531703657354       27.11876352692135       10.27140593248641
H           12.00322457851377       26.28258999954949        9.87419242939913
C           12.24873113280575       25.01970441859856        7.32318949087002
H           11.54411256184194       24.70435223336677        6.56001311455672
C           12.60883729077038       24.13495675833185        8.24279072730924
H           13.32005685830224       24.36514920606992        9.01670412199003
H           12.21443672428179       23.13066527067805        8.24945447698822
C           13.60976358027546       24.82073950325581        2.14122203983685
H           12.76302411455131       24.54050198907493        2.76170818977283
H           14.44497940083796       24.16834526742385        2.40386436863911
H           13.34347819291790       24.63586937561521        1.10421753836821
C           14.96412599197353       26.96201779845404        0.08638877172836
H           15.13866653816567       27.86258698152185       -0.48911596255717
C           15.19609120157313       25.79330867116529       -0.51312692719133
H           15.07068591488927       24.86312251721136        0.00219907917986
H           15.52783070908051       25.73620724845680       -1.53641190904689
C           16.52586446001902       32.01477052729934        0.30367021173450
H           15.65796454327895       31.96228249147512       -0.35310088188735
H           17.21363266866859       31.22245106492021        0.01145577647878
H           17.01656967242966       32.96920351070140        0.13212883127014
C           16.86584603216150       34.15635465263764        2.68424854261008
H           16.11828184532012       34.93565868429621        2.53249770594882
H           17.58289953248023       34.21850183755939        1.86946248126558
H           17.39169079370297       34.37315283901395        3.61095120655654
O           16.26924823392800       28.67983266211866        5.12695696472978
H           16.31576815739495       27.92882776020268        4.52623210378030
H           17.07986636697855       28.97284848435961        5.54838962923249
C            9.22228848935384       30.70850826732208        2.71225169756293
H            9.10479342624376       31.64979488038188        2.17852190045155
H            8.34329945372679       30.56005139964499        3.33684838138471
H            9.26864768435403       29.90504340482077        1.98566565031219
N           10.62284601637451       31.67242644140912        4.53013675642887
H            9.95382090998681       32.38398692212930        4.77618635267746
C           10.45253755221362       30.73634083395462        3.54271682461068
C           11.82905648056333       31.45243225609257        5.10219237184183
H           12.22623025950663       32.05365206194786        5.89636552594134
N           12.43426417765713       30.43558477854858        4.54675490898260
C           11.58714150696393       29.97749432739990        3.57216981064347
H           11.87348460159405       29.14341606708788        2.96682737113529
78
 energy: -116.047620855173 gnorm: 0.036836531430 xtb: 6.7.1 (edcfbbe)
Fe          14.33657901718205       29.65004693019100        4.93242960917430
N           14.60026345388867       30.98473217468047        6.42870274219792
N           13.58950425388625       28.32270989478938        6.25967085061464
N           14.19243827674911       28.27266741437098        3.45257403454773
N           15.18787304208224       30.95044956865723        3.63707227455728
C           15.04998100776379       32.25961481983030        6.30533809874787
C           14.94459379905951       32.96368128339302        7.56655037429191
C           14.44588041921292       32.06703990670307        8.46451511328087
C           14.23626529476676       30.83589960713122        7.72916646497329
C           13.43174653694241       28.50920906309292        7.59561833504726
C           12.90918061525048       27.31420769971939        8.21923545936851
C           12.73965939133153       26.39841798465315        7.21511401061731
C           13.17006980143978       27.06095600212597        5.99005824449354
C           13.75170863741907       26.98956185359161        3.58242686783457
C           13.94499247996498       26.26384178436429        2.35076240583602
C           14.51179799788874       27.14928632490977        1.45768576005261
C           14.63549603383108       28.40592952476906        2.17622091599864
C           15.44582201168428       30.73390853043359        2.32243858768189
C           16.09666790071619       31.88747479717841        1.73548229422362
C           16.23001124222096       32.80059605045508        2.73847270896339
C           15.64138432908767       32.19813207714478        3.91558737916762
C           15.55583653114997       32.82329088796469        5.14607440311672
H           15.92394747612772       33.83636718597027        5.21134501005058
C           13.72448484973610       29.67644915015134        8.28641135478164
H           13.53287029645685       29.68352715860238        9.34916378959948
C           13.22236868564565       26.44742488829841        4.74944876876975
H           12.85040095866047       25.42899279789017        4.69731572857965
C           15.18024929888780       29.56187557377178        1.63653751609719
H           15.45411817245562       29.54239014315509        0.59238864019150
C           14.11552064439435       32.27907097855621        9.89976071343087
H           14.34059797501138       33.30013310725152       10.19755417003923
H           14.68426296349670       31.60749360152527       10.54059736052297
H           13.05614588350235       32.09642814285282       10.08089923233937
C           15.29707990943917       34.39701043453078        7.76656554406250
H           14.93025039981917       34.99686867352856        6.93541370663569
H           16.37684894476594       34.53146429056624        7.82801087585643
H           14.85727321174928       34.78193658584284        8.68298718975337
C           12.59282945596803       27.17721842194850        9.66682765085877
H           12.02549422413943       28.03611430201012       10.02311540413886
H           13.50769384447325       27.11561506289807       10.25737606776248
H           12.00847447103809       26.27863994132144        9.84640030756306
C           12.25533557112832       25.03503380783894        7.30536578319877
H           11.56249924053292       24.72560582580102        6.52992553176288
C           12.60271223104094       24.15683066995213        8.23760415457908
H           13.31975721308678       24.38460637006169        9.00698723252489
H           12.20574813976486       23.15512871903411        8.24907023433837
C           13.58798717777191       24.83183911247215        2.14948491367226
H           12.75065906900345       24.54747040585627        2.78102985710840
H           14.43082925625547       24.18470112946441        2.40008138999433
H           13.31021348313738       24.64760128474182        1.11520921548730
C           14.94629839941838       26.95210623528749        0.10153285178079
H           15.10612620466381       27.85926295198863       -0.46779870171320
C           15.19661803115641       25.79053118052375       -0.50846321561989
H           15.12247778065909       24.84492762806023       -0.00158549803291
H           15.52265696138611       25.75148104802826       -1.53348856527153
C           16.51730989380101       32.00817336377030        0.31350328229706
H           15.65251911434424       31.95270597495534       -0.34742003446164
H           17.20450584541926       31.21021112600860        0.03488789461238
H           17.01253370205962       32.96011614135637        0.14031413621669
C           16.85970757330811       34.14855707541184        2.68585033215965
H           16.10825276590698       34.92525414564878        2.53933616608091
H           17.57137642126964       34.21029765768868        1.86617591138909
H           17.39127824711934       34.36418015869001        3.60980339560899
O           16.27402454674169       28.64223992161871        5.23073721680834
H           16.39916324861579       27.96417934685701        4.52802571044136
H           17.13072964405321       28.99831852442150        5.54411811059295
C            9.22905969339371       30.70729478321928        2.71573210374985
H            9.10579340226161       31.64611513264952        2.17683194147885
H            8.34642088182898       30.55555304406476        3.33596782502566
H            9.28743607054144       29.89981418024054        1.99458733105166
N           10.63295806649893       31.67366394850790        4.53208506856932
H            9.96835197608454       32.38849502539570        4.78238708518689
C           10.45596327826950       30.74026305021253        3.54675749835976
C           11.83907617713715       31.44610686840259        5.10151656624450
H           12.23435427646003       32.03838996986314        5.90036552520320
N           12.44298845731197       30.43081846719155        4.53978024324661
C           11.59194520210553       29.97914411067321        3.57175410665351
H           11.86466901717552       29.14330699321955        2.96363143385343
78
 energy: -116.049944847263 gnorm: 0.020541206797 xtb: 6.7.1 (edcfbbe)
Fe          14.34230667216676       29.65127575647186        4.93230733301514
N           14.58577985314532       30.98719065792344        6.41941201480629
N           13.57374375342877       28.33760217982405        6.24736391780013
N           14.19519560852574       28.27837863170386        3.45741094699113
N           15.19110285805897       30.94383870656590        3.64497400714860
C           15.03739261898343       32.26061882835804        6.29845113017445
C           14.93366240035581       32.96272626853273        7.55702896787773
C           14.43318061179317       32.06622499406473        8.45121326138195
C           14.21872294602765       30.83858984582458        7.71941666056280
C           13.42392867773740       28.51875693011570        7.58268850341964
C           12.91868776881845       27.31795228082660        8.20479430864705
C           12.74922353220028       26.40763481325193        7.20000528973111
C           13.16751413160370       27.07432791384829        5.97856581328296
C           13.74382408360180       26.99812519781615        3.58480081158411
C           13.92774628369770       26.27015750668224        2.36037964248576
C           14.50047522417057       27.14940628318439        1.46771439841634
C           14.63387641586073       28.40670329580114        2.17935010773826
C           15.43959728890671       30.73001587636573        2.32875751122740
C           16.08428621634379       31.88573630573874        1.74091764166934
C           16.22274328132813       32.79584857470167        2.74107129991760
C           15.64007950618723       32.19388242656321        3.92018296419993
C           15.55112041269186       32.82422818066878        5.14482684460968
H           15.91852811229687       33.83651275439336        5.21018590134028
C           13.70936461876506       29.68219630543640        8.27727929203937
H           13.52070782458207       29.68653908227875        9.34058058966332
C           13.22654303493570       26.44912322604599        4.74900060083971
H           12.89074836066880       25.41810997076872        4.70779053040621
C           15.18168276328885       29.56055664529213        1.64187471500114
H           15.46886970339045       29.54249123279928        0.60132211052585
C           14.11633475557934       32.26615286950844        9.89268111330266
H           14.34667917192451       33.28508846173609       10.19662584695896
H           14.69409319655455       31.58479231345308       10.51760997439937
H           13.05787026397784       32.07931423021366       10.08090009537637
C           15.29979075889363       34.39235955562604        7.76617655582962
H           14.93305739377697       35.00615103908770        6.94311110233607
H           16.38290852743504       34.51309882901516        7.82213452613367
H           14.86911173348197       34.77020044458017        8.69170382032518
C           12.59861319332553       27.17449019038075        9.64977462983998
H           12.02825005817795       28.03457703294974       10.00109038849846
H           13.51151332031447       27.11087472922583       10.24423226125913
H           12.01343162393195       26.27294602282876        9.81796140759518
C           12.26519043464937       25.04719378266622        7.28208610533373
H           11.58286968108735       24.74172227580509        6.49584103467290
C           12.60067690730675       24.17592225020995        8.22796430470862
H           13.31026355594004       24.41317501033032        9.00238719338661
H           12.19445997974103       23.17802932606315        8.24842538602109
C           13.56343874109557       24.84304450402577        2.15423777625530
H           12.73440161911994       24.55506040099164        2.79774163685790
H           14.41246272272010       24.19716670678488        2.39037434837184
H           13.27447590514148       24.66575334732308        1.12033919428558
C           14.93196330794957       26.94277275159323        0.10954360545521
H           15.05769155755546       27.85422536506491       -0.46473419039299
C           15.20739321304321       25.78775703873940       -0.49784352652704
H           15.16111017401134       24.83205631477671       -0.00048029719775
H           15.51397726037836       25.76301242654046       -1.53064609386355
C           16.50724149786672       31.99891797845433        0.31838107654562
H           15.64366590092430       31.93900619684283       -0.34503995321969
H           17.19471143750313       31.19467669373535        0.05375177627133
H           17.00568586470397       32.94978665510641        0.14305802350495
C           16.85123568984146       34.14519003238903        2.68686677807957
H           16.09406227261333       34.91926605744975        2.54906887914374
H           17.55513435511763       34.20711584827063        1.85903709579876
H           17.39110641210269       34.35745034418620        3.60815658547195
O           16.31492225306787       28.65659923926451        5.26845520131534
H           16.44783855937584       27.96962797100437        4.61176481161077
H           17.16871098487295       29.01364533729252        5.55722211485989
C            9.23510362068433       30.70338929809036        2.71927083732663