87
 energy: -128.342651706608 gnorm: 0.240262906991 xtb: 6.7.1 (edcfbbe)
Fe          14.99400000000000       54.74300000000000       19.18600000000000
N           13.56100000000000       56.07800000000000       18.63400000000000
N           14.68800000000000       53.71599999999999       17.44300000000000
N           16.39000000000000       53.44500000000000       19.71000000000000
N           15.39100000000000       55.89500000000000       20.85500000000000
C           13.18800000000000       57.21900000000000       19.30400000000000
C           12.16000000000000       57.89700000000000       18.54000000000000
C           11.92100000000000       57.17899999999999       17.43200000000000
C           12.80800000000000       56.03100000000000       17.45700000000000
C           13.64500000000000       53.92199999999999       16.56000000000000
C           13.51200000000000       52.73700000000000       15.73500000000000
C           14.45300000000000       51.85800000000000       16.10400000000000
C           15.19800000000000       52.46200000000000       17.20000000000000
C           16.83900000000000       52.37800000000000       18.96400000000000
C           17.97600000000000       51.77000000000000       19.61000000000000
C           18.20900000000000       52.48400000000000       20.72800000000000
C           17.21700000000000       53.52900000000000       20.80200000000000
C           16.21700000000000       55.45300000000000       21.88100000000000
C           15.94700000000000       56.25299999999999       23.05400000000000
C           14.88800000000000       57.24600000000000       22.65700000000000
C           14.59700000000000       56.96099999999999       21.26200000000000
C           13.67900000000000       57.65199999999999       20.52199999999999
H           13.31200000000000       58.60000000000000       20.91500000000000
C           12.87400000000000       55.04999999999999       16.48800000000000
H           12.26400000000000       55.18500000000000       15.59500000000000
C           16.27200000000000       51.89700000000000       17.81500000000000
H           16.70800000000000       51.00599999999999       17.36400000000000
C           17.12400000000000       54.43800000000000       21.81600000000000
H           17.83200000000000       54.34499999999999       22.64000000000000
C           10.90900000000000       57.50800000000000       16.30000000000000
H           11.46200000000000       57.79299999999999       15.37900000000000
H           10.26300000000000       58.35699999999999       16.60900000000000
H           10.28400000000000       56.61499999999999       16.08400000000000
C           11.46400000000000       59.20700000000000       18.96500000000000
H           12.16400000000000       59.81800000000000       19.57400000000000
H           10.56500000000000       58.97400000000000       19.57400000000000
H           11.17200000000000       59.78600000000000       18.06300000000000
C           12.45700000000000       52.54800000000000       14.62800000000000
H           12.78700000000000       53.07500000000000       13.70700000000000
H           11.48600000000000       52.97400000000000       14.95800000000000
H           12.34000000000000       51.46700000000000       14.40200000000000
C           14.69600000000000       50.43400000000000       15.57100000000000
H           14.94000000000000       50.22399999999999       14.52100000000000
C           14.59400000000000       49.43899999999999       16.46800000000000
H           14.34900000000000       49.65700000000000       17.51800000000000
H           14.75400000000000       48.39400000000000       16.16300000000000
C           18.76200000000000       50.55700000000000       19.06300000000000
H           18.87600000000000       50.65500000000000       17.96200000000000
H           18.20900000000000       49.62000000000000       19.28600000000000
H           19.77100000000000       50.52300000000000       19.52800000000000
C           19.29700000000000       52.27000000000000       21.80500000000000
H           19.88100000000000       53.11300000000000       22.20300000000000
C           19.53400000000000       51.03500000000000       22.26300000000000
H           18.96200000000000       50.17799999999999       21.87900000000000
H           20.30400000000000       50.86200000000000       23.02900000000000
C           16.57800000000000       56.12500000000000       24.44100000000000
H           17.64000000000000       56.44800000000000       24.39600000000000
H           16.53700000000000       55.06600000000000       24.77600000000000
H           16.03500000000000       56.77300000000000       25.16200000000000
C           14.25800000000000       58.32900000000000       23.55100000000000
H           14.85000000000000       59.26599999999999       23.47200000000000
H           14.25900000000000       57.99000000000000       24.60900000000000
H           13.21700000000000       58.53200000000000       23.21900000000000
C           21.34600000000000       58.21500000000000       16.00900000000000
H           21.56900000000000       59.22600000000000       16.41200000000000
H           21.73200000000000       58.14800000000000       14.96900000000000
H           21.84300000000000       57.45500000000000       16.64800000000000
N           18.99400000000000       58.79299999999999       15.31400000000000
H           19.26600000000000       59.57500000000000       14.75300000000000
C           19.86800000000000       57.99100000000000       16.01500000000000
C           17.76000000000000       58.36400000000000       15.50300000000000
H           16.87400000000000       58.82000000000000       15.06400000000000
N           17.80100000000000       57.31200000000000       16.29900000000000
C           19.10800000000000       57.05399999999999       16.63100000000000
H           19.37400000000000       56.22599999999999       17.27600000000000
C           12.09700000000000       52.22999999999999       23.28000000000000
H           12.25600000000000       51.13600000000000       23.38500000000000
H           11.01300000000000       52.44799999999999       23.38500000000000
H           12.66900000000000       52.75500000000000       24.07500000000000
N           12.05300000000000       52.18700000000000       20.74800000000000
H           11.32400000000000       51.50500000000000       20.68700000000000
C           12.57500000000000       52.67800000000000       21.93300000000000
C           12.67000000000000       52.76199999999999       19.73100000000000
H           12.43700000000000       52.57500000000000       18.68300000000000
N           13.59300000000000       53.58000000000000       20.20500000000000
C           13.54900000000000       53.55100000000000       21.58100000000000
H           14.21800000000000       54.15699999999999       22.17900000000000
87
 energy: -128.397083586614 gnorm: 0.097545542870 xtb: 6.7.1 (edcfbbe)
Fe          14.99101580443302       54.74749138339659       19.17577142710739
N           13.56824624021129       56.08448772147030       18.62040780822527
N           14.66035057359769       53.69228852915830       17.46445405017140
N           16.41629096990977       53.46296627561328       19.69465644703951
N           15.37012120827502       55.87480494189330       20.85157349681680
C           13.19138582283159       57.21626108111626       19.29398433926328
C           12.15914581679782       57.91048033064398       18.54214944722698
C           11.92178346475532       57.18671861604481       17.42137304577225
C           12.81455422952934       56.04217922348888       17.46264157824774
C           13.65074517207348       53.90749365188589       16.56141732549672
C           13.51311019562533       52.74150933668203       15.70813891455714
C           14.46236322593876       51.84929382170571       16.08515584075259
C           15.18824907024677       52.46261111130715       17.18573475809015
C           16.85199933982737       52.38131423653591       18.97215959541447
C           17.99231845249166       51.76647151184887       19.61685002729165
C           18.22892300011962       52.48630224147808       20.74683840187638
C           17.23082233965643       53.53957143923149       20.79402999194226
C           16.18595665057618       55.48357821889422       21.88788159215898
C           15.92012139664784       56.29336490570895       23.05182147143062
C           14.92371176614990       57.22765780164917       22.66949953543563
C           14.61823866573013       56.94040619641559       21.28362126517004
C           13.68699050819101       57.63343858314103       20.52203737101297
H           13.30976844732213       58.57078541558572       20.91964346119406
C           12.87472098863890       55.05115360752189       16.49701278142996
H           12.25366586705220       55.17861560318973       15.61563931079859
C           16.27364138950808       51.89702627524231       17.81589667471043
H           16.69800950941413       51.00305008219000       17.37383458662292
C           17.11416560816628       54.45400106625758       21.82070672288027
H           17.81250450243268       54.35097830799596       22.64518042340861
C           10.92774340470456       57.49933864955833       16.31397240701884
H           11.45744073444363       57.78342191867925       15.39674857323584
H           10.27980754907290       58.33178243809537       16.60682409411634
H           10.29962581896954       56.62933147799843       16.09295608725931
C           11.47607973014583       59.19481802847508       18.96381833408320
H           12.15292268699045       59.81011162178016       19.56378885171927
H           10.58291058580017       58.97680599007879       19.56188954762156
H           11.17748538824473       59.77279725536396       18.08320549205686
C           12.46628183177482       52.55459595591856       14.63392125537602
H           12.77936423471965       53.07000252081717       13.71872973003825
H           11.50265612425204       52.96581907708939       14.95256365585578
H           12.34459914026922       51.48971393483563       14.40893680972563
C           14.68900051603810       50.45040779706187       15.59949981091862
H           14.92413064280517       50.25892646179182       14.55299817249366
C           14.59655235957424       49.44670705258326       16.46582410779088
H           14.35462174055976       49.64178539902741       17.50432209709065
H           14.75181968563996       48.41354499717652       16.16738923779753
C           18.75342669368903       50.57564779053919       19.06950255375632
H           18.87193773047515       50.65803773151330       17.98310221516142
H           18.21722670866808       49.64274025838782       19.28369417475884
H           19.74790774301803       50.52547725746597       19.52481946350766
C           19.27800414345036       52.25749893838510       21.78937095456890
H           19.84359627826039       53.10586261371470       22.17495371557011
C           19.53095608443327       51.03927424750064       22.25461048241723
H           18.97303110850419       50.18382815430130       21.89424983389786
H           20.28926642507841       50.86489890045709       23.01269234008786
C           16.56184659179774       56.13624073310133       24.41212902179474
H           17.61603601684853       56.44430737637338       24.38930196281030
H           16.53114026959554       55.09316079650063       24.75772530057803
H           16.04505126791442       56.76077366300583       25.14754490583269
C           14.28186388755227       58.29951086684773       23.53178622697435
H           14.84493952604999       59.24109285741972       23.46929138425421
H           14.26215358850471       57.99204817890401       24.58360333734860
H           13.25035523776869       58.51083374212587       23.22040037099708
C           21.34531876461902       58.21942222076625       16.00730726313756
H           21.57768926386908       59.21486326575243       16.40498575299951
H           21.73856379107016       58.15004975072373       14.98585979081914
H           21.83525382133394       57.46866653071024       16.63323058040952
N           19.00971649904119       58.79769351529177       15.31283590318867
H           19.27973886027797       59.58471816739017       14.74841060824217
C           19.87418980901316       57.99424715479032       16.01189809434197
C           17.76206021470285       58.34570074708432       15.51700939207008
H           16.88544894751756       58.79799950071551       15.08212828861830
N           17.77892040638599       57.29812266059282       16.30484544560003
C           19.08785839262544       57.06241626272838       16.62332294953599
H           19.35634747350738       56.24187426703612       17.26423943166529
C           12.09463772472892       52.22462042904663       23.27570412262978
H           12.24869123287371       51.14605182448477       23.39248593053058
H           11.02696764036692       52.44177121585331       23.39280952029977
H           12.65498424401588       52.74547436282619       24.05712760540542
N           12.04426236259164       52.18411096762938       20.76201122565955
H           11.31171519757165       51.49926149793148       20.69632366973532
C           12.57121994808728       52.66796982005749       21.93675168783956
C           12.68148859054761       52.77050715438007       19.73934749179670
H           12.45302677709397       52.58398141471795       18.70169796198778
N           13.59838338241274       53.59847229641988       20.19601135381236
C           13.54385323848984       53.54465665068417       21.56688900445354
H           14.20396171549279       54.14390212221868       22.16648872516195
87
 energy: -128.410830127930 gnorm: 0.028416227188 xtb: 6.7.1 (edcfbbe)
Fe          14.97776568397069       54.74629515488892       19.17571890109431
N           13.58266704793922       56.09021184930111       18.60636299444907
N           14.64065840029072       53.68060551344274       17.48570279591927
N           16.44249305783257       53.48628876544504       19.67877601432171
N           15.35082687961766       55.85504902034685       20.84816675220849
C           13.20279788689993       57.21193428032174       19.28422185489393
C           12.16989376402686       57.91791039198893       18.54340280579219
C           11.93335533585116       57.19088568652668       17.41570995744021
C           12.82853543817345       56.04978052520088       17.46729962066692
C           13.65207336418345       53.89782375396638       16.57270884864131
C           13.51751580287178       52.75197629033867       15.69507889464384
C           14.46827874123104       51.85078069181857       16.08358411245533
C           15.17427956320217       52.46501516775064       17.19173544048390
C           16.86569256952311       52.39632206426646       18.97263944237184
C           17.99694181575057       51.76982918822801       19.62168464758750
C           18.23585121169684       52.49319650286058       20.75884285635434
C           17.24571527802741       53.56060160681218       20.78031169363634
C           16.16316211017575       55.49581754195765       21.88461769154550
C           15.90231292132491       56.32280820765263       23.04091349476601
C           14.95119512518688       57.21246810422883       22.67275720535497
C           14.62536158941959       56.91864584918888       21.29259533976076
C           13.69029863506309       57.60913186678760       20.52175249115288
H           13.29734286554423       58.53078017534099       20.93136499191479
C           12.87162966930319       55.04680860443711       16.51173596946140
H           12.23367880841164       55.16228424985821       15.64468820535070
C           16.26959970774922       51.90227493663448       17.82403158989940
H           16.67839875341356       51.00010189910392       17.39123311172840
C           17.10463201253693       54.46809447661724       21.81885517061364
H           17.78464899502005       54.35484977148013       22.65283212147239
C           10.95139639642143       57.48897305315509       16.32831101023047
H           11.46704685889107       57.76949306820844       15.40968248890656
H           10.30094713935619       58.31218145853736       16.61490327273939
H           10.32387557129610       56.62652963353095       16.11026635618994
C           11.49269815224442       59.18175966904854       18.96375145687397
H           12.15590638496711       59.80125897579427       19.56034458116487
H           10.60230012626835       58.96816354325390       19.55702418874690
H           11.18549560203004       59.75795408139494       18.09361321825724
C           12.48134803611227       52.56628116453455       14.63741249619672
H           12.77545274687764       53.07562484345556       13.72005324332341
H           11.52039600872067       52.96644143753054       14.95388134824725
H           12.35768223128696       51.50830198509601       14.41512298908520
C           14.68359160318881       50.47892276274209       15.62676913352536
H           14.89955863092809       50.30938342138684       14.57680480631452
C           14.60140523323191       49.45565382191892       16.46593719095944
H           14.36582485055912       49.62235303490763       17.50392814619791
H           14.75250900485302       48.43286674979538       16.16151419657894
C           18.74482356767109       50.59617865538497       19.08124970256821
H           18.86419053190532       50.67529757893954       18.00211932205400
H           18.21580604363083       49.66479049499280       19.28806793348692
H           19.73165196698683       50.53434544411028       19.53431208101703
C           19.25015104558436       52.25256935917339       21.77249224293663
H           19.79508093031601       53.11109858487649       22.14961137347934
C           19.52595775707648       51.04324646066389       22.24563494697529
H           18.98126149557897       50.17970056336618       21.90685125189128
H           20.28273707727086       50.87322929175110       22.99401202632330
C           16.54859556466815       56.15080015491642       24.38178507836118
H           17.59823384134392       56.44906646610276       24.35918345648470
H           16.51444033641978       55.11158756785530       24.71502253066622
H           16.04568634813037       56.76137818626000       25.12850699476653
C           14.30595973964297       58.27415442337256       23.51269271856418
H           14.85751199952189       59.21502272680031       23.45104748239592
H           14.27910352927230       57.97745577689361       24.56042324445885
H           13.28131445037651       58.47306430629870       23.19955043949967
C           21.34434968988725       58.21937158892691       16.00818394661300
H           21.58194703893448       59.20763121877580       16.40140804196242
H           21.74203051512625       58.15013225173421       14.99600237291224
H           21.83107191344169       57.47286167985489       16.62676549982369
N           19.01658542946285       58.80187778604058       15.31143043084155
H           19.28311295373571       59.59136451098178       14.74565562372042
C           19.87634053657758       57.99537591351596       16.01072217599645
C           17.76271069623324       58.33291609553227       15.52640013561452
H           16.89042918415437       58.78144582923046       15.09519000749219
N           17.76848044399409       57.29237759254893       16.30762483465149
C           19.07470644651760       57.06813322503077       16.61828865500368
H           19.34759288922694       56.25293741363537       17.25764438285718
C           12.09187900054239       52.21814890656768       23.27434000095194
H           12.24162016521424       51.14720358895804       23.39919309030517
H           11.03241701467253       52.43570444820849       23.39706572322408
H           12.64735300416319       52.73985176510818       24.04618576206209
N           12.03552989188539       52.18069822303683       20.76927137179047
H           11.30087367400441       51.49587530824163       20.69669499262452
C           12.56567230670264       52.65743733051801       21.93896230693050
C           12.68623562250500       52.77776228832501       19.74673539663036
H           12.46433099289350       52.59229159527427       18.71509372554191
N           13.60116203315094       53.60520625469223       20.19586354893976
C           13.53541334474915       53.53765417304682       21.56112751241869
H           14.18961137535688       54.12604012937282       22.16894249564327
87
 energy: -128.413740160269 gnorm: 0.012625009889 xtb: 6.7.1 (edcfbbe)
Fe          14.97209499095246       54.74772272361841       19.17889860730084
N           13.59619856714750       56.09104044051176       18.60076536798930
N           14.62658648104671       53.68059277210646       17.50395611683454
N           16.45691288486125       53.50739932461853       19.66746178247477
N           15.34126453666821       55.84361634224768       20.84555669548199
C           13.21301248289907       57.20878091149650       19.27870709712149
C           12.18655385158218       57.91922737330836       18.54053261769695
C           11.94981154892287       57.19241460164471       17.41420408365523
C           12.83894692665861       56.05098415196476       17.46821829071577
C           13.64573141295107       53.89841182085257       16.58484230450260
C           13.51929337542819       52.76308698532976       15.69892507774064
C           14.46363459733268       51.85918312971916       16.09711890772475
C           15.16229179751419       52.46822971993512       17.20881865088820
C           16.87059368454233       52.41142695506529       18.96846722199888
C           17.99296445634305       51.77974420915354       19.62044951160208
C           18.23153847054194       52.50131783818736       20.75783276244775
C           17.25360221418930       53.57624160235346       20.77010827661122
C           16.16162012502294       55.49051954140528       21.87562934684776
C           15.91079736022757       56.32222803792282       23.03070992591053
C           14.95073309366235       57.21400032924971       22.66044338504284
C           14.61701428503546       56.90729833877074       21.28592605067805
C           13.68360988876889       57.59478010347024       20.52183374861999
H           13.26947302583070       58.49923015594196       20.94756972915963
C           12.86309446411313       55.04236865904089       16.52183238497846
H           12.20257186772797       55.14330809922782       15.67016691183396
C           16.26095484835534       51.90673580377706       17.83368844303773
H           16.65399323815534       50.99227343516990       17.41147624535270
C           17.10415618769070       54.47207572888649       21.81486028585603
H           17.76613597479958       54.35059946037140       22.66186888315201
C           10.96809535789825       57.47910993812746       16.32976793411518
H           11.48168364740570       57.75296572645131       15.40768025824892
H           10.31627523880479       58.30102444055112       16.61599327373028
H           10.34529790885155       56.61012185498643       16.12348250036433
C           11.50897856577414       59.17771480162941       18.96699880034911
H           12.17146466895183       59.79914563363512       19.56319409306435
H           10.62182641831893       58.95661659760663       19.56293890207995
H           11.19457970082893       59.75328901749629       18.09875210274805
C           12.49122353843849       52.58130451429309       14.63519972127379
H           12.78144280505228       53.09472143777025       13.71823876859787
H           11.52808607110217       52.97617139475127       14.95321577060102
H           12.37299525090069       51.52302031321591       14.41084874325154
C           14.67519967165447       50.49462842868274       15.63752901309688
H           14.86875299546193       50.34337240689661       14.58055640010892
C           14.61200071281548       49.45782278486302       16.46349019250529
H           14.39382755884508       49.60314932034350       17.51025546713374
H           14.75983301827828       48.44133789418840       16.13962786503253
C           18.73846806278784       50.60632238337904       19.08804151992625
H           18.86316833237843       50.68948477643655       18.00976984541828
H           18.20381559416610       49.67763784278335       19.29244186307423
H           19.72113778441435       50.54255320297256       19.55072014714512
C           19.23547077251495       52.25647468111681       21.77313132925091
H           19.76094080777937       53.12424630309721       22.15559086360458
C           19.52861816963646       51.04860657118380       22.24197729365795
H           18.99179684122216       50.17610549289472       21.91034788449917
H           20.28989095020921       50.88738223577248       22.98629143941952
C           16.55823045074161       56.15439302571974       24.36435046813063
H           17.60580852218710       56.45326518929341       24.33088943181680
H           16.51580107881375       55.11333269241982       24.68535532501294
H           16.05589486789091       56.76502285719224       25.11115520541006
C           14.31262093076624       58.27253358510181       23.49636919068923
H           14.86642225046838       59.20981943697103       23.42562390628624
H           14.29465920335764       57.97282234330110       24.54279300252317
H           13.28844633377188       58.45602714453545       23.17919196549356
C           21.34224029106957       58.21717545245900       16.00956424427712
H           21.58424125470028       59.20485870855289       16.40264973106386
H           21.74356429084325       58.14738885252613       14.99838067323685
H           21.82759900441025       57.46914104158664       16.62776677142045
N           19.01351686282101       58.80220375098012       15.31194109424934
H           19.27900356490890       59.59226613605304       14.74642705865761
C           19.87356893186842       57.99461704575698       16.01182369325289
C           17.75932811344326       58.32920640447573       15.52938466061103
H           16.88554564468458       58.77520930961295       15.09985069030522
N           17.76590405508116       57.28991382428327       16.30945361358804
C           19.07132885452773       57.06800541174947       16.61948109231368
H           19.34661167781175       56.25474371350123       17.25947710771888
C           12.08428841087971       52.20815030544798       23.27434078588036
H           12.23174186649709       51.13709006910217       23.40424482371607
H           11.02522090985672       52.42746203178429       23.40042144748609
H           12.64158308737899       52.73188532698855       24.04375902002444
N           12.02862902704566       52.17903497773761       20.76674872432573
H           11.29156916337548       51.49715760704916       20.68796311740289
C           12.55903588511865       52.64764863553905       21.93922923153761
C           12.68500716393601       52.78202415908236       19.74905083653711
H           12.46882903036867       52.59995574576735       18.71635877545800
N           13.60000727812910       53.60649810875103       20.20284138221712
C           13.53045492196304       53.52825563687983       21.56701329894618
H           14.18223998781950       54.10772287932417       22.18514892485706
87
 energy: -128.415500179842 gnorm: 0.010041316799 xtb: 6.7.1 (edcfbbe)
Fe          14.96781419785235       54.75142106514506       19.18040631526612
N           13.60631411704737       56.08582988014535       18.60103770685008
N           14.61173875388652       53.68411508325642       17.52575619067288
N           16.46262781873330       53.52574951305025       19.66169521485101
N           15.33284720687386       55.83104036973085       20.83509639309829
C           13.22141779685811       57.20326924682214       19.27615355845470
C           12.20434523351202       57.91963551600448       18.53843336042086
C           11.96661778266149       57.19338823039228       17.41368215400343
C           12.84770893370503       56.05010535361526       17.47121074949284
C           13.63758438914135       53.90085759723131       16.59952078923101
C           13.51987860310799       52.77525857106573       15.70718983919481
C           14.45467664076635       51.86672528806242       16.11680624345414
C           15.14440845243330       52.47032540122555       17.23404117030315
C           16.86986394648343       52.42520628812032       18.96811174219571
C           17.98368341911322       51.78882553413418       19.62208391341271
C           18.22299442077101       52.50933152122361       20.75932212515200
C           17.25629947805838       53.58938501191076       20.76345872537926
C           16.15922368400606       55.48468159253441       21.86101943637811
C           15.91982885605893       56.32352005133703       23.01230925714693
C           14.95160757199710       57.21073091600013       22.64494978141251
C           14.60809553192474       56.89279490346944       21.27717004039733
C           13.67085938847895       57.57657341242665       20.52719596284338
H           13.23485896849918       58.46191416435944       20.96924374075354
C           12.84930639263071       55.03612051400167       16.53433788016757
H           12.16814691929836       55.12334534038207       15.69901833354440
C           16.24475399646768       51.90790048494360       17.85013917413134
H           16.62236261398797       50.98276933211026       17.43801923002344
C           17.10066177547750       54.47431560552645       21.81277920563146
H           17.74593238442321       54.34875178803915       22.67089269144168
C           10.98616789658876       57.46856268405566       16.32655522564837
H           11.49868700501812       57.72997476433056       15.39981592086564