72
 energy: -105.980077110608 gnorm: 0.000080237215 xtb: 6.7.1 (edcfbbe)
Fe         -11.82654697201909      -22.44515777607899      -29.28587011505366
N          -11.75641948333953      -22.52597164672872      -27.30014964444321
N          -10.02903929251967      -23.32582603858102      -29.39544387983880
N          -11.88348628523200      -22.32391545313577      -31.29776476664939
N          -13.56828708160881      -21.47060267869135      -29.18866987658137
C          -12.65888282318406      -22.01163920223188      -26.42710362947754
C          -12.27945062997188      -22.30978510902522      -25.06271572289667
C          -11.12327034220411      -23.01990296639927      -25.13577531730706
C          -10.80532313734037      -23.13269882115346      -26.54372043190590
C           -9.29932248488509      -23.81303629045497      -28.35604299139242
C           -8.07036885402788      -24.40120875131670      -28.82349517915597
C           -8.06946241240102      -24.25985967062489      -30.18547683883170
C           -9.31069061097964      -23.58904975974505      -30.51869053225792
C          -10.92874601781371      -22.75763683242704      -32.16709213092332
C          -11.35960644042686      -22.57447028572887      -33.52630152184028
C          -12.62516912691381      -22.05400511101947      -33.46626031409519
C          -12.92012347806125      -21.88226330578313      -32.05956006901077
C          -14.31960992808748      -21.02944196354429      -30.23338800129852
C          -15.47715535557126      -20.30373912790273      -29.75931467566655
C          -15.40415999716213      -20.31414018225922      -28.40154224736824
C          -14.20502605771052      -21.04847742613248      -28.06463758308614
C          -13.79424539503944      -21.30311707436623      -26.77031949383683
H          -14.40787836039079      -20.92322639165684      -25.96845636614336
C           -9.66739954002336      -23.74738316781413      -27.02416181578257
H           -9.00327548339876      -24.19556906774356      -26.30175219338809
C           -9.71661505707027      -23.32177906548524      -31.81115974699944
H           -9.05523406845949      -23.61146687476116      -32.61255932407737
C          -14.04373379441111      -21.24117860581171      -31.57069616627682
H          -14.74117011368563      -20.84750400228698      -32.29257712669551
C          -10.29011556816699      -23.58650603948476      -24.03850261341674
H          -10.75286332744119      -23.40897645544124      -23.07093422284327
H           -9.30072757619140      -23.12854788347713      -24.03415622879287
H          -10.16473313242098      -24.66165120529143      -24.16769413693788
C          -13.05769294810064      -21.88869687949601      -23.86427777322580
H          -14.06793202233688      -22.29755382019940      -23.89835144209064
H          -13.13364248805575      -20.80217591619597      -23.82163866065609
H          -12.57880100637680      -22.23398173427800      -22.95149655664152
C           -7.00579041274902      -24.96680119378548      -27.95086161940367
H           -7.24409798115146      -25.99212527290440      -27.66398046875499
H           -6.89941192217958      -24.37794298835727      -27.04112218885715
H           -6.05378438195201      -24.96977918858301      -28.47772465399658
C           -7.06292320631883      -24.65150385179533      -31.14773318494081
H           -6.95816156735779      -23.99951032692270      -32.00748131590374
C           -6.28768299362966      -25.72669506946895      -31.05599256066549
H           -6.38266448367194      -26.43387447965594      -30.25079142110551
H           -5.54665947368052      -25.95190500150398      -31.80483016013011
C          -10.57118250111768      -22.95499297958986      -34.73042687040422
H           -9.59540129997945      -22.46849377178681      -34.72181016619451
H          -11.09613011907437      -22.66775147821193      -35.63787309415742
H          -10.40965538166724      -24.03303169479933      -34.75598298430632
C          -13.49249133327449      -21.74233743242682      -34.58370104497188
H          -12.99390964460468      -21.33843097396944      -35.45816518851449
C          -14.80344722773875      -21.94948466590690      -34.62661803078426
H          -15.33906116034509      -22.39930762942112      -33.80771873004026
H          -15.38510824674852      -21.69899651216730      -35.49802469009830
C          -16.50454153095953      -19.69175708319464      -30.64747563859016
H          -16.98202620050773      -20.45333156348828      -31.26461699806460
H          -16.04818508995514      -18.95783617102618      -31.31178414670773
H          -17.27362727854527      -19.19371858792629      -30.06252089954601
C          -16.32956615434464      -19.71462858314218      -27.39989440577090
H          -17.14715668761578      -19.19414187650115      -27.89221472226436
H          -15.79847322359719      -19.00193975865873      -26.76911851735337
H          -16.75259132587229      -20.48642930462254      -26.75597339734839
O          -10.74273222229074      -20.48042994409622      -29.33982622211791
H           -9.83903412677364      -20.77156474482505      -29.50790967770345
H          -11.08046156905186      -20.11244203620845      -30.16429999166688
C          -14.09365215216545      -24.67265916568187      -28.07139770172311
H          -14.80572045702922      -25.46129545369459      -28.29428175733218
H          -14.59119329060949      -23.72165861588439      -27.91482887721424
H          -13.51089262353289      -24.93131835114160      -27.19351990607496
S          -12.91188418747799      -24.52438512829067      -29.45703017045845
H          -13.83049184936233      -24.16535653761203      -30.36071925992281
