72
 energy: -105.887512133565 gnorm: 0.251364668663 xtb: 6.7.1 (edcfbbe)
Fe         -11.98100000000000      -22.46100000000000      -29.32200000000000
N          -11.82700000000000      -22.60400000000000      -27.35400000000000
N          -10.10900000000000      -23.30100000000000      -29.34100000000000
N          -11.90900000000000      -22.15100000000000      -31.33500000000000
N          -13.60400000000000      -21.48400000000000      -29.24400000000000
C          -12.74400000000000      -22.01300000000000      -26.47700000000000
C          -12.41700000000000      -22.37200000000000      -25.15100000000000
C          -11.27100000000000      -23.10900000000000      -25.19500000000000
C          -10.89800000000000      -23.19700000000000      -26.54500000000000
C           -9.46500000000000      -23.86100000000000      -28.32900000000000
C           -8.26300000000000      -24.48000000000000      -28.80800000000000
C           -8.22400000000000      -24.27100000000000      -30.15200000000000
C           -9.42800000000000      -23.49700000000000      -30.47300000000000
C          -10.96100000000000      -22.64500000000000      -32.17900000000000
C          -11.38300000000000      -22.47900000000000      -33.50500000000000
C          -12.60100000000000      -21.83600000000000      -33.47200000000000
C          -12.95800000000000      -21.66400000000000      -32.09500000000000
C          -14.32500000000000      -20.97700000000000      -30.24800000000000
C          -15.49600000000000      -20.29300000000000      -29.70300000000000
C          -15.44100000000000      -20.40500000000000      -28.39399999999999
C          -14.23900000000000      -21.12000000000000      -28.09200000000000
C          -13.86400000000000      -21.31100000000000      -26.78200000000000
H          -14.47300000000000      -20.89400000000000      -25.98100000000000
C           -9.83000000000000      -23.86300000000000      -26.97800000000000
H           -9.22600000000000      -24.42200000000000      -26.26400000000000
C           -9.76700000000000      -23.19500000000000      -31.77700000000000
H           -9.02900000000000      -23.41000000000000      -32.55000000000000
C          -14.09700000000000      -21.09400000000000      -31.60600000000000
H          -14.84600000000000      -20.72100000000000      -32.30400000000000
C          -10.50300000000000      -23.70600000000000      -24.06600000000000
H          -11.00800000000000      -23.46500000000000      -23.10600000000000
H           -9.47500000000000      -23.28600000000000      -24.04800000000000
H          -10.46000000000000      -24.81000000000000      -24.18300000000000
C          -13.17600000000000      -21.93800000000000      -23.92500000000000
H          -14.26700000000000      -21.96400000000000      -24.13500000000000
H          -12.88600000000000      -20.90100000000000      -23.65200000000000
H          -12.95500000000000      -22.62800000000000      -23.08299999999999
C           -7.22000000000000      -25.19200000000000      -27.95600000000000
H           -7.37500000000000      -26.29000000000000      -28.02100000000000
H           -7.32200000000000      -24.87500000000000      -26.89600000000000
H           -6.20200000000000      -24.95000000000000      -28.32900000000000
C           -7.26400000000000      -24.70600000000000      -31.20100000000000
H           -7.30600000000000      -24.25500000000000      -32.20300000000000
C           -6.35300000000000      -25.62100000000000      -30.97800000000000
H           -6.27300000000000      -26.10000000000000      -29.99100000000000
H           -5.65700000000000      -25.92200000000000      -31.77500000000000
C          -10.69800000000000      -22.90500000000000      -34.81200000000000
H           -9.73600000000000      -23.41000000000000      -34.57900000000000
H          -10.49300000000000      -22.01000000000000      -35.43700000000000
H          -11.35200000000000      -23.61300000000000      -35.36500000000000
C          -13.28800000000000      -21.63400000000000      -34.76500000000000
H          -12.69500000000000      -21.60100000000000      -35.69100000000000
C          -14.56600000000000      -21.49100000000000      -34.87400000000000
H          -15.20900000000000      -21.51500000000000      -33.98200000000000
H          -15.02900000000000      -21.34300000000000      -35.86100000000000
C          -16.63500000000000      -19.62400000000000      -30.41300000000000
H          -17.51200000000000      -20.30500000000000      -30.43100000000000
H          -16.34000000000000      -19.38900000000000      -31.45799999999999
H          -16.91400000000000      -18.69100000000000      -29.87800000000000
C          -16.43500000000000      -19.82500000000000      -27.42900000000000
H          -17.43500000000000      -19.77900000000000      -27.91000000000000
H          -16.12500000000000      -18.79700000000000      -27.14300000000000
H          -16.49900000000000      -20.46800000000000      -26.52500000000000
O           -9.87700000000000      -20.22900000000000      -29.22200000000000
H           -9.03000000000000      -20.66800000000000      -29.15100000000000
H          -10.01300000000000      -19.35100000000000      -29.25200000000000
C          -13.38900000000000      -25.09000000000000      -28.18400000000000
H          -14.02000000000000      -25.99700000000000      -28.29900000000000
H          -13.98700000000000      -24.32200000000000      -27.64900000000000
H          -12.50900000000000      -25.36199999999999      -27.56400000000000
S          -12.85000000000000      -24.45600000000000      -29.79000000000000
H          -14.05200000000000      -24.03600000000000      -30.15800000000000
72
 energy: -105.935624553483 gnorm: 0.096342308558 xtb: 6.7.1 (edcfbbe)
Fe         -11.90413378558986      -22.38120145055907      -29.32206703071717
N          -11.83393979982727      -22.57497316217501      -27.34750595563827
N          -10.11435910796873      -23.30504858859910      -29.35151201462353
N          -11.92088926071255      -22.16061789831366      -31.33478851918281
N          -13.59995615221794      -21.47186113544311      -29.23585733438159
C          -12.74258322478286      -22.03144171880916      -26.46576682798895
C          -12.40916835511054      -22.36667583286842      -25.12150003382579
C          -11.27292430189922      -23.10767330713640      -25.17305235854684
C          -10.92164245567739      -23.21022838781932      -26.55062723342905
C           -9.44548391067454      -23.87578334751590      -28.33805518865583
C           -8.23729054928948      -24.48986908532440      -28.81981328890258
C           -8.20455324260602      -24.26877081040919      -30.16890508947345
C           -9.41545865653121      -23.51345054679886      -30.48137321546587
C          -10.96204659682515      -22.63638108679173      -32.17801060727298
C          -11.37102158385507      -22.46999001896686      -33.52693213444198
C          -12.59665732990942      -21.85289775587172      -33.50018154390047
C          -12.94450547935094      -21.67658627961849      -32.11236024853006
C          -14.34438727448252      -20.97899626635301      -30.25351315397838
C          -15.51408529002660      -20.29047295489653      -29.72631650644247
C          -15.45227455373042      -20.39202448466885      -28.38859012354068
C          -14.24759988737141      -21.10958108071060      -28.08841187486864
C          -13.86409271218167      -21.31868051353394      -26.78705258347744
H          -14.46790067647871      -20.90308980873999      -25.99339234653566
C           -9.82118154069640      -23.87746922489422      -26.99990966805091
H           -9.21426663430748      -24.41425192873009      -26.28311410165164
C           -9.76454331927759      -23.19364319092614      -31.77494720520704
H           -9.04348188096876      -23.41910632664893      -32.54851491156486
C          -14.08983559912367      -21.09769353452530      -31.60803509305264
H          -14.82687308242891      -20.70801315468026      -32.29467312548568
C          -10.50137347298319      -23.70796103071836      -24.05502293763026
H          -10.98822158431597      -23.47521884167443      -23.10448308729396
H           -9.48426843359463      -23.30164725496865      -24.03878643087777
H          -10.45094570138209      -24.79706365724340      -24.17021422772840
C          -13.17834229183458      -21.93844914967259      -23.91720177884729
H          -14.25428823509493      -21.96390972593788      -24.11876856582818
H          -12.89664351009903      -20.91546216457774      -23.64361474744950
H          -12.96395762629231      -22.60906841225081      -23.08158119808470
C           -7.22400028266586      -25.18963700890398      -27.95955941833332
H           -7.36937313935859      -26.27558083657017      -28.01365519016643
H           -7.31614909897199      -24.88138477263274      -26.91393905386932
H           -6.21549108516636      -24.94908611228169      -28.30915165239729
C           -7.25429389858011      -24.70067244540754      -31.18785378737904
H           -7.31617897530229      -24.24976658089017      -32.17593914303919
C           -6.33655493987663      -25.63202369435708      -30.97923972321329
H           -6.25564758240011      -26.12515081516830      -30.02280569510582
H           -5.65392540096669      -25.93076418190512      -31.76485080393435
C          -10.68544416837697      -22.90525803202254      -34.79669823132156
H           -9.73955531438894      -23.40725049530035      -34.58271959041556
H          -10.48833985571275      -22.03135120835146      -35.42737808135428
H          -11.33107477067543      -23.59795157876210      -35.34931400577658
C          -13.29379057336371      -21.61185050275352      -34.75738895355904
H          -12.68905107609652      -21.59817497391032      -35.66195202518086
C          -14.59970385760105      -21.47810483099925      -34.88004035080588
H          -15.24401050506326      -21.52528306726072      -34.01430372775849
H          -15.05545370964085      -21.34314975285243      -35.85239055105565
C          -16.63542913704874      -19.62169948544835      -30.44097850442867
H          -17.50695321646651      -20.28782767624516      -30.44735597998778
H          -16.35714436715500      -19.37955665903815      -31.46720442962112
H          -16.90907267979093      -18.70359596107060      -29.90937886674841
C          -16.43678727188170      -19.82719422244811      -27.42075205639726
H          -17.42368085255442      -19.77877611685627      -27.89026882117369
H          -16.13635056591789      -18.81251348222161      -27.13450223039895
H          -16.50613922988175      -20.45079987429397      -26.52542402591282
O           -9.91272742994625      -20.27946073023422      -29.21517089313284
H           -9.04650188054365      -20.67542081173925      -29.15459176425769
H          -10.02157430199981      -19.34531436535451      -29.25484702565011
C          -13.40727978211509      -25.09809956234353      -28.16746416206072
H          -14.01780179992893      -25.99642408161783      -28.30620706687085
H          -13.98098502916822      -24.33002256734865      -27.64302004975005
H          -12.52085516210527      -25.35259196656751      -27.57928564194774
S          -12.85015843887938      -24.42783651528233      -29.75747490390240
H          -14.06334352090896      -24.04517191218825      -30.15844130051907
72
 energy: -105.952543719754 gnorm: 0.034646183964 xtb: 6.7.1 (edcfbbe)
Fe         -11.85086629398542      -22.34314472055374      -29.32079391331406
N          -11.83100095587204      -22.54768040014431      -27.33522145814723
N          -10.10966828755532      -23.29202297208025      -29.36460282089584
N          -11.91962679906097      -22.15305833291955      -31.33234150017738
N          -13.58400679209947      -21.43152075249613      -29.23112006373543
C          -12.73249287034324      -22.03391207579316      -26.45702770100022
C          -12.40003855825654      -22.36386341917611      -25.09906685625874
C          -11.26938045141559      -23.11185040047135      -25.15981068920584
C          -10.92876513188753      -23.21287136696399      -26.55642942624310
C           -9.42540427964350      -23.87717310391572      -28.34797197478193
C           -8.21810016184457      -24.49649717497055      -28.82981209738524
C           -8.18872345346190      -24.27324622262429      -30.18357789061047
C           -9.39619893559359      -23.52227136193369      -30.49172588041116
C          -10.95834925545959      -22.62298343543770      -32.17468842246475
C          -11.35931179083234      -22.45842840430389      -33.53974977332746
C          -12.59826708736662      -21.86733317998167      -33.51727871186559
C          -12.93013435342303      -21.68235747616150      -32.11961699234045
C          -14.35243737779158      -20.96262228293028      -30.25865883913593
C          -15.52717984337680      -20.28775119353292      -29.74616418397145
C          -15.46033196816074      -20.37488675889951      -28.39198099285589
C          -14.24649395317017      -21.07879566980179      -28.09057092622918
C          -13.85594958865112      -21.31535277673389      -26.79455333567871
H          -14.46686548610825      -20.91747467328426      -26.00328167738865
C           -9.81218751587708      -23.87686947675891      -27.02060788875535
H           -9.20725542912067      -24.40244249224554      -26.30077652648958
C           -9.76124824706270      -23.19271373888053      -31.77791646720326
H           -9.06202214439640      -23.43674040388107      -32.55996837151692
C          -14.07612174728545      -21.09497312495215      -31.60777940450242
H          -14.80186639372963      -20.69201136119656      -32.29177651523524
C          -10.49402307581900      -23.71478694668295      -24.04579114263434
H          -10.96900063123205      -23.48820774528103      -23.09771053225301
H           -9.48240496716441      -23.31601114292484      -24.02867614957839
H          -10.43723782935030      -24.79546372989306      -24.15972734529045
C          -13.17785091680608      -21.93814924338215      -23.90607560839928
H          -14.24511981770189      -21.96489751593941      -24.10526390057829
H          -12.90743118044365      -20.92076392064143      -23.62852559321921
H          -12.96957222957609      -22.59383096153633      -23.06792278031791
C           -7.22352769814123      -25.18715478304601      -27.96484109072028
H           -7.36391562803626      -26.26716221929419      -28.00850353990880
H           -7.31746738422048      -24.87952580826187      -26.92832439313398
H           -6.21600501038379      -24.95283012444789      -28.29729338883805
C           -7.24148779725070      -24.70752703886720      -31.17431854711291
H           -7.30931708720573      -24.24195498297723      -32.14736324273598
C           -6.32022503470454      -25.65039368114811      -30.98482897476924
H           -6.23187368766960      -26.16322926122286      -30.05087503484280
H           -5.64429918883593      -25.93888409828840      -31.76686289637711
C          -10.66603309431557      -22.90492068186635      -34.77978195261271
H           -9.72981644797447      -23.40629846516297      -34.57233320886318
H          -10.46864521670506      -22.04813185416502      -35.42274491058856
H          -11.30640091093769      -23.59218947540093      -35.33154413572507
C          -13.31814615830653      -21.60482810708192      -34.74054958818832
H          -12.69934473132151      -21.57733605851023      -35.62731490127099
C          -14.63508624820180      -21.47818432620101      -34.87985998350776
H          -15.29063887541814      -21.53481027139995      -34.03602315870585
H          -15.07850056459534      -21.32723519796861      -35.84531448492081
C          -16.63678362450758      -19.62171709938694      -30.47500782802349
H          -17.51055047312967      -20.27348558229301      -30.48242736288632
H          -16.36748889501374      -19.37473610669057      -31.49203251667757
H          -16.90812374605660      -18.70791704701630      -29.95108982427977
C          -16.44026800146295      -19.82501821013344      -27.41683010577972
H          -17.42406074668121      -19.77524397050382      -27.87294270377432
H          -16.14799765196912      -18.81808590186237      -27.12173920800538
H          -16.50659603702211      -20.43953074838296      -26.52571319648365
O          -10.00232673650423      -20.35720885819958      -29.18297103999868
H           -9.10608287224861      -20.70166304840847      -29.16953213130375
H          -10.05763203278758      -19.39866226676047      -29.26987266316381
C          -13.42347496476235      -25.09907372421124      -28.14730846228480
H          -14.02059895687479      -25.98926624760173      -28.31462055805742
H          -13.98575192036009      -24.33732055024189      -27.62302220131041
H          -12.53175870360368      -25.34980978530961      -27.58352297712552
S          -12.85368472927917      -24.41976909364893      -29.73692570646130
H          -14.06915334258540      -24.04393536473164      -30.15719972816140
72
 energy: -105.960730826757 gnorm: 0.034667002158 xtb: 6.7.1 (edcfbbe)
Fe         -11.80863338006955      -22.30045980518359      -29.31776939163076
N          -11.81682329694210      -22.52321187421528      -27.32373530493143
N          -10.09747651878449      -23.28387972563154      -29.37814517628103
N          -11.90451342050432      -22.13981622122582      -31.33190446657321
N          -13.56731817101734      -21.38409992922339      -29.22781936222172
C          -12.72198603262384      -22.02172471674806      -26.45024671035473
C          -12.39247606736998      -22.36190968918747      -25.08738699017973
C          -11.26323206662871      -23.11471412041554      -25.15414842889470
C          -10.92056344996479      -23.20445664967231      -26.55734687682371
C           -9.41067764225585      -23.87346948526422      -28.35635109224179
C           -8.20788837974391      -24.50096298722249      -28.83546775353205
C           -8.17662224964710      -24.28401649447696      -30.19188173232710
C           -9.37827485294648      -23.53048294752440      -30.50350906430438
C          -10.94816307018028      -22.61327839258097      -32.17501098518741
C          -11.35333546982065      -22.45179384293654      -33.54337650360957
C          -12.60114102464767      -21.87446803470936      -33.51835470887907
C          -12.91753485425943      -21.68039325515471      -32.11631851364675
C          -14.34646201835771      -20.93399978131401      -30.26089678440045
C          -15.53067525939137      -20.27707423793361      -29.75769819238287
C          -15.46387167017940      -20.35543539575110      -28.39809229192564
C          -14.23959602232504      -21.04263242529922      -28.09170314327131
C          -13.84670883194131      -21.30262420670434      -26.79728010330727
H          -14.47068970156455      -20.92798701962458      -26.00406736261563
C           -9.80294482002373      -23.86686916644675      -27.03174233523180
H           -9.19927552812501      -24.39083786994825      -26.31034029723214
C           -9.75408776819112      -23.19694345509840      -31.78709861784130
H           -9.07345270675447      -23.46235023973001      -32.57954815747119
C          -14.05862783176974      -21.08107897418537      -31.60577928497746
H          -14.77697468231836      -20.67433953692375      -32.29553384915670
C          -10.48510267708856      -23.72248086298935      -24.04116871308166
H          -10.95466439817747      -23.50087423777718      -23.08861638118107
H           -9.47260538340187      -23.32552119514786      -24.02253095584203
H          -10.42422789675817      -24.80263579120442      -24.15590103066377
C          -13.17408146391639      -21.93805715834214      -23.89473572081129
H          -14.24091941317478      -21.97038605658000      -24.09505477083115
H          -12.91375769209481      -20.91790343902228      -23.61531942209388
H          -12.96663837617463      -22.58630960840533      -23.04951720763038
C           -7.21782862981122      -25.18695217942529      -27.96618232914056
H           -7.35616426678325      -26.26743319704186      -28.00358441801344
H           -7.31861045835932      -24.87356197991578      -26.93206912291904
H           -6.20662339992736      -24.95642837824569      -28.29132245193246
C           -7.22038036897746      -24.71878901802057      -31.16937286926217
H           -7.28508225261121      -24.23613369142172      -32.13418108434694
C           -6.29964467062576      -25.66750849299449      -30.99561354171050
H           -6.21477095152624      -26.21601604310039      -30.07872110458938
H           -5.62635714804409      -25.94548591980439      -31.78387051528953
C          -10.64739867497030      -22.90546584322248      -34.77084073273664
H           -9.71256954221946      -23.40588594564504      -34.55315078348078
H          -10.44205196394054      -22.05735730163028      -35.42399395924308
H          -11.28208446880457      -23.59763568661153      -35.32304485174143
C          -13.34395597226254      -21.59511759742053      -34.72259337252179
H          -12.71920614010267      -21.55174317461405      -35.60522070316042
C          -14.66221215362842      -21.46820377748098      -34.87189441440779
H          -15.33992020207059      -21.56398369498270      -34.04488818032899
H          -15.09806948758472      -21.30768644887548      -35.84033826396569
C          -16.63610152499613      -19.62105883620863      -30.50794899830402
H          -17.51344648174699      -20.26779973488675      -30.52473145769006
H          -16.36166823175352      -19.37794090888737      -31.52588590445985
H          -16.91350007080974      -18.70182331457633      -29.99684520843565
C          -16.44546522943696      -19.81838166331367      -27.41615220087520
H          -17.43298043539253      -19.76829239102301      -27.86409777006567
H          -16.15802740617040      -18.81302978417065      -27.10920512247164
H          -16.50479858288184      -20.43777488215115      -26.52715094415986
O          -10.12913031478057      -20.45366805210046      -29.11510317915936
H           -9.20907593044855      -20.76115986627693      -29.20327402670667
H          -10.14357727004938      -19.49117415657161      -29.29513321479523
C          -13.43740040277411      -25.09538592779792      -28.12912082251901
H          -14.03065370496561      -25.98295103896302      -28.31947419766516
H          -13.99865124428299      -24.34135027940492      -27.59438064983177
H          -12.54211960458633      -25.35155215902974      -27.57558881255007
S          -12.85913378071768      -24.39602292235217      -29.71353681165878
H          -14.07531494281846      -24.02976688203177      -30.14609029628880
72
 energy: -105.965645495402 gnorm: 0.026664935053 xtb: 6.7.1 (edcfbbe)
Fe         -11.78738647899324      -22.28769266872538      -29.31497118414554
N          -11.80002505300776      -22.50131511789784      -27.31301014550146
N          -10.08288980074347      -23.28268216210388      -29.39192106568905
N          -11.88046916050806      -22.12396175001595      -31.32978808232763
N          -13.55069743515460      -21.33415728838336      -29.22426505183523
C          -12.71091750820326      -22.00240197553246      -26.44419457917814
C          -12.38469161181673      -22.35863174481426      -25.07988608291213
C          -11.25561981079462      -23.11385878200922      -25.15075403427733
C          -10.90655427980512      -23.18964212537677      -26.55591766876648
C           -9.39782434910047      -23.86853210590464      -28.36359592398318
C           -8.20015779941241      -24.50530358256197      -28.83886914029301
C           -8.16530191346268      -24.29891469320516      -30.19714786282182
C           -9.36052103294226      -23.54053039217638      -30.51555895344546
C          -10.93260787746858      -22.60429368347197      -32.17658965668289
C          -11.34783816986991      -22.44632800200197      -33.54346590717864
C          -12.60058979734662      -21.87727656522317      -33.51180375451439
C          -12.90065395926591      -21.67178683744785      -32.10741214324467
C          -14.33114519386769      -20.89683289296157      -30.26138120944488
C          -15.52712666698020      -20.25812045009510      -29.76558142840345
C          -15.46368550586486      -20.33141548944635      -28.40480693683738
C          -14.22886534679244      -21.00219128906472      -28.09153840268371
C          -13.83622521692996      -21.28481931051243      -26.79789495247514
H          -14.47380190479821      -20.93418444747742      -26.00179209406325
C           -9.79363042474446      -23.85222051069323      -27.03869368419042
H           -9.18996836736777      -24.37763251558777      -26.31698770156122
C           -9.74353295356105      -23.20543813921543      -31.79821240235619
H           -9.07937258031419      -23.49232186179759      -32.59919096325628
C          -14.03580160476099      -21.05959988736282      -31.60287140877215
H          -14.74819263163081      -20.65828868581011      -32.30398273476403
C          -10.47648380127217      -23.72960510625790      -24.03932533658610
H          -10.94261799982547      -23.51421989078019      -23.08121884929547
H           -9.46159239780533      -23.33383389892312      -24.01822038416232
H          -10.41350889516696      -24.81096559575513      -24.15701004724033
C          -13.16857328272319      -21.93936634531581      -23.88419667669223
H          -14.23712755754551      -21.98118799859588      -24.08411493850688
H          -12.91928583459698      -20.91441568238576      -23.60485811634774
H          -12.95737053950907      -22.58216631220625      -23.03292242005371
C           -7.20916199105739      -25.18868023231900      -27.96703899245453
H           -7.34708064518426      -26.27053521332304      -27.99862639808708
H           -7.31350894757367      -24.86818248788535      -26.93377922236217
H           -6.19550956636143      -24.96189633368816      -28.29202651258266
C           -7.19824027576379      -24.73471450931940      -31.16792426919595
H           -7.24865719972841      -24.22706663212103      -32.12333864560340
C           -6.28421417245959      -25.69158269194790      -31.00940241549345
H           -6.19711202523237      -26.26749923142527      -30.10561026470490
H           -5.60255158609338      -25.94832893665907      -31.80144924720429
C          -10.63051572522326      -22.90485813149849      -34.76483775067411
H           -9.69498163590581      -23.40244104971116      -34.53128562689705
H          -10.41530962448856      -22.06219137285472      -35.42413439285057
H          -11.25668134415865      -23.60495146632169      -35.31884405333444
C          -13.36778627960906      -21.59086661069189      -34.70186320485126
H          -12.74252917490562      -21.51451599066890      -35.58551638267917
C          -14.68553052391414      -21.47266119933085      -34.85592285277575
H          -15.38224602847889      -21.58831121085609      -34.04306663898639
H          -15.11501794314943      -21.28028876481352      -35.82571231130915
C          -16.63060597969633      -19.61911434563420      -30.54126190920090
H          -17.50812402057409      -20.26739082566404      -30.57011354800940
H          -16.34293481636162      -19.38653274199876      -31.56171947808685
H          -16.92157626068422      -18.69153602993003      -30.04918532641196
C          -16.45079120998985      -19.80933467893215      -27.41751885742146
H          -17.44209616843358      -19.75885093972451      -27.86064490428325
H          -16.16868909993568      -18.80507059436146      -27.09575885881961
H          -16.50421412296309      -20.43970469799776      -26.53285679282589
O          -10.26743504264101      -20.53905738227819      -29.19594818600412
H           -9.36638784159054      -20.83749976734849      -29.17280570375129
H          -10.25235916865366      -19.57969006450001      -29.24996376977902
C          -13.45285867589398      -25.09242106509095      -28.11212953976781
H          -14.04905948199152      -25.97563553182602      -28.31526641871696
H          -14.01243025661827      -24.34323357828364      -27.56519554630776
H          -12.55549143274295      -25.35756802090000      -27.56434212882757
S          -12.87512624951446      -24.38971930295921      -29.69830418848275
H          -14.08653073846823      -24.01193258003787      -30.12865373676254
72
 energy: -105.968397712656 gnorm: 0.015126956736 xtb: 6.7.1 (edcfbbe)
Fe         -11.80412173713363      -22.32570945665089      -29.32006188872787
N          -11.78936038144700      -22.49064779479128      -27.31187179077531
N          -10.07865685453056      -23.29967762993236      -29.40189481687270
N          -11.86558368720363      -22.13025682468889      -31.32804695910900
N          -13.54460644873970      -21.31057753535896      -29.22246753657321
C          -12.70290984540082      -21.98620371298277      -26.44395510441789
C          -12.37700154374987      -22.35252739019657      -25.08090076812828
C          -11.24750112291517      -23.10647409034574      -25.15245786528359
C          -10.89434387632629      -23.17581516561065      -26.55611142760046
C           -9.39306731184072      -23.87080912557790      -28.36824377106108
C           -8.19637522388490      -24.51127326802143      -28.84006362403086
C           -8.15960003251491      -24.31455292184565      -30.19919413318752
C           -9.35476673131688      -23.55777685271376      -30.52388744299493
C          -10.92250492444538      -22.61015639327194      -32.17983542821445
C          -11.34541613672387      -22.44821955729915      -33.54339152934902
C          -12.59470159532181      -21.87514567305626      -33.50284011021631
C          -12.88615655838300      -21.66607214022093      -32.09820693818944
C          -14.31367782390333      -20.86932845487040      -30.26058789873785
C          -15.51491606683142      -20.23509363037970      -29.76846955743303