78
 energy: -116.058025841918 gnorm: 0.000044774629 xtb: 6.7.1 (edcfbbe)
Fe          14.77095690144171       27.96129203245047        4.80040659368485
N           14.99656677648427       29.28414065099366        6.27121373791955
N           13.91711788739411       26.67524623268780        6.06645654048690
N           14.60490797022515       26.61021784901626        3.31285120092260
N           15.68064431176736       29.22605948183232        3.52879638940747
C           15.53697752913001       30.52651287913585        6.18279967463731
C           15.51846144920042       31.18717779278638        7.47069664841192
C           14.95398875803599       30.30932761173073        8.34091426659954
C           14.63060306304629       29.12712429090426        7.57056017774904
C           13.68435140731552       26.87042182412700        7.39193875261448
C           13.03792127023901       25.72259599682975        7.97567388908948
C           12.88089861536613       24.81407122264477        6.96328464336882
C           13.43278115373562       25.44043605640055        5.77630295661381
C           14.01742470087047       25.38332130554484        3.39138003238972
C           14.05942232360952       24.71329106620756        2.11829326580038
C           14.69159470730861       25.56776657833763        1.25265481113137
C           15.00855569790915       26.75356399310789        2.02276698902189
C           15.94622083904019       29.01577074887556        2.21023220137358
C           16.57662357338084       30.17743374167384        1.62452669808853
C           16.67462121714609       31.10035706245754        2.61928679022887
C           16.11035216299810       30.48738834362052        3.80037671437303
C           16.04716424682687       31.10348216774186        5.03530607962629
H           16.43511887429734       32.10766828759271        5.11111524086959
C           14.02042829277852       28.00969909929096        8.10342045403068
H           13.79491234572909       28.02313043641761        9.15897672368913
C           13.47673998721302       24.82983403744139        4.53856566015805
H           13.06756732190645       23.83438183807204        4.45982692098889
C           15.65266738370826       27.86321389197799        1.50478265297454
H           15.93356489274810       27.83662448568150        0.46313598298651
C           14.69206370007062       30.46011462858030        9.80040244282529
H           15.03193856460871       31.42958615747651       10.15625629976444
H           15.21355940675818       29.68605054794205       10.36338035582886
H           13.62591344714865       30.37186721184064       10.01243516959551
C           16.04123411863867       32.56051470991924        7.71907526542105
H           15.52001757249873       33.28818873042940        7.09650596367171
H           17.10418580245781       32.61355642085812        7.48289173554292
H           15.90804579962786       32.84295328002793        8.76051170062225
C           12.58483113455658       25.61928533979413        9.39037290739185
H           12.19818912545615       26.57407361571789        9.74413003501503
H           13.41032655522610       25.32837436303236       10.04182217057892
H           11.79913797188405       24.87135405774262        9.47713627306574
C           12.27344361218317       23.50221328587753        6.99794138644868
H           11.75108618671966       23.20383250271768        6.09606367090996
C           12.31613725960899       22.65885047846520        8.02438716984092
H           12.86083275903990       22.88036754376358        8.92535262171825
H           11.82764093271498       21.69924177978196        7.98566936400305
C           13.45714403379862       23.38279345147615        1.82974074072318
H           12.51325858756691       23.26494818625491        2.35983169226721
H           14.12281518710602       22.57681507388275        2.14341660348845
H           13.27246342828977       23.28007233753017        0.76233684928412
C           14.98482659434232       25.39478226196394       -0.15283804265535
H           14.94980042930984       26.29641310147094       -0.75368441341123
C           15.29513825943887       24.24342489817861       -0.73986994645720
H           15.39201965237237       23.32567080480455       -0.18658862274788
H           15.48966152495875       24.18521327406612       -1.79798114136845
C           17.00431820587487       30.27365993348485        0.20003260313256
H           16.14748408721717       30.16849656351084       -0.46624363197777
H           17.71796492541096       29.48543794607360       -0.04132997889215
H           17.47502064670650       31.23340874739198        0.00187876615637
C           17.23997369961986       32.47839767387952        2.57622211561338
H           16.48267130745139       33.21126957052082        2.85518003101469
H           17.59840542812857       32.71912308436113        1.57836850252061
H           18.07371800062832       32.57279137264820        3.27245505317767
O           16.84514323193991       27.05848437698187        5.18301192575422
H           16.75960086176899       26.22123380020542        4.71428683306320
H           17.38020670218227       27.63899235801378        4.63077986760319
C           10.30506925624245       29.98712728912053        2.14858496269274
H           10.04200109842315       31.03258350600469        2.30923254462200
H            9.38867406423321       29.39754862138987        2.17263652333368
H           10.75616453533419       29.88865798739411        1.16626151563039
N           10.96264870602731       29.52820328304608        4.52105986610338
H           10.09684738639712       29.84135316079007        4.92845718080658
C           11.26084630417857       29.51847354056304        3.18364925919582
C           12.03606874413295       29.04179979772538        5.18405275222622
H           12.08724829779148       28.93379129607346        6.24808003662204
N           12.99498355677848       28.72499400897138        4.34794517081279
C           12.52770951371589       29.01610742403001        3.10020657888888
H           13.12936413258233       28.84595560865424        2.23195058125615
