78
 energy: -116.058078166299 gnorm: 0.000037680750 xtb: 6.7.1 (edcfbbe)
Fe          14.48299779656968       29.07995598929806        4.94136900680481
N           14.63932677019088       30.43581674501508        6.39235350289810
N           13.62646369023340       27.79852848275387        6.20591272126206
N           14.39258723449725       27.69982559421047        3.47508330526243
N           15.39690044560869       30.34622596298797        3.66967672506052
C           15.19051701670292       31.67459699835020        6.30721909130054
C           15.11358704608074       32.35950649169506        7.58000430285547
C           14.49656477279622       31.50286295420969        8.43563205236845
C           14.20775166229252       30.30622034739109        7.67387827299295
C           13.31902562372567       28.02665547947093        7.50962392626818
C           12.69870416294041       26.86838665885139        8.10274123457116
C           12.64203571267656       25.91690862209492        7.12026818003162
C           13.22021807421134       26.53081794353236        5.93859648994741
C           13.87431767823453       26.44305649220443        3.57189888557246
C           13.95686512595308       25.75634373039311        2.30979115747892
C           14.53621654364013       26.63420420978616        1.43078893463343
C           14.78755834729169       27.84679161778882        2.18328026348003
C           15.65776983543413       30.13628996495039        2.35024678708792
C           16.27890214736070       31.30073492774848        1.76136851432882
C           16.38291975109738       32.22348949869551        2.75627072583165
C           15.82346558647964       31.61036195377992        3.93874377288376
C           15.74183681931379       32.23500504643086        5.16961339975540
H           16.13450101300168       33.23753610541065        5.24617306491093
C           13.58366325924916       29.19502973077840        8.20186790209638
H           13.29890605988826       29.23349545486278        9.24217668760648
C           13.34273011894944       25.88642949496930        4.72293713307432
H           12.99423345567966       24.86677285487945        4.66203387522993
C           15.38511250557849       28.97506546641695        1.65227687194534
H           15.66001332905700       28.95013856428190        0.60914261340278
C           14.15919484122675       31.68509458572837        9.87556419147514
H           14.47225753277926       32.66564454501904       10.22589747922893
H           14.65699679705708       30.92885856970916       10.48256230254179
H           13.08437159351421       31.59123610323389       10.03286389618928
C           15.63508922722273       33.73359058497048        7.82879048278218
H           15.13996679382863       34.45764972327839        7.18074094750055
H           16.70580245296694       33.77838517307935        7.62879231351926
H           15.46781757503280       34.02918358413029        8.86151759715815
C           12.17737867393630       26.79359475750674        9.49516324811639
H           11.72107504563126       27.73832948405034        9.78696401542464
H           12.98153996994649       26.57510178026421       10.19956280830472
H           11.42988886074228       26.00653548716324        9.57244394462114
C           12.10158917000938       24.57666380261168        7.17410069974471
H           11.64295303092146       24.21807733758135        6.25948928861037
C           12.13367302136639       23.77383016519314        8.23291171329509
H           12.61813439777004       24.05625019124688        9.15103333878712
H           11.69749454052609       22.78892849127200        8.20648744457472
C           13.43381016159858       24.38837074075674        2.04177328168366
H           12.49782223033782       24.22217959193172        2.57309045533284
H           14.14542268652000       23.62790571473037        2.36789370224646
H           13.25673062341717       24.25876090686390        0.97604326299921
C           14.83635922422360       26.45798490657263        0.02714681837732
H           14.74361396372672       27.34674484189419       -0.58645237836242
C           15.21572923953728       25.31897054801704       -0.54310677676714
H           15.37067851233013       24.41773496188622        0.02403660430570
H           15.41086600463005       25.25616495877254       -1.60085303278932
C           16.69704948974260       31.39998618153427        0.33442791212135
H           15.83915806211491       31.27058672287213       -0.32592882576775
H           17.42753883209037       30.62726068752099        0.09342775243470
H           17.14420804711172       32.36942219834521        0.12855780195085
C           16.94756403132391       33.60218347462866        2.71121022284388
H           17.31337673896455       33.83807642785722        1.71496187166117
H           17.77625221648180       33.70010893634807        3.41288875099057
H           16.18910576622308       34.33775700482922        2.98093881747540
C            9.19311812140616       29.68319450200309        3.29095641737724
H            9.01934579991027       30.08789142484659        2.29396597745111
H            8.48636464268205       30.15062902615780        3.97652648972766
H            9.00321899864191       28.61471050435727        3.27065914494624
N           11.11574244414461       31.19227158421617        3.83690178332659
H           10.62763244594158       32.05162374679185        3.64498177356305
C           10.59137072906211       29.93126272687801        3.72435937934990
C           12.39790383060826       31.06787048231884        4.24793265053292
H           13.05647142192726       31.89393193026103        4.42068197669209
N           12.71678848931343       29.80567918294089        4.40226708746952
C           11.60310356083563       29.08660442426124        4.08103868551234
H           11.60411365295664       28.01740074998828        4.12663009195963
O           16.57047550180524       28.24838519804909        5.39837614005576
H           16.56133198950078       27.44863282719322        4.86129348465783
H           17.10681743167588       28.89770513507656        4.93051756383232
