78
 energy: -115.964096202661 gnorm: 0.279805220806 xtb: 6.7.1 (edcfbbe)
Fe          14.47700000000000       29.11300000000000        4.92300000000000
N           14.82700000000000       30.39099999999999        6.42400000000000
N           13.76700000000000       27.77900000000000        6.31000000000000
N           14.20900000000000       27.70499999999999        3.51100000000000
N           15.16500000000000       30.39500000000000        3.57700000000000
C           15.17800000000000       31.72000000000000        6.27700000000000
C           15.05400000000000       32.42600000000000        7.53900000000000
C           14.58300000000000       31.56100000000000        8.43300000000000
C           14.38900000000000       30.27300000000000        7.72500000000000
C           13.46000000000000       28.05800000000000        7.61600000000000
C           12.74500000000000       26.91300000000000        8.18100000000000
C           12.62600000000000       25.99700000000000        7.24000000000000
C           13.28900000000000       26.52199999999999        6.03600000000000
C           13.76300000000000       26.42000000000000        3.67600000000000
C           13.95100000000000       25.68400000000000        2.40800000000000
C           14.44600000000000       26.53500000000000        1.51700000000000
C           14.63600000000000       27.82200000000000        2.19800000000000
C           15.52800000000000       30.13800000000000        2.26700000000000
C           16.35400000000000       31.24400000000000        1.76600000000000
C           16.52500000000000       32.11600000000000        2.74900000000000
C           15.77500000000000       31.61900000000000        3.88200000000000
C           15.69200000000000       32.27900000000000        5.11200000000000
H           16.05600000000000       33.30500000000000        5.16100000000000
C           13.84500000000000       29.16900000000000        8.33200000000000
H           13.71400000000000       29.17200000000000        9.41400000000000
C           13.31100000000000       25.81000000000000        4.82300000000000
H           12.97000000000000       24.77600000000000        4.79200000000000
C           15.12900000000000       29.01000000000000        1.60000000000000
H           15.19600000000000       29.02700000000000        0.51200000000000
C           14.16000000000000       31.75900000000000        9.89400000000000
H           14.29800000000000       32.82400000000000       10.17900000000000
H           14.78800000000000       31.12500000000000       10.55600000000000
H           13.08900000000000       31.48999999999999       10.01400000000000
C           15.35800000000000       33.92100000000000        7.69800000000000
H           14.68900000000000       34.50800000000000        7.03300000000000
H           16.41300000000000       34.12200000000000        7.41500000000000
H           15.18200000000000       34.23000000000000        8.75000000000000
C           12.22000000000000       26.82700000000000        9.63600000000000
H           11.49400000000000       27.64800000000000        9.81700000000000
H           13.06700000000000       26.93100000000000       10.34700000000000
H           11.70900000000000       25.85300000000000        9.79400000000000
C           11.93800000000000       24.61400000000000        7.28100000000000
H           10.91400000000000       24.48400000000000        6.90000000000000
C           12.58700000000000       23.53400000000000        7.78900000000000
H           13.61100000000000       23.63000000000000        8.17800000000000
H           12.09600000000000       22.55000000000000        7.81800000000000
C           13.57600000000000       24.19700000000000        2.28900000000000
H           12.49300000000000       24.06900000000000        2.50200000000000
H           14.16000000000000       23.60300000000000        3.02400000000000
H           13.78500000000000       23.83800000000000        1.25900000000000
C           14.83000000000000       26.31000000000000        0.05800000000000
H           14.49300000000000       27.11799999999999       -0.59200000000000
C           15.45000000000000       25.41600000000000       -0.62000000000000
H           15.86100000000000       24.52400000000000       -0.12400000000000
H           15.57900000000000       25.52900000000000       -1.70700000000000
C           16.92100000000000       31.35000000000000        0.32700000000000
H           16.12700000000000       31.71700000000000       -0.35800000000000
H           17.26000000000000       30.35000000000000       -0.01800000000000
H           17.77100000000000       32.06500000000000        0.31000000000000
C           17.28300000000000       33.47500000000000        2.79900000000000
H           17.73300000000000       33.68600000000000        1.80500000000000
H           18.09300000000000       33.42500000000000        3.55800000000000
H           16.57400000000000       34.29099999999999        3.05400000000000
C            9.10400000000000       30.14500000000000        2.72500000000000
H            8.97400000000000       31.11300000000000        2.19500000000000
H            8.22200000000000       29.97100000000000        3.37800000000000
H            9.18700000000000       29.33100000000000        1.97400000000000
N           10.60000000000000       31.09500000000000        4.59100000000000
H            9.97700000000000       31.81000000000000        4.90600000000000
C           10.38200000000000       30.19500000000000        3.58000000000000
C           11.86100000000000       30.78400000000000        5.06000000000000
H           12.31700000000000       31.28200000000000        5.91600000000000
N           12.41700000000000       29.82600000000000        4.34400000000000
C           11.50000000000000       29.43000000000000        3.43200000000000
H           11.71900000000000       28.62500000000000        2.74100000000000
O           16.48000000000000       28.01000000000000        4.93900000000000
H           16.37200000000000       27.25800000000000        4.35700000000000
H           17.21600000000000       28.22500000000000        5.38900000000000
78
 energy: -116.017878892356 gnorm: 0.104973782293 xtb: 6.7.1 (edcfbbe)
Fe          14.45811923977275       29.09781554253648        4.91487954999889
N           14.77576171895041       30.41525098023157        6.41529801574187
N           13.73296802657198       27.77329393238004        6.30143391994663
N           14.22639957893595       27.69943451471338        3.49115461513297
N           15.22668463298929       30.38699684436044        3.59632902755827
C           15.18384417593507       31.71863680646418        6.27776053590031
C           15.04990258350359       32.43506432018686        7.53270514485048
C           14.57230757563032       31.55305455745616        8.43739675371570
C           14.39672732448347       30.28104921849672        7.72573742397989
C           13.46632658708308       28.02946599039960        7.61742920984163
C           12.74349525208226       26.90274404125653        8.19802907346782
C           12.62027659462060       25.97007094572835        7.23218615338018
C           13.25886371604874       26.52298235912878        6.03621403617792
C           13.79020470540943       26.41591942051226        3.66096135132607
C           13.95047092646587       25.67511990859717        2.40799877067823
C           14.45758831952972       26.54348173238892        1.49925668646946
C           14.61769838600370       27.82938854641157        2.18270454506965
C           15.52411545349261       30.14645638459997        2.27529735497982
C           16.34138908345434       31.24268662882315        1.74885500224968
C           16.50817424168499       32.13358113284955        2.75198164532322
C           15.78484263876420       31.61321938833628        3.89303123880212
C           15.69206106018264       32.26918207252141        5.11319174160579
H           16.05543202069680       33.28951873890421        5.16047040273072
C           13.85178015921594       29.15900552551323        8.32110738850816
H           13.69483887129186       29.17506478442373        9.39394778962154
C           13.31606397764148       25.83445211518340        4.82477219060816
H           12.97305520705840       24.80646329338383        4.79966387860539
C           15.12164838282409       29.00405195432920        1.60250740769772
H           15.22779740814498       29.00593742348998        0.52174059022058
C           14.16788086625185       31.75786636352746        9.87820235464868
H           14.29814944949442       32.80477502045503       10.17274061356751
H           14.77584564522917       31.13432489853930       10.54357838338138
H           13.11276363873113       31.49250990425758       10.01253621486973
C           15.35454028002200       33.90587252583698        7.69514217184691
H           14.70154912689923       34.49827128653227        7.04296444585327
H           16.39466393764780       34.11720276940674        7.42315081821080
H           15.18872936597980       34.22263692665894        8.72964590055548
C           12.22553985400251       26.83203525371711        9.62122433327259
H           11.50810565961041       27.63852148210104        9.81237996504604
H           13.05258645689362       26.92804437666624       10.33323853409641
H           11.72436392455404       25.87227954930602        9.78546455533175
C           11.96444861067742       24.61934465124302        7.28769270016566
H           10.94785767376028       24.51197433037200        6.90514426849191
C           12.58492928837946       23.55217906811216        7.78401100250496
H           13.59419984968335       23.62679392462505        8.17211900178550
H           12.10552137154964       22.57718484720356        7.81532259991173
C           13.57952741880077       24.21468517073473        2.28370742534097
H           12.51280756053770       24.07436301299583        2.49705076894295
H           14.15118597313171       23.61669735814357        3.00374424625749
H           13.78360646420254       23.84814389389548        1.27342888582892
C           14.80812394142228       26.34387749636054        0.06667860078894
H           14.47207873205001       27.15822585571402       -0.57084005687983
C           15.44752168520738       25.40441867422091       -0.60436496054503
H           15.86421389761894       24.52412961596733       -0.12464074104906
H           15.58609879433062       25.50205760550641       -1.67790283565840
C           16.90764710869838       31.33940776616784        0.34259205149577
H           16.13681459306135       31.70582675619489       -0.34595209389374
H           17.25361875094922       30.36308086072219       -0.01024157324621
H           17.74815742376590       32.04210033491839        0.31575558571518
C           17.27022752265979       33.45156180622634        2.79243867888388
H           17.72139669030105       33.67629328915144        1.82053293554453
H           18.06947435926721       33.41799240592491        3.54279911940407
H           16.58656830797545       34.26866610858887        3.04852405340929
C            9.11358405173493       30.15320751334993        2.73441999729998
H            8.97336737836268       31.10155734272319        2.20373027412043
H            8.23707612615546       29.97458996987566        3.36767046901941
H            9.18924872291015       29.34969109652896        1.99678273179101
N           10.60431688356598       31.07457926847730        4.58509011581935
H            9.97883448821040       31.79449316007688        4.90341596015474
C           10.37684753620211       30.19529369172922        3.55835992324613
C           11.85650361560551       30.79235658464743        5.05819972866433
H           12.30594820479506       31.29074395114473        5.90083088788634
N           12.40830194548732       29.81806302706341        4.38305344533843
C           11.50466477864397       29.43527730581144        3.43885664860376
H           11.72278139789593       28.63619773592617        2.75373165669766
O           16.46232975457604       28.01932623005460        4.93860116591489
H           16.38556189437058       27.25864242060593        4.36322589445645
H           17.25105114966881       28.22524640838403        5.40512170291834
78
 energy: -116.034252148094 gnorm: 0.030118645094 xtb: 6.7.1 (edcfbbe)
Fe          14.44147175725581       29.08593385164579        4.90786529278212
N           14.73811843966521       30.42878996620572        6.41240436272893
N           13.70054354201008       27.77505998511229        6.28874881832757
N           14.23471880652895       27.70070723028952        3.47360881869752
N           15.25821754723254       30.37981490831324        3.60431996669957
C           15.17072014076990       31.71432135562817        6.27538874863060
C           15.04605916813323       32.43532781236911        7.52680074452032
C           14.56433734636371       31.54279103999316        8.43587065828654
C           14.37934461621276       30.29186818363835        7.71907431364801
C           13.45785726910713       28.01406184541879        7.60808790398018
C           12.75381954464141       26.89289614087222        8.20443316203953
C           12.61996405957046       25.95751625282678        7.22157331260773
C           13.22924399382512       26.53039104310864        6.02995733903076
C           13.81182497649302       26.41654071104309        3.64250221263228
C           13.95983740562597       25.67490703008713        2.40609633231865
C           14.45980667773503       26.55558457041730        1.48091353099445
C           14.60943867460362       27.83439252026416        2.17257362587166
C           15.53165465897249       30.14246554001830        2.28893122270859
C           16.32591701088036       31.23670295606719        1.74040836674896
C           16.49118182319608       32.13698792660612        2.75262406404437
C           15.79512729908999       31.59462190732623        3.90049185446133
C           15.68944937787934       32.25372530009523        5.11304749734369
H           16.05962108874555       33.26817485290925        5.16037820476340
C           13.83194680772119       29.15765093622935        8.29938461918176
H           13.66312722913940       29.17780406240655        9.36646800348517
C           13.31578529478463       25.86336386427316        4.81820388631712
H           12.97288552936690       24.83872415349065        4.79755939355779
C           15.13768435484782       28.99275654317906        1.60886720443868
H           15.28657296488240       28.98435927715337        0.53518949434454
C           14.17694429161167       31.75484175190708        9.86199921259478
H           14.30888226910057       32.79276201795421       10.15626735777314
H           14.77478495902074       31.13439214766194       10.52754157560104
H           13.12938666288853       31.49318912835433       10.00931317239482
C           15.35212987819193       33.88769760326380        7.69321070899074
H           14.70957229030175       34.48663493601409        7.04772776768387
H           16.38540270996703       34.10249105506870        7.42676933133985
H           15.19301912768909       34.20644922005125        8.71962651377905
C           12.24078886494249       26.82963108434552        9.60379419398225
H           11.52836359054229       27.63153316674016        9.79522398826252
H           13.05303874476077       26.92630513564434       10.32193868674111
H           11.74050890169672       25.87950117021646        9.77445442765895
C           11.98822358968865       24.63609213031082        7.28876166121862
H           10.97762053460853       24.55166619175291        6.89863569461332
C           12.58770981971118       23.56835341378705        7.78230881132878
H           13.59009714304434       23.62161231988415        8.17121176224838
H           12.11213062196396       22.60101953803067        7.81643460655138
C           13.59036029474287       24.23551684457361        2.27256654633081
H           12.53172416494749       24.09108986966971        2.48975537284027
H           14.15439434303546       23.63085936958313        2.98281521893057
H           13.78796854941996       23.86970443361635        1.27014284870752
C           14.78235944730616       26.37778088574395        0.07347111850510
H           14.45735179030312       27.20090679357923       -0.55522175509708
C           15.43138178748808       25.40690774029935       -0.56929231990157
H           15.84713005630720       24.53704964464028       -0.09178185410732
H           15.58012273554347       25.47862069032378       -1.63566427117888
C           16.88464601767661       31.32773753400941        0.35781003415883
H           16.12970420017511       31.69070677128440       -0.33987995843604
H           17.23659084157169       30.36174715831016        0.00652309801334
H           17.72215441504873       32.02231568850969        0.33069810907824
C           17.24870503802426       33.42643378780220        2.78233293211071
H           17.70170009128231       33.65128613514431        1.82098184506071
H           18.04208872453842       33.39460660158399        3.52935741136307
H           16.58494597202370       34.25086210918238        3.04142898922497
C            9.12917677244143       30.16036062569014        2.74317310954999
H            8.97852919257238       31.09969470659748        2.21408117328026
H            8.25861835213814       29.98148947892810        3.37170733159262
H            9.19516014175931       29.36129096137676        2.01255672734289
N           10.60863304864133       31.06008176669270        4.58017041810704
H            9.97911196930533       31.78049927351519        4.89815770280551
C           10.38120786239456       30.19086973597404        3.54431932558304
C           11.84575361092042       30.79486881393692        5.06773149783868
H           12.28961579821156       31.30576448547576        5.89609242504195
N           12.41252092703243       29.82145438058100        4.41143267221729
C           11.51630609372529       29.43251733774063        3.45567151392897
H           11.73753975609447       28.64051880594162        2.77146602292685
O           16.45567817614396       28.03474923410869        4.96770487201261
H           16.42453342766889       27.27079261110016        4.38774216959776
H           17.27940499650529       28.22050194650957        5.41795724461732
78
 energy: -116.039743614471 gnorm: 0.025611863501 xtb: 6.7.1 (edcfbbe)
Fe          14.43256650474812       29.07871465617199        4.90674022908674
N           14.70232350316945       30.43563931519359        6.40586649153939
N           13.67331925967131       27.78659102582142        6.27377946292194
N           14.23975937498397       27.70590208240744        3.46908263527759
N           15.27239083502003       30.36397400472377        3.61028889460488
C           15.15239161584471       31.71174981117381        6.27007442615485
C           15.03537514021770       32.43220901922128        7.52012679404738
C           14.54774368254366       31.53979345082309        8.42803405826965
C           14.34897063058208       30.29898687371790        7.71006646030099
C           13.44133926768983       28.01652197121749        7.59374995338446
C           12.76315190076369       26.88937059130507        8.19616499560870
C           12.62404785743519       25.95814560833692        7.20816144955363
C           13.20997662847907       26.54061477082165        6.01570069241981
C           13.82004653568878       26.42139050272021        3.63172500826187
C           13.96689952691044       25.68428140737475        2.40156211105345
C           14.45336762165307       26.57175896395586        1.47225550386733
C           14.60923575253962       27.84041691104712        2.17046271567895
C           15.53753906224005       30.13257316397587        2.29731330143380
C           16.31208958685555       31.22833707875972        1.74085523794900
C           16.47549642702371       32.13091081607353        2.75147742563462
C           15.79429591669118       31.58128946710412        3.90294337918718
C           15.68661191182539       32.24398197156616        5.11218743185903
H           16.06847324032524       33.25306449101031        5.16113331449618
C           13.80116066314065       29.16270890960277        8.28245255129468
H           13.61566006715074       29.18504050845773        9.34633480894317
C           13.31093076412048       25.87937935989233        4.80564338774792
H           12.96662746634185       24.85589921746814        4.78373531191137
C           15.16044149671822       28.98445846055149        1.61081404204801
H           15.36084240312483       28.96241145905472        0.54367480271978
C           14.18262738278457       31.75231756756840        9.85619087735627
H           14.32664005487000       32.78941977162536       10.14601782026322
H           14.78388041495186       31.12671544274141       10.51413951336892
H           13.13526008379795       31.49631917006543       10.01694114368350
C           15.35548118303078       33.87663591726361        7.69229278753372
H           14.71875244985643       34.48328144050104        7.04768528237967
H           16.39109886338438       34.08379872579845        7.42819834880837
H           15.19793107174499       34.19158123863340        8.71999378611452
C           12.25842755905178       26.82353086044403        9.59392299854994
H           11.54578410760803       27.62688152597894        9.78207203492351
H           13.06920544608069       26.92350664557782       10.31390278764641
H           11.75907577185776       25.87315875339598        9.76603159190477
C           12.00014951499147       24.64146403682141        7.27837040727543
H           10.99293813241815       24.56821418324932        6.87959016801757
C           12.58983173817225       23.57211626866067        7.78359639281135
H           13.59095493470503       23.61853839333294        8.17774449601518
H           12.10853113920789       22.60963819322173        7.82277437597855
C           13.60003098418581       24.24985947948663        2.25419250106460
H           12.54233000320776       24.10454232263139        2.47620945003793
H           14.16747297722844       23.63755168626821        2.95551715273491
H           13.79345900783502       23.89646785142992        1.24666029206845
C           14.76193563025273       26.40508208343062        0.07024571594263
H           14.44776584137756       27.23479319543780       -0.55611217986967
C           15.40754570114970       25.41119465048453       -0.54219558341332
H           15.81397917145739       24.55082520957834       -0.04024779325432
H           15.57057023033666       25.45132963623910       -1.60820072904628
C           16.86286397734204       31.31207567935762        0.36045292151830
H           16.10897403594516       31.66898397985845       -0.34169989952505
H           17.21612167245456       30.34331735887779        0.01673972123391
H           17.69997145719059       32.00659349396407        0.33258926097489
C           17.23127145459060       33.41356280262733        2.77184374235660
H           17.68275797889534       33.62691657127345        1.80754555650882
H           18.02395545360561       33.37624470666771        3.51964158015122
H           16.57377748133305       34.24385359787229        3.02915580020936
C            9.14649522836778       30.16082936041581        2.74974595093991
H            8.99332843344139       31.10268214197897        2.22482039608313
H            8.27913390720862       29.98516557005484        3.38440391025793
H            9.20294461911334       29.36326533878481        2.01654413947764
N           10.61211403548879       31.05638936894186        4.58233749647062
H            9.97455902377608       31.77167904962880        4.89509311639215
C           10.39798198156799       30.18520898621820        3.54560126807205
C           11.84193690344115       30.80343634445151        5.08316948546827
H           12.27753718112799       31.33126395958451        5.90518702321854
N           12.42166047329624       29.82378035209240        4.44180666131628
C           11.53728599152469       29.42978674562017        3.47670088177637
H           11.76607522721170       28.63765525498337        2.79571303594161
O           16.45664178443680       28.03790959097956        5.03815327127422
H           16.48064512898597       27.29820645410436        4.41907861319057
H           17.30723253061036       28.23831317224574        5.44043555054132
78
 energy: -116.043188077163 gnorm: 0.040649951916 xtb: 6.7.1 (edcfbbe)
Fe          14.41574883294775       29.07763684275938        4.91077100715118
N           14.66777768288874       30.44004801765210        6.39858625218826
N           13.64484265400327       27.80275386830094        6.25455113742626
N           14.25058992324468       27.71222394405864        3.47238314868203
N           15.28104521101686       30.34462140969137        3.61917863569740
C           15.13309143754949       31.70878036263640        6.26434589902942
C           15.02416466183221       32.42803988435099        7.51372912110436
C           14.52568674973709       31.54031791523049        8.41883233842060
C           14.30955315985277       30.30705812498084        7.69978687642828
C           13.41963564636020       28.02432334347167        7.57500895812084
C           12.77042014425260       26.88613131054109        8.18099570576842
C           12.62877862619440       25.96017878435089        7.19120130582887
C           13.19258502007376       26.55145726605804        5.99711589513470
C           13.82767816629188       26.42685419366919        3.62366031974377
C           13.97187473193699       25.69704049129300        2.39412449932654
C           14.44764558622622       26.58997408432058        1.46641283431642
C           14.61572120225773       27.84613047761800        2.17315006224606
C           15.54704484028695       30.11831470407352        2.30779097014158
C           16.29990914274686       31.21830735317259        1.74474955196173
C           16.45868901847031       32.12286983795602        2.75045133238448
C           15.79146517264855       31.56835584449307        3.90602902388061
C           15.68482195329459       32.23478095937174        5.11208920222850
H           16.07847919368720       33.23867185210266        5.16234137660489
C           13.75714856172898       29.17270349993567        8.26493845769943
H           13.55346658313305       29.19507760357792        9.32556233799860
C           13.30425717808672       25.89084242088410        4.79035883074695
H           12.95856612552992       24.86765519442348        4.76498014969092
C           15.19413417356898       28.97336135437726        1.61432998710279
H           15.43319030509307       28.94077445037227        0.55801321356947
C           14.18608871552351       31.75124190325456        9.85362741713143
H           14.34750152541841       32.78700965964595       10.14189539478373
H           14.79547307120498       31.11682136718680       10.49739823185258
H           13.13874043465019       31.50384376706621       10.03390143257991
C           15.36336290241747       33.86693589117844        7.69171571551307
H           14.73567057281794       34.48472846275545        7.04698563290949
H           16.40347429386534       34.06074202686261        7.43127276131518
H           15.20646677749444       34.17848220453624        8.72138856317426
C           12.27878291016314       26.81388356598058        9.58387865137184
H           11.56455104588321       27.61704525691724        9.77436294312119
H           13.09428405417445       26.91726031762186       10.29927020376034
H           11.78382811415182       25.86082543761727        9.75775553494780
C           12.00919215970551       24.64077754659511        7.26353582151630
H           11.00939794537066       24.57081204853975        6.84639391147006
C           12.58963528047712       23.57494974678441        7.78942943944589
H           13.58773020290418       23.62139882700690        8.19351451882560
H           12.10359034739467       22.61499210216612        7.82807219082201
C           13.60607514307509       24.26428073424401        2.22860820407114
H           12.54963501157255       24.11430025416453        2.45685600651674
H           14.18219074703227       23.64193930234758        2.91544879230546
H           13.79346508495161       23.93044313882650        1.21215084053460
C           14.74594160927883       26.43231915742578        0.06201050332303
H           14.43690775967899       27.26469208745106       -0.56293174588516
C           15.38070971514728       25.41397925476803       -0.51578505134868
H           15.76625718420952       24.56413703630254        0.02404913986150
H           15.55686300116113       25.41132313246871       -1.58205491043864
C           16.83949557408586       31.29311387544181        0.35915330538482
H           16.07964449850241       31.63872536012866       -0.34306343259899
H           17.19303693186810       30.31962859664049        0.02493302748330
H           17.67506267926956       31.98963923335015        0.32057781767696
C           17.21204738271193       33.40607459917774        2.75928832387032
H           17.66103462809150       33.60519910791944        1.78987788701647
H           18.00619689244347       33.36830589890734        3.50660115720655
H           16.55781665662338       34.24105260575449        3.01053445339208
C            9.16886422366496       30.15739723442013        2.75766274433371
H            9.01734529091815       31.10423350449790        2.23847279332374
H            8.30474011824504       29.98518308129670        3.40000530190261
H            9.21518484313809       29.36249087795650        2.01977387040449