78
 energy: -115.980446263584 gnorm: 0.255102402953 xtb: 6.7.1 (edcfbbe)
Fe           1.47900000000000        5.76100000000000       13.86400000000000
N            2.44900000000000        7.48900000000000       14.18000000000000
N            1.98100000000000        5.83200000000000       11.89600000000000
N            0.56200000000000        3.96800000000000       13.57800000000000
N            1.02400000000000        5.63500000000000       15.85200000000000
C            2.52800000000000        8.18600000000000       15.37200000000000
C            3.19900000000000        9.44500000000000       15.14000000000000
C            3.52400000000000        9.48200000000000       13.84100000000000
C            3.05300000000000        8.26700000000000       13.21800000000000
C            2.69100000000000        6.83000000000000       11.26100000000000
C            2.83700000000000        6.47500000000000        9.86400000000000
C            2.22900000000000        5.29500000000000        9.67500000000000
C            1.69100000000000        4.86900000000000       10.94400000000000
C            0.39600000000000        3.32600000000000       12.36600000000000
C           -0.46300000000000        2.17300000000000       12.56000000000000
C           -0.79800000000000        2.12700000000000       13.86100000000000
C           -0.13200000000000        3.22900000000000       14.51000000000000
C            0.37200000000000        4.56700000000000       16.47400000000000
C            0.38200000000000        4.73500000000000       17.90700000000000
C            1.08000000000000        6.03900000000000       18.12800000000000
C            1.43200000000000        6.54500000000000       16.82300000000000
C            2.06400000000000        7.73600000000000       16.57800000000000
H            2.21300000000000        8.39400000000000       17.43400000000000
C            3.19100000000000        7.95600000000000       11.88300000000000
H            3.74400000000000        8.66200000000000       11.26300000000000
C            0.97600000000000        3.71400000000000       11.17100000000000
H            0.85500000000000        3.03800000000000       10.32500000000000
C           -0.20100000000000        3.50000000000000       15.84900000000000
H           -0.76300000000000        2.80200000000000       16.47000000000000
C            4.22400000000000       10.62600000000000       13.08700000000000
H            4.43600000000000       11.45900000000000       13.79100000000000
H            3.56400000000000       11.00000000000000       12.27500000000000
H            5.18300000000000       10.26200000000000       12.65900000000000
C            3.46300000000000       10.55600000000000       16.18500000000000
H            3.39600000000000       10.12700000000000       17.20799999999999
H            2.70200000000000       11.35800000000000       16.08000000000000
H            4.48100000000000       10.97600000000000       16.03700000000000
C            3.55500000000000        7.33000000000000        8.79700000000000
H            4.50100000000000        6.83100000000000        8.49700000000000
H            3.79200000000000        8.33100000000000        9.21600000000000
H            2.90500000000000        7.43700000000000        7.90200000000000
C            2.10900000000000        4.48700000000000        8.36700000000000
H            1.27800000000000        3.77800000000000        8.23700000000000
C            2.99100000000000        4.61200000000000        7.35700000000000
H            3.83900000000000        5.30800000000000        7.43900000000000
H            2.87500000000000        4.01900000000000        6.43800000000000
C           -0.87300000000000        1.20600000000000       11.42700000000000
H           -0.06600000000000        1.16500000000000       10.66400000000000
H           -1.80700000000000        1.56700000000000       10.94500000000000
H           -1.02900000000000        0.18700000000000       11.84100000000000
C           -1.67200000000000        1.12000000000000       14.61800000000000
H           -1.46100000000000        0.86000000000000       15.66600000000000
C           -2.71400000000000        0.54200000000000       13.99900000000000
H           -2.94600000000000        0.78500000000000       12.95200000000000
H           -3.34800000000000       -0.18200000000000       14.53200000000000
C           -0.16600000000000        3.81800000000000       19.00700000000000
H            0.20200000000000        2.78300000000000       18.84400000000000
H           -1.27600000000000        3.81500000000000       18.97400000000000
H            0.18300000000000        4.17300000000000       20.00000000000000
C            1.33300000000000        6.67600000000000       19.49200000000000
H            1.62000000000000        5.88900000000000       20.22100000000000
H            0.40900000000000        7.17800000000000       19.84900000000000
H            2.16000000000000        7.41400000000000       19.41400000000000
O            3.26900000000000        4.74100000000000       14.24400000000000
H            3.28000000000000        4.56900000000000       15.18600000000000
H            3.89800000000000        4.50900000000000       13.66000000000000
C           -2.54200000000000        9.74000000000000       13.08400000000000
H           -3.54500000000000        9.59800000000000       13.54100000000000
H           -2.66900000000000       10.06400000000000       12.02900000000000
H           -1.99200000000000       10.51700000000000       13.65600000000000
N           -2.23200000000000        7.30000000000000       12.51300000000000
H           -3.08400000000000        7.23000000000000       11.99500000000000
C           -1.78400000000000        8.44700000000000       13.12900000000000
C           -1.36300000000000        6.32600000000000       12.71800000000000
H           -1.47900000000000        5.30900000000000       12.34600000000000
N           -0.35800000000000        6.80100000000000       13.43600000000000
C           -0.60800000000000        8.12100000000000       13.72200000000000
H            0.07700000000000        8.70700000000000       14.32300000000000
78
 energy: -116.030264474720 gnorm: 0.100638992925 xtb: 6.7.1 (edcfbbe)
Fe           1.45724754951579        5.76528629606035       13.85649278819576
N            2.43683190691501        7.49365703521574       14.17731130508987
N            1.97747168524177        5.82664542218363       11.88951340616900
N            0.54812165872730        3.96892380413607       13.57463028873312
N            1.03623784509396        5.62589076570259       15.85374946929110
C            2.52325230288871        8.18357339633502       15.36390272742818
C            3.19732897009025        9.45103923261744       15.14526148381241
C            3.52459379863618        9.49288215350937       13.83162659194780
C            3.04684924870152        8.26594432569837       13.22555249788318
C            2.68691332478132        6.81438388048609       11.25690074081380
C            2.84424167646377        6.47895523881545        9.85424506607509
C            2.23066625172950        5.27843991092887        9.65752681120065
C            1.68678661457325        4.87558768429857       10.94222165606031
C            0.39156040036488        3.32152925874506       12.37583102310498
C           -0.46194639826772        2.16042120719524       12.55226139868947
C           -0.79777823461740        2.10885467195805       13.87160470787016
C           -0.13825899495908        3.23433224052532       14.50495957152761
C            0.39145523071654        4.58872837478973       16.49121269480035
C            0.40255128518056        4.77891128227800       17.91846149562016
C            1.05955234709387        6.01192049484739       18.13065490133826
C            1.41915499538200        6.51604719550402       16.82951996067129
C            2.05863787669852        7.72411990583330       16.58059500842324
H            2.21173136003081        8.37951900317004       17.43256543052613
C            3.18472601816474        7.94744798824510       11.88525596951988
H            3.73420537976203        8.65420904914509       11.27130459560243
C            0.97020323430726        3.71555282287884       11.17631510303135
H            0.84576629753984        3.04764306495448       10.33091883669560
C           -0.19663559032612        3.50969274679784       15.85534784622657
H           -0.75279217541623        2.81302563012043       16.47341818308049
C            4.21816217912421       10.61456422162269       13.09299135792659
H            4.43160323978544       11.44207996481253       13.77658493719688
H            3.57824424755090       10.99000060078621       12.28686151903235
H            5.16382361352160       10.26670388720610       12.66201045076635
C            3.45823000861926       10.53389144482094       16.17648824842121
H            3.39737938307364       10.13216569680097       17.19196861369868
H            2.71800126872296       11.33739990441937       16.07971132802788
H            4.45653825446375       10.96318550335593       16.03758339022048
C            3.54841541028564        7.32839273088493        8.81662499376216
H            4.49012130367332        6.85461916675960        8.51548309728805
H            3.78186696724501        8.32040522943138        9.21030189502413
H            2.91774478925014        7.43493277912440        7.92594187837395
C            2.12141044476720        4.50369485032621        8.38426856376323
H            1.29225081805682        3.80475105650868        8.27431280727553
C            2.98047218032655        4.61360533616050        7.37091315165234
H            3.83042335960954        5.27763055627565        7.42552273415531
H            2.86876110257591        4.02852785526017        6.46316747255990
C           -0.86315037258047        1.21640551828589       11.43817435434846
H           -0.07818634840062        1.16567288638275       10.67713388764464
H           -1.78633613079898        1.55998514805146       10.95462655762609
H           -1.02607658035975        0.20954527023168       11.83609717426070
C           -1.66395175124990        1.13029349397761       14.58713480274114
H           -1.44542653823474        0.89072119181899       15.62783062203358
C           -2.70421317280848        0.54639872279765       13.99669926264708
H           -2.95988234553075        0.77875357698189       12.97179284013243
H           -3.33248828784281       -0.16665746528543       14.52245719663840
C           -0.14847341755433        3.84655483427741       18.97886623612627
H            0.19999552988551        2.81449010832676       18.83454759102751
H           -1.24656783292900        3.82600249640571       18.96650667355059
H            0.17386972100772        4.17201919395186       19.97326758540914
C            1.32648873017768        6.65897540558432       19.46779502519902
H            1.61373316594909        5.90238457087362       20.20685284012400
H            0.42748242082353        7.16793536818664       19.83860058680272
H            2.13795898435094        7.39379432345813       19.40747558465018
O            3.26048700116166        4.74283873290432       14.26204968160812
H            3.30441023264431        4.55333802849053       15.19849551830586
H            3.93202964751289        4.49148234732702       13.65374514665034
C           -2.54566213466486        9.73548771284765       13.08414184965756
H           -3.53738279092163        9.60870281954712       13.53350730294256
H           -2.67141692835229       10.06733677568510       12.04724371125329
H           -2.00257884865398       10.50212334601523       13.64233861411730
N           -2.24131792969801        7.31244212640728       12.51193951606437
H           -3.09718565986026        7.23834944521704       11.99042398120668
C           -1.79110060255926        8.45176374769779       13.12896538857925
C           -1.35043644883451        6.33498264161420       12.72395876890934
H           -1.46235660363034        5.32831946743140       12.35634130593198
N           -0.34871939729237        6.79107054197427       13.44439454586608
C           -0.60885896076995        8.10707653162003       13.71372619559316
H            0.06918921434919        8.69069622338231       14.30897165377888
78
 energy: -116.043524030410 gnorm: 0.031953896326 xtb: 6.7.1 (edcfbbe)
Fe           1.43897252317465        5.76635248879596       13.85451615927240
N            2.41734724400852        7.49814278404072       14.17476250542661
N            1.96417582395465        5.82526008884329       11.88668641114123
N            0.53150905842529        3.97614257964675       13.57053304873061
N            1.03880033888683        5.62306001478770       15.85401543420759
C            2.51098038249284        8.17891491074280       15.35519147266502
C            3.19093276266052        9.44769232957075       15.14774184573824
C            3.51830769313239        9.49452703040821       13.82585677926295
C            3.02919356365916        8.26470930033997       13.23108582149982
C            2.67658559590754        6.80349069446290       11.26031135060784
C            2.85311710363485        6.48114704598370        9.85958290492008
C            2.23493863717975        5.26968018613218        9.65455690217292
C            1.67823525772030        4.88440137922217       10.94500053322711
C            0.38385585187897        3.32685015882347       12.38177823602952
C           -0.45947479858845        2.16007404152123       12.54482222734199
C           -0.79850313679320        2.10678787309354       13.87421829451495
C           -0.14171661979028        3.24377532653500       14.49977325898477
C            0.40607590864213        4.60119069101791       16.49425218587408
C            0.41873317921128        4.81211831480549       17.92195766819644
C            1.04521340486286        5.99362430438231       18.12842395053150
C            1.41419415415922        6.49965487996835       16.82623665772956
C            2.05447778696511        7.71397448310055       16.57928639205078
H            2.21492880204715        8.36217674602398       17.43060027413937
C            3.16994364443717        7.94131939990348       11.89000918903512
H            3.72071511246348        8.64585010615119       11.28141595907570
C            0.95880822601239        3.72269909728474       11.17917189165705
H            0.82817390454351        3.06155898154609       10.33381194866518
C           -0.18952939837978        3.51781909017985       15.85662234163982
H           -0.73834604331230        2.82329441987375       16.47664233517787
C            4.20949187551463       10.59866840078925       13.09709492992491
H            4.42589410934373       11.42288020047728       13.77105315390333
H            3.58262245882964       10.97692150608946       12.29110715931744
H            5.14794185738899       10.25676031887420       12.66312479155534
C            3.45149440438345       10.50872926165615       16.16819400673868
H            3.39372367239843       10.11841818071406       17.17915416696546
H            2.72173662637150       11.31469804742196       16.07598078115396
H            4.44073231878643       10.94193224949746       16.03043374945766
C            3.54394632276654        7.32781647490226        8.84304354498429
H            4.49049712114473        6.87686430551701        8.54425355004622
H            3.75977428542505        8.32000700232834        9.22456974752326
H            2.92520850126335        7.42540408210039        7.95085362203290
C            2.13097240341874        4.52011710634272        8.41724497111949
H            1.29886917589411        3.82953380030408        8.33219102815292
C            2.97154443221098        4.61025463092452        7.38957924733759
H            3.83206086272550        5.24974710231349        7.41078374723691
H            2.84529206421153        4.03168369312806        6.48934097298163
C           -0.84969316841708        1.22551267121593       11.45016002839327
H           -0.07524615791134        1.16851437093038       10.69000127555725
H           -1.76766572538371        1.56062834950463       10.96452760348574
H           -1.02102085066845        0.22628086485753       11.84408361498579
C           -1.64960309281085        1.14981671795335       14.55496558463514
H           -1.41756010629753        0.93005014631997       15.59114291091070
C           -2.69497749471653        0.55230911453719       13.99161277724259
H           -2.98225874658007        0.77181605889193       12.98008018115250
H           -3.31183240014135       -0.15460543535086       14.52114228435099
C           -0.13392424008034        3.87488251618846       18.95318379986487
H            0.21265888176002        2.85157292942669       18.79869709063737
H           -1.22508393483841        3.85351423543075       18.93563897055235
H            0.17376507516670        4.18484796157856       19.94974701051211
C            1.32073551239542        6.64746545370095       19.44601976481008
H            1.60698202814725        5.90364328308481       20.18854858755203
H            0.43247592198535        7.16046133181636       19.81867212785027
H            2.12494370836493        7.37654082409071       19.37994514475537
O            3.26559106152204        4.73780894724782       14.27674922443270
H            3.35999373422755        4.52103852103334       15.20624110725673
H            3.95550598491179        4.47366181388390       13.66883772146029
C           -2.54563558164240        9.73141895411659       13.08666949518127
H           -3.53277683859304        9.61328318161490       13.53026728028033
H           -2.67161694595376       10.06723261727550       12.05861652126370
H           -2.00554020364814       10.49309569080882       13.63722054946317
N           -2.24574681794053        7.31735175753538       12.51154332141856
H           -3.10318267470516        7.23910757445234       11.98850404449653
C           -1.79363763404414        8.45192414069496       13.13101245528974
C           -1.33823103428676        6.33992804327115       12.72643873966046
H           -1.44549994719019        5.34032633811931       12.35990442033818
N           -0.33565827448756        6.78512026642696       13.44227097012496
C           -0.60761023899666        8.09533220236623       13.70874066335116
H            0.06490174557887        8.68239344640673       14.29794757878567
78
 energy: -116.047015172632 gnorm: 0.019104743822 xtb: 6.7.1 (edcfbbe)
Fe           1.43829334428216        5.76365924220326       13.85728237479688
N            2.39948788756395        7.50040764644591       14.17313890962693
N            1.95443057317617        5.82752131174359       11.89289967686319
N            0.52405938675872        3.98785447278015       13.56563719275797
N            1.04041633310183        5.62645941340253       15.84857567884866
C            2.49841300525643        8.17844782662644       15.34970571277652
C            3.18062936461880        9.44288045104350       15.14516909148847
C            3.50478037638862        9.49232184460272       13.82317785391312
C            3.00984707986269        8.26630815410788       13.23198678084435
C            2.66804593380621        6.80398360797201       11.27038678869021
C            2.86029563127469        6.48425623526781        9.87630132141903
C            2.24297428802405        5.27222244868584        9.66684138258047
C            1.67153813701323        4.89229133312862       10.95067810078602
C            0.37679038669947        3.34030171464259       12.37807520125708
C           -0.45796999904831        2.17217544307680       12.53677321329665
C           -0.79990633367373        2.11964433142159       13.86530233975205
C           -0.14457989404864        3.25496674031846       14.49247351044125
C            0.40874704444939        4.60413365873570       16.48284936654352
C            0.41984304276125        4.81505315817704       17.91164614299747
C            1.04740096143176        6.00259249840035       18.12180357116361
C            1.41542148886184        6.50463699692831       16.81643162636341
C            2.05226863746494        7.71529408871075       16.57602289309979
H            2.22284690700876        8.35507040297583       17.43038482901665
C            3.15530733750951        7.94377486180333       11.89477680807121
H            3.70691536496427        8.64678101524112       11.28759211705781
C            0.94637107942261        3.73459327338052       11.17562307446732
H            0.80511384876899        3.07925960791612       10.32833577796077
C           -0.18764757906557        3.52308629209483       15.84987244960039
H           -0.72712002486939        2.82642738639376       16.47463723753674
C            4.20272630686066       10.58742053963705       13.09329330443091
H            4.42441326098131       11.41113076585211       13.76629813809801
H            3.57943440356932       10.96743858121817       12.28478481229299
H            5.13848180080735       10.23695508621645       12.65929097157491
C            3.44631457765213       10.49303655865679       16.16923146385922
H            3.39031973484428       10.09695548103562       17.17812255650292
H            2.71720095441785       11.30029837237620       16.08163359233694
H            4.43599176589070       10.92372053497588       16.02790280009930
C            3.54697012209077        7.33968837749212        8.86978418429368
H            4.51225437192709        6.91439469217260        8.58920388227407
H            3.72738139031599        8.34121476848935        9.25006430701367
H            2.93805802127329        7.41405067037409        7.96772573192471
C            2.12964124885747        4.52268604542524        8.44027110609693
H            1.29186985487763        3.83641501995613        8.37992255455555
C            2.95376435406399        4.59534757992477        7.39594023665391
H            3.83491432599356        5.21112139382023        7.39470966827365
H            2.80196676560051        4.00873596489479        6.50568269542529
C           -0.83841057767578        1.22959487617215       11.45064337111441
H           -0.05958595066122        1.16549262891029       10.69512713391630
H           -1.75481816976074        1.56004926334758       10.95816644711570
H           -1.01333406228391        0.23525851017819       11.85583576164550
C           -1.64352466643818        1.16348765856158       14.54022695376489
H           -1.39891786691527        0.95499359165245       15.57513831346015
C           -2.69078809310948        0.55338141103129       13.99155783074796
H           -3.00474691852330        0.76797731469196       12.98491581859408
H           -3.29212679955611       -0.15598954140048       14.53368703911877
C           -0.13490411064724        3.88062557367777       18.93311944450773
H            0.21788469445332        2.86355948740368       18.76528833590584
H           -1.22433096565943        3.86817417333283       18.90205404695684
H            0.16861181035550        4.18924649552836       19.93087353684373
C            1.32259582015796        6.65591922793646       19.43471266521088
H            1.60593481366658        5.91071359251319       20.17658500727354
H            0.43368823907513        7.16968056438609       19.80245046611788
H            2.12810287042726        7.38018258291830       19.35879658262712
O            3.28607512387638        4.72446451092015       14.29142946797542
H            3.41569314083929        4.48616873110605       15.21407805538849
H            3.97744785260991        4.45328297067502       13.68505310219773
C           -2.54339478588800        9.72617921149205       13.09136518633830
H           -3.53153387404411        9.61134459937413       13.53440928045591
H           -2.67004074949214       10.06446833095552       12.06386215137550
H           -2.00182558742724       10.48759293960235       13.64118235085929
N           -2.24226419813371        7.31302378243844       12.51139294544984
H           -3.09984085848252        7.23305000348688       11.98862440039015
C           -1.79090784717424        8.44677705618692       13.13359340607976
C           -1.32826452763116        6.33813385334172       12.72270013278021
H           -1.42990336691085        5.34041938884976       12.35134986913413
N           -0.32660429365245        6.78158799760559       13.44008310905294
C           -0.60260030490670        8.09060346178305       13.70679877888185
H            0.06791733972334        8.68253986059584       14.29265597899501
78
 energy: -116.049231772088 gnorm: 0.013717668215 xtb: 6.7.1 (edcfbbe)
Fe           1.43553883934615        5.76617316401566       13.85753397983493
N            2.38431274345547        7.49990471391555       14.17295532989168
N            1.94703976441369        5.83060996606157       11.90397894978025
N            0.52119418941122        4.00418028124251       13.56186518796872
N            1.03953933062964        5.63568522295933       15.83298159756320
C            2.48776189939420        8.17774018611409       15.34553564676874
C            3.16979574742963        9.43850413720703       15.14325580149385
C            3.48828958363359        9.49122992508411       13.82156671634003
C            2.99086101536810        8.26864100364999       13.23338193647885
C            2.66322132873012        6.80542589140709       11.28383155203225
C            2.86663421790726        6.48803650368420        9.89595677791416
C            2.24723545532810        5.27901994079958        9.68210742175020
C            1.66598207171345        4.90139204780775       10.95876203146547
C            0.37067016259176        3.35815256004929       12.37377753678552
C           -0.45953194471771        2.19181831978376       12.52838076144192
C           -0.80314109706624        2.13859797949588       13.85537108576368
C           -0.14720838420950        3.27019189975887       14.48487042835612
C            0.41073979896020        4.61201990475609       16.46544183680028
C            0.42007283039259        4.82098695944376       17.89519285099018
C            1.04915236382695        6.01140538979980       18.10743290141208
C            1.41650532671197        6.51154932675578       16.80066750714896
C            2.05187831137172        7.71753688758247       16.57377720297131
H            2.23065501433474        8.34794012951503       17.43214126996311
C            3.14203316774371        7.94935112425878       11.90015579499511
H            3.68998552611241        8.65363763580644       11.29320084408427
C            0.93147328516636        3.74996199301551       11.17031073963207
H            0.77300693272540        3.10246827618840       10.32063773362396
C           -0.18586927479436        3.53163756730779       15.84197013008368
H           -0.71603344416142        2.83363946689820       16.47271817188635
C            4.19431127448304       10.57680052791137       13.08615941999742
H            4.42496408856605       11.40149438483487       13.75619133484664
H            3.57425018646349       10.95824109309223       12.27442607609020
H            5.12668446113144       10.21185003816720       12.65354910950573
C            3.44182395464755       10.47904171207797       16.17470365587922
H            3.39058145653390       10.07087497564988       17.17994271557498
H            2.71157509939830       11.28755911934188       16.09928451907495
H            4.43238416235356       10.90827702147328       16.03088334641905
C            3.55200243509509        7.34807636305606        8.89425475373551
H            4.53845783567195        6.95004902831055        8.64204713183547
H            3.68553875997155        8.36272152506970        9.26865929659284
H            2.96148250199150        7.39042023659098        7.97634349496995
C            2.12696401163882        4.52039263183926        8.46437947917200
H            1.27945529122310        3.84513875533429        8.42090511053222
C            2.94031402203770        4.57303035738472        7.41110961744307
H            3.81819691973950        5.19277679810056        7.38005211936690
H            2.75511679812874        3.98400134709107        6.52718592903286
C           -0.82701610636756        1.23520187472188       11.44965711873937
H           -0.03724544641104        1.15808340924634       10.70489609041269
H           -1.73830955725369        1.55762571327599       10.94019759323074
H           -1.00708338333428        0.24731717323092       11.87106501512624
C           -1.64016631480854        1.17835907437518       14.53141983074430
H           -1.38073439028046        0.97384699344324       15.56358363178400
C           -2.68851261405769        0.55706768395156       13.99749558092967
H           -3.01979689174956        0.75377708120446       12.99194148075970
H           -3.26793795032714       -0.16050773498818       14.55395215430168
C           -0.14041402166069        3.88507704560483       18.90756482814382
H            0.21472154449638        2.87101486710278       18.73130088105342
H           -1.22928139370725        3.87683596813940       18.86368801367865
H            0.15555373296124        4.18739534735930       19.90983998809076
C            1.32322821807942        6.66589965156582       19.41793270000861
H            1.60179820704232        5.92167560704505       20.16343356181007
H            0.43621865755977        7.18660706884499       19.78156438933274
H            2.13309607855863        7.38457392073984       19.33663229627479
O            3.31643495075682        4.71152697125583       14.30913257519577
H            3.48543876924114        4.43775187648221       15.21737664120034
H            4.00540328711892        4.42060048778854       13.70828618907893
C           -2.53984103309786        9.71889577974548       13.09847254526258