78
 energy: -115.967675935730 gnorm: 0.287760306251 xtb: 6.7.1 (edcfbbe)
Fe          12.24800000000000        1.93800000000000        0.64800000000000
N           12.81800000000000        0.14500000000000       -0.12300000000000
N           10.55100000000000        1.84000000000000       -0.46500000000000
N           11.65200000000000        3.66800000000000        1.50000000000000
N           13.89200000000000        1.96500000000000        1.83800000000000
C           13.98600000000000       -0.49900000000000        0.20600000000000
C           13.94500000000000       -1.78800000000000       -0.47600000000000
C           12.83000000000000       -1.87200000000000       -1.13500000000000
C           12.07100000000000       -0.61900000000000       -0.99900000000000
C           10.17400000000000        0.83300000000000       -1.34300000000000
C            8.98200000000000        1.20700000000000       -2.02000000000000
C            8.62600000000000        2.43900000000000       -1.56200000000000
C            9.63100000000000        2.84100000000000       -0.62100000000000
C           10.48200000000000        4.29500000000000        1.14200000000000
C           10.29700000000000        5.42700000000000        2.05200000000000
C           11.35400000000000        5.45600000000000        2.87200000000000
C           12.21500000000000        4.35200000000000        2.56500000000000
C           14.21100000000000        3.01600000000000        2.69600000000000
C           15.59200000000000        2.84200000000000        3.15300000000000
C           16.07200000000000        1.58300000000000        2.51700000000000
C           14.99600000000000        1.10700000000000        1.72500000000000
C           14.97800000000000       -0.04600000000000        0.99500000000000
H           15.86800000000000       -0.67100000000000        1.05800000000000
C           10.85700000000000       -0.33800000000000       -1.54500000000000
H           10.39800000000000       -1.09200000000000       -2.18400000000000
C            9.59300000000000        3.96100000000000        0.16000000000000
H            8.77300000000000        4.65600000000000       -0.01800000000000
C           13.44400000000000        4.08100000000000        3.12500000000000
H           13.81900000000000        4.72100000000000        3.92300000000000
C           12.33500000000000       -3.04300000000000       -2.05300000000000
H           13.10200000000000       -3.84700000000000       -2.07500000000000
H           12.17600000000000       -2.66800000000000       -3.08700000000000
H           11.38700000000000       -3.46000000000000       -1.65100000000000
C           15.03000000000000       -2.84400000000000       -0.31200000000000
H           15.48000000000000       -2.75900000000000        0.70000000000000
H           15.82400000000000       -2.68800000000000       -1.07400000000000
H           14.58800000000000       -3.85700000000000       -0.42600000000000
C            8.31400000000000        0.25800000000000       -3.03700000000000
H            8.36400000000000       -0.78500000000000       -2.65900000000000
H            8.84800000000000        0.31400000000000       -4.01000000000000
H            7.24800000000000        0.54200000000000       -3.17200000000000
C            7.45900000000000        3.28600000000000       -1.98200000000000
H            7.08700000000000        4.07100000000000       -1.30700000000000
C            6.84500000000000        3.13500000000000       -3.14000000000000
H            7.17700000000000        2.36500000000000       -3.85200000000000
H            5.99300000000000        3.77700000000000       -3.40800000000000
C            9.06600000000000        6.36700000000000        2.01800000000000
H            8.14800000000000        5.76900000000000        1.83400000000000
H            9.18300000000000        7.10900000000000        1.20000000000000
H            8.96600000000000        6.89000000000000        2.99300000000000
C           11.63600000000000        6.33800000000000        4.05000000000000
H           12.13300000000000        5.88100000000000        4.91700000000000
C           11.35200000000000        7.62400000000000        4.17000000000000
H           10.85400000000000        8.16500000000000        3.35100000000000
H           11.61000000000000        8.16900000000000        5.09000000000000
C           16.35600000000000        3.80100000000000        4.04300000000000
H           15.93300000000000        3.77100000000000        5.07000000000000
H           16.26500000000000        4.83500000000000        3.64600000000000
H           17.42500000000000        3.50300000000000        4.08500000000000
C           17.48300000000000        1.00500000000000        2.68600000000000
H           17.81100000000000        1.13000000000000        3.74000000000000
H           18.19200000000000        1.54400000000000        2.02100000000000
H           17.47700000000000       -0.07800000000000        2.43700000000000
O           11.33300000000000        0.89300000000000        1.97900000000000
H           11.50300000000000       -0.02300000000000        1.75800000000000
H           10.84800000000000        1.18800000000000        2.66400000000000
C           15.52700000000000        5.51600000000000       -2.25200000000000
H           15.01800000000000        6.40700000000000       -2.67700000000000
H           16.17100000000000        5.06200000000000       -3.03500000000000
H           16.14800000000000        5.83400000000000       -1.38700000000000
N           13.57900000000000        3.96600000000000       -2.69500000000000
H           13.50300000000000        4.21600000000000       -3.66000000000000
C           14.49200000000000        4.51300000000000       -1.79700000000000
C           12.84300000000000        3.07200000000000       -2.05300000000000
H           12.07400000000000        2.46100000000000       -2.52500000000000
N           13.19700000000000        3.05200000000000       -0.77100000000000
C           14.24600000000000        3.92700000000000       -0.59500000000000
H           14.72000000000000        4.05100000000000        0.37100000000000
78
 energy: -116.024827286128 gnorm: 0.113201322876 xtb: 6.7.1 (edcfbbe)
Fe          12.26174110192644        1.95604114311290        0.63248489355957
N           12.81649109467005        0.16187215381494       -0.12652103771996
N           10.56249191816602        1.84826069653734       -0.48359792269648
N           11.64013893517443        3.65820726292348        1.50265325175513
N           13.89820369294257        1.98162500784675        1.82645320903071
C           13.96983286708054       -0.49942198791518        0.19517442739735
C           13.95804672567403       -1.80024870556132       -0.46924211088532
C           12.81889330143459       -1.88569135258999       -1.16583323212385
C           12.08734829920664       -0.63337969184345       -0.97476961766264
C           10.17878160331163        0.84387826441988       -1.33988772840864
C            8.97274491699829        1.20047576498099       -2.02592188611678
C            8.61631147525398        2.44568613932463       -1.57655155545525
C            9.62223461446387        2.82767496267161       -0.61065992350600
C           10.48692051797240        4.30685332596209        1.16191162575586
C           10.28967800661764        5.44389630464859        2.05305497198849
C           11.35216850882586        5.46076274893073        2.89847837593086
C           12.20622125488076        4.34506182783994        2.54890287419511
C           14.23760468760282        2.99352460693828        2.68866834555357
C           15.60506951068789        2.81453356391218        3.14073472221393
C           16.06944594797265        1.62450095825040        2.53827126952778
C           14.98880767143216        1.13839842331327        1.74015941656027
C           14.97757274675769       -0.03523048819944        1.00044297838524
H           15.86401550002386       -0.65984936094129        1.06402165707868
C           10.86815472358069       -0.34030362209447       -1.53269074223085
H           10.41658739834101       -1.08475588872609       -2.17961756164921
C            9.59372205114511        3.96745883321199        0.16658616137470
H            8.77657558067451        4.65633821673888       -0.01122072466269
C           13.44219980813980        4.05810720965754        3.10481045791795
H           13.81522952656183        4.70343234627083        3.89489649599222
C           12.33844039591022       -3.03212849343537       -2.04569431264719
H           13.08779915447022       -3.82952190513025       -2.07399569804270
H           12.17619219125078       -2.67229293731062       -3.06683489906972
H           11.40125560773762       -3.44711373737216       -1.65853042721740
C           15.03006004442259       -2.84122635190890       -0.30893461135398
H           15.47796287916848       -2.76788406400409        0.68649830923893
H           15.81526885744952       -2.69514694644492       -1.06026367581596
H           14.60348512034788       -3.84259017470047       -0.42655830589951
C            8.31468240188479        0.26776732416857       -3.02209084848736
H            8.36268358920699       -0.76570235540708       -2.66254695630516
H            8.83356231353836        0.31635580943949       -3.98896303459800
H            7.26269865769457        0.52763750554250       -3.16509588721595
C            7.46926580009363        3.27469303959401       -1.98276047745866
H            7.11626016962191        4.04966638557450       -1.30187850994157
C            6.84356483279679        3.13682484062702       -3.14447341322949
H            7.16597849190303        2.39816435938756       -3.86544576983847
H            6.00106570011855        3.76633346726420       -3.40895271325528
C            9.08001733988578        6.35639871031878        2.01907585348196
H            8.16752902148005        5.77710644925670        1.83720697384262
H            9.18371811784490        7.09656753819963        1.21653841216389
H            8.97288992818509        6.87884977943638        2.97501742710619
C           11.63231611936031        6.33364357991138        4.05024026432404
H           12.13227824278821        5.86659967058087        4.89802141815499
C           11.34626735753979        7.62358208900351        4.16463966567817
H           10.86493925042675        8.16955430194750        3.36151067325546
H           11.59887151643079        8.16931753181520        5.06834604944317
C           16.34837962932469        3.77503155608833        4.02924425017792
H           15.93979273064934        3.76669868579809        5.04982520434972
H           16.26786598638882        4.80378748805141        3.65048751527135
H           17.40824314737440        3.50748072252138        4.08352057705297
C           17.45312902497465        1.02317393867689        2.68934836698300
H           17.80289210205235        1.13062222859370        3.72253326195841
H           18.17211203757041        1.53358119799392        2.03370726972526
H           17.46641887009084       -0.04578525546077        2.44032470063995
O           11.33329288403493        0.87730427006481        1.98422793536975
H           11.48527193507539       -0.04751913052171        1.78405251439815
H           10.81730592096598        1.17720026424901        2.71047821015004
C           15.52001333591708        5.51529215353733       -2.25208173308105
H           15.02924531682689        6.39993796101909       -2.67354351602508
H           16.16521757035540        5.07440530898156       -3.02119713952137
H           16.13518895030906        5.82519230548260       -1.40283717689133
N           13.59662291146842        3.97335399056427       -2.70081677282081
H           13.51563404927657        4.22334702377471       -3.67011992128321
C           14.49754636099684        4.51862780573174       -1.80894142864816
C           12.84865888977373        3.07800028779317       -2.04349881236324
H           12.08317857333620        2.47537254980729       -2.50519330747539
N           13.20603078795370        3.03396945005299       -0.77743693849996
C           14.23560650522387        3.92278467476065       -0.61145739100958
H           14.70406539098302        4.04797644264954        0.34910773412982
78
 energy: -116.040672419860 gnorm: 0.035057611383 xtb: 6.7.1 (edcfbbe)
Fe          12.26901244008417        1.96601166325516        0.62405854884744
N           12.82389316537642        0.17754181747110       -0.12968276601462
N           10.57197607211751        1.85838541981962       -0.49751082744816
N           11.63008730544225        3.65280204689111        1.49369841939013
N           13.90901524959767        2.00045064590948        1.80386070702804
C           13.96283667228279       -0.49581795825466        0.18836940330451
C           13.96672794279989       -1.80110187738767       -0.45532891400339
C           12.81593820878345       -1.88650134055773       -1.17440589577181
C           12.11039182046484       -0.63589373077279       -0.95949451133483
C           10.19306819834397        0.85642382495348       -1.33873204651177
C            8.97409730032977        1.19420353986821       -2.02780564544657
C            8.61472105557149        2.44760512579664       -1.58644615316478
C            9.62087841468316        2.82223704255411       -0.60478328601362
C           10.48676878805530        4.31432293505139        1.17318966612025
C           10.28955153652344        5.45063443497128        2.05156547817078
C           11.35447926679089        5.45657584657344        2.91465925943036
C           12.19472695438493        4.32928353925721        2.53199812864200
C           14.25644008279791        2.98457273888408        2.67105744124355
C           15.61421362288352        2.79405251816384        3.12967946738912
C           16.06330315835961        1.65532706137924        2.55102705790456
C           14.98044809540647        1.16162523236781        1.73427900417884
C           14.98015674101048       -0.02317279873534        1.00068655953139
H           15.86135518789480       -0.64686089462286        1.07337722386715
C           10.88799175172567       -0.33259710217654       -1.52666316025227
H           10.44140103923415       -1.07286175399832       -2.17501977549131
C            9.59318094463789        3.97243123609498        0.16778984618341
H            8.77511563991076        4.65485678630305       -0.00568903235317
C           13.43590806190453        4.03661295753422        3.07823083175861
H           13.80906236758464        4.68714535354484        3.85876851334166
C           12.34287405797434       -3.00982464508210       -2.03353009478139
H           13.08081850635131       -3.80675640339410       -2.06541886156655
H           12.17380791359755       -2.66855966866185       -3.05319767600576
H           11.40911456793831       -3.42698705088578       -1.65855327784296
C           15.03037432344377       -2.83443823481676       -0.30541506597066
H           15.48184430822437       -2.77486269446641        0.68032750718912
H           15.81274121344158       -2.69626837916505       -1.05113474523322
H           14.61364152316310       -3.83088482286717       -0.42952522193541
C            8.31605034797286        0.27608464219069       -3.00437392276149
H            8.36878108709963       -0.75327449297503       -2.65526629110210
H            8.81984206898034        0.32419523441607       -3.97207415893706
H            7.26990448996302        0.52530502977956       -3.14545461789281
C            7.48516393376053        3.25931669884523       -1.98445025561675
H            7.15125307995130        4.02252273814042       -1.29094743156068
C            6.84712068086452        3.14359258902731       -3.14817082385564
H            7.15849667846918        2.43386753993323       -3.88989459858437
H            6.00554778448900        3.76460035832859       -3.39993100761597
C            9.09839322135467        6.34627021212564        2.02253642636306
H            8.18883313801341        5.77608174634632        1.84097847458636
H            9.19130386867298        7.08775317673667        1.22829524813290
H            8.98930255999186        6.86902960386928        2.96903620157852
C           11.63356504928169        6.32300555811745        4.04369798488349
H           12.13747390529986        5.84744770446781        4.87752359452263
C           11.34079155085754        7.61563745003230        4.15372448648025
H           10.87198235154861        8.16916983272863        3.36095050394897
H           11.58584204880938        8.16536609240770        5.04728493796891
C           16.34344565733996        3.75066166917260        4.01971873170863
H           15.93384399108161        3.74751742071258        5.03184945585985
H           16.26343456124367        4.77163094304468        3.64165584614961
H           17.39797867969849        3.49589303759390        4.07922878108161
C           17.42455611231043        1.04121397626830        2.69298110271140
H           17.78502764524193        1.13975199378062        3.71583226479051
H           18.14413315791584        1.53731434988936        2.03790472168870
H           17.42918827864394       -0.01737174887025        2.43933605146192
O           11.32213859531877        0.85736627659909        2.01454763562995
H           11.44035425243642       -0.08114068111566        1.84599728887015
H           10.78863454988090        1.14765226885465        2.75384048737830
C           15.51417228123151        5.51536092746828       -2.24985810992546
H           15.03424062504101        6.39759870942498       -2.66970356093946
H           16.16283765342074        5.08486360610074       -3.01188338393958
H           16.12357374082715        5.81795137777513       -1.40605119619451
N           13.61083065190341        3.97499337059486       -2.70923238570744
H           13.52713718403827        4.22412687939595       -3.68101247483015
C           14.50077358251106        4.51872558535975       -1.81988056865502
C           12.85417482399150        3.07883331882250       -2.04077101522031
H           12.08765022274322        2.48627419448107       -2.49441595840691
N           13.20342136478860        3.02573215400168       -0.78084431089423
C           14.22856190285995        3.91426666254454       -0.62589874476973
H           14.69227914103440        4.04809958278348        0.32990848523519
78
 energy: -116.045262192703 gnorm: 0.025352668142 xtb: 6.7.1 (edcfbbe)
Fe          12.26623096622360        1.96153876465290        0.62727732671736
N           12.83717686212640        0.18617411280352       -0.13007550528097
N           10.58011072141827        1.86681986714140       -0.50198461431937
N           11.61886913819879        3.64486640480146        1.48537660450164
N           13.91640557836607        2.01248259860375        1.78019923219959
C           13.97131409895931       -0.49146283332322        0.18571981137303
C           13.97742567255038       -1.79469687198595       -0.44917491508663
C           12.82402097224584       -1.87693309728140       -1.17245238138054
C           12.12662968778465       -0.62878663918402       -0.95557738655295
C           10.20906598006744        0.86395449067315       -1.33994520998247
C            8.98710954528320        1.19282331510804       -2.02964260640594
C            8.62409581116293        2.44619358653576       -1.59397324756597
C            9.62520270912143        2.82430647397159       -0.60649874450335
C           10.47958131455663        4.31377845891550        1.17155692647565
C           10.29077787348850        5.44694599406125        2.04741812538426
C           11.35645302300070        5.44763772708540        2.91176734961056
C           12.18664778490327        4.31740025545813        2.51872915780649
C           14.25718617790992        2.99189834805465        2.65225493472433
C           15.60942862417583        2.79891356047984        3.12559798100176
C           16.06221652570166        1.65972283075061        2.54450907611718
C           14.98031279593947        1.17002840709776        1.71558208031764
C           14.99039973230393       -0.01662920616652        0.99586808971448
H           15.86908469755515       -0.63944841739731        1.08007787751587
C           10.90584142916309       -0.32271215062762       -1.52633172702931
H           10.46668577126918       -1.06076464416854       -2.18008074925098
C            9.58781360388473        3.97402140978619        0.16390296913715
H            8.76694569588268        4.65333600825407       -0.00587981340097
C           13.43020841107277        4.03201559044239        3.05652398543491
H           13.80449658357551        4.68633104372987        3.83032284302182
C           12.34297842078397       -2.99597863926505       -2.02630565126318
H           13.07788478646398       -3.79570547368045       -2.05805463020512
H           12.17103851382899       -2.65660860239373       -3.04681699948031
H           11.40630472256532       -3.40693873279057       -1.64999718670896
C           15.03830824625228       -2.82960704433500       -0.30202777319181
H           15.49228405259201       -2.78108158741632        0.68376281785607
H           15.82193773755020       -2.69049215012638       -1.04643862549137
H           14.62138699555751       -3.82510686778285       -0.43449115013156
C            8.31635415281451        0.27393506730670       -2.98964121396812
H            8.38142037378985       -0.75524512098641       -2.64235831453566
H            8.79976494951432        0.32693646289687       -3.96755556071977
H            7.26596126797406        0.51859597368482       -3.10910336623218
C            7.49558365546653        3.25159430322316       -1.98673666992859
H            7.16997635185318        3.99955461272464       -1.27391553625846
C            6.85071507485107        3.16205246486083       -3.15070358493407
H            7.16599067892080        2.48794913086854       -3.92796748371724
H            6.00347374764148        3.78361999230815       -3.38084017122173
C            9.10672530204717        6.34455848543674        2.02616479373485
H            8.19652589435397        5.77555893246280        1.84582322991173
H            9.19830442803138        7.08903745734785        1.23445981241250
H            9.00548369595168        6.86438249361549        2.97487333362753
C           11.63838616598340        6.31245461100250        4.03449128005635
H           12.14943699893089        5.83442061789403        4.86241793549249
C           11.33823395620644        7.60428919822255        4.14137392826046
H           10.87550084890197        8.16046596293756        3.34691748770912
H           11.57606201495766        8.15928768055269        5.03296773962560
C           16.33711499121943        3.74268773523500        4.02252913193081
H           15.92001135844458        3.73152932026211        5.02933874858757
H           16.25997088364979        4.76031309867479        3.64094316067828
H           17.38946577902449        3.48119209587708        4.08246920623352
C           17.41294630134572        1.04313271882657        2.69153836463964
H           17.77035903189785        1.14392591973094        3.71424247555939
H           18.12965626161243        1.53772694954457        2.03426714125382
H           17.40061134457406       -0.01269124648390        2.43712206561239
O           11.30925289266554        0.83845982273425        2.06224920373585
H           11.38504460316706       -0.11104206830230        1.91501669177194
H           10.75918220514497        1.12365644027511        2.79597371168084
C           15.51126669000193        5.51443044353273       -2.24594570838973
H           15.03308104566118        6.39840849722721       -2.66416609175673
H           16.16851294393588        5.09336621153848       -3.00609614513708
H           16.11337449100944        5.81336020558641       -1.39594310878590
N           13.61659845466100        3.96672681238416       -2.71985425826265
H           13.53642698532638        4.21415868476819       -3.69271068345588
C           14.49988908895942        4.51196468502236       -1.82731694083037
C           12.85366584783106        3.07364151888219       -2.04885768161922
H           12.08137373431964        2.48925419429824       -2.50027139674242
N           13.19819612525372        3.01781024283630       -0.78719963135808
C           14.22181882899134        3.90791487001118       -0.63409888004066
H           14.68241928962690        4.05138823069616        0.32040471370160
78
 energy: -116.049009828831 gnorm: 0.022771143513 xtb: 6.7.1 (edcfbbe)
Fe          12.26640009157910        1.95851888668192        0.62525658671646
N           12.85097779364086        0.19225076743701       -0.12051620812728
N           10.58777186923286        1.87177231087451       -0.49555113133309
N           11.60576920370306        3.63382329963530        1.47435326749825
N           13.91778396359442        2.02208486314617        1.75382758986240
C           13.98443390448022       -0.48771096855714        0.18772933050763
C           13.99174001479714       -1.78608690449374       -0.44269408643914
C           12.83669388492112       -1.86435245404086       -1.16665537483551
C           12.14363284099636       -0.61978316838641       -0.94880927422370
C           10.22717701333861        0.86894034290749       -1.33643155723362
C            9.00772083022080        1.19314614782049       -2.03146570509659
C            8.64024199416120        2.44405651962405       -1.60118989006528
C            9.63270836891627        2.82649174099875       -0.60653787897231
C           10.46861385326977        4.31118575476152        1.16755264555183
C           10.29325024512375        5.44150524188482        2.04109302645854
C           11.36150607004268        5.43655126588238        2.90217086854261
C           12.17887663886155        4.30328334399423        2.50282265993015
C           14.25349666162659        2.99926217527897        2.63161627455305
C           15.60101184219287        2.80529991932766        3.11682755306767
C           16.05723786522744        1.66285630602366        2.53479606663205
C           14.97817922269617        1.17816463681356        1.69365268824641
C           15.00610002065211       -0.00946940490695        0.99120217526067
H           15.88527299934953       -0.62768702255251        1.08567749026509
C           10.92711691415717       -0.31096475870078       -1.52656204666668
H           10.49963253357654       -1.04468472436234       -2.19209068317147
C            9.57939271426039        3.97524653702821        0.15863614053456
H            8.75658037287582        4.65261384003960       -0.01024079371643
C           13.42586513196282        4.03006296062980        3.03160395478221
H           13.80179001609221        4.69112102023008        3.79721855440477
C           12.34412616380563       -2.98127096477553       -2.01883019937156
H           13.07286158679865       -3.78751420452622       -2.05170332597060
H           12.16972463697813       -2.64006582162084       -3.03967045386611
H           11.40352325678936       -3.38106008764867       -1.63661946526187
C           15.05203274215745       -2.82296734405833       -0.30011121104246
H           15.50439751396828       -2.78705867167498        0.68856750732597
H           15.83991942679105       -2.67739283147002       -1.04071589323547
H           14.63401197411740       -3.81773394667863       -0.44480898388226
C            8.31551085118218        0.27833772941273       -2.97787048964270
H            8.38937029400906       -0.75260180540678       -2.63378848786360
H            8.76920609924688        0.33259335248916       -3.97079843259307
H            7.26258553824853        0.53665017983477       -3.06569385222418
C            7.51039184056234        3.24612074876549       -1.99100598686681
H            7.17680652044537        3.96482313176741       -1.25090403260740
C            6.86655068167360        3.18726385464165       -3.15627646736262
H            7.16296871486989        2.52531907316052       -3.95046094148896
H            6.00862117122408        3.80702937394694       -3.35953722360999
C            9.11315261596098        6.34529632089054        2.03147235383593
H            8.19931437424333        5.78031220832727        1.85289778736434
H            9.20385150904808        7.09525027260383        1.24371969343607
H            9.02311079296860        6.85931578118695        2.98544202747535
C           11.64898148721048        6.30068906167067        4.02118783264489
H           12.16381854949347        5.82108057219578        4.84631135609251
C           11.33915906443858        7.59031244062985        4.12336095985082
H           10.87286479664117        8.14316821156117        3.32746518485236
H           11.56787299897005        8.15275833128770        5.01371079590420
C           16.32669404212165        3.73395793594852        4.02677774647710
H           15.90067750135008        3.71331617394842        5.02902048245469
H           16.25848944085257        4.75343552514583        3.65050730846220
H           17.37694254711523        3.46205470496283        4.09146970105947
C           17.40055004348282        1.04257757194386        2.68883572547763
H           17.75707954317617        1.14715882881085        3.71155789676121
H           18.11968202577355        1.52963216286034        2.02837790886520
H           17.37460519159670       -0.01314058398686        2.43960547240681
O           11.30650864306636        0.80958412436118        2.13796751635976
H           11.29767544414922       -0.15064899842636        2.00566279368391
H           10.70909702959637        1.08204099888633        2.84391885171613
C           15.50982945627604        5.51474864425865       -2.24163733302988