78
 energy: -116.058077867794 gnorm: 0.000128826205 xtb: 6.7.1 (edcfbbe)
Fe          12.25190512290995        1.94893488159953        0.69971079244103
N           12.85700578021908        0.19278805844454       -0.07757985012750
N           10.56387408550693        1.83632662284808       -0.39829074070703
N           11.61619544934351        3.65606518879488        1.50809799504934
N           13.89745353432212        2.01433187435512        1.81927412635578
C           14.03000778649576       -0.44818303201747        0.17134612563930
C           14.12725974151780       -1.65908818166630       -0.61123881157078
C           12.98360650032338       -1.73482422698505       -1.34460392419630
C           12.20478018307012       -0.56623250954254       -1.00269437672986
C           10.21848739922998        0.85461907338011       -1.27966345049670
C            8.96255689351644        1.15456777647753       -1.91424815799651
C            8.55300629262601        2.36090917274143       -1.40733981848914
C            9.56928104697613        2.76100754803444       -0.45532228262602
C           10.47245213049018        4.32840036091724        1.20554941344264
C           10.36931101781802        5.54067275211833        1.97934683975813
C           11.48926113619899        5.59050039525581        2.76487779441266
C           12.24937877149711        4.39482838603507        2.45178084349890
C           14.23164353818225        2.97669825664439        2.71657213010411
C           15.51399347825786        2.68952353592179        3.32413117137283
C           15.94692310754950        1.52845390405850        2.76671010620099
C           14.92216667427415        1.12271508940230        1.82794611651736
C           14.99966522687327       -0.02279572442386        1.05996809885092
H           15.88219272767735       -0.63519506291951        1.16355457574926
C           10.97467359762353       -0.27266839583437       -1.55882414715450
H           10.58368335329138       -0.96543017251296       -2.28831959920735
C            9.52480684148676        3.92912879654533        0.28045539616731
H            8.68315876119970        4.58511912270173        0.11972454810715
C           13.47322913189564        4.09109389004658        3.01863878902996
H           13.87098354404845        4.77893224819896        3.74924210116603
C           12.55294430565443       -2.77758800075936       -2.31890076673962
H           13.30270481224651       -3.56024793913909       -2.40358513968578
H           12.39935560198692       -2.34218320008288       -3.30683387291893
H           11.61493151236857       -3.23502271375819       -2.00279055073494
C           15.28474767953791       -2.59660038337275       -0.56845403470647
H           15.42028888767264       -2.99244221548692        0.43831657526518
H           16.20303338889354       -2.08403762008824       -0.85567130237532
H           15.13217318239294       -3.43239556115841       -1.24697060045899
C            8.25075942849558        0.26358755376717       -2.87211961643048
H            8.37715552255131       -0.78185337535519       -2.59422677631162
H            8.63482660123073        0.39171261714432       -3.88576247153954
H            7.18775846512741        0.49605684907827       -2.87717894036332
C            7.34987851412996        3.10990699394809       -1.69374800341971
H            6.94407445415072        3.67823903642066       -0.86489984150735
C            6.72967490695632        3.15566175248298       -2.86846193078057
H            7.11135231426361        2.65149665023954       -3.73908740464568
H            5.82583428422690        3.72568405544654       -3.00595931973399
C            9.21417281910636        6.47962796217380        1.95276095663180
H            8.27550397132502        5.93340660774681        1.87206208363108
H            9.28355660947976        7.15906905938773        1.10152809659933
H            9.19411408952259        7.07197888378162        2.86518452046083
C           11.87735346483714        6.58105315064668        3.74459341020235
H           12.41335094690154        6.20106768652263        4.60658956780732
C           11.63549632227414        7.88522677058073        3.65995199085138
H           11.14925545149534        8.32331888833727        2.80572702798442
H           11.94061898841198        8.56671081537606        4.43676905265995
C           16.16575369541031        3.54461660123337        4.35593037837621
H           15.53400086375808        3.62330055842358        5.24082423474117
H           16.33492325667460        4.55058064714022        3.97086311301742
H           17.12386031066211        3.12718478773387        4.65573544639829
C           17.20286908345287        0.76770287086637        3.02150504652444
H           17.81733962005812        1.27279158423829        3.76263025615674
H           17.78375171365126        0.66794355257558        2.10423831208157
H           16.97643650915287       -0.23344426710658        3.38891681035861
O           11.14305493349152        0.70905106589581        2.27972802206959
H           11.49628480484993       -0.16321669881901        2.07331125105057
H           10.25025839891372        0.74552201310395        1.91960869551978
C           15.21134271202901        5.58436977544506       -2.31649841235722
H           14.66745616666726        6.23518343452836       -3.00102392930044
H           16.10522161909049        5.22468321142639       -2.82600090527254
H           15.51368723001860        6.16517283208406       -1.45084172597851
N           13.83336225543528        3.54114235235940       -2.76112584287503
H           13.96127695757441        3.54793681761121       -3.75969867880152
C           14.35981140301409        4.44905550099471       -1.88005244857878
C           13.11446078447175        2.64644561990555       -2.04666872214096
H           12.58821282729848        1.81951058010027       -2.47654994386768
N           13.15383273600733        2.93226458982376       -0.76803184650167
C           13.92522798468534        4.05095805648106       -0.64830604800535
H           14.11371475396814        4.49161056144780        0.30887242307555
