72
 energy: -105.980613609536 gnorm: 0.000044345771 xtb: 6.7.1 (edcfbbe)
Fe          -6.12795936013218      -24.79902496482596       -7.60775868820989
N           -4.43220200007218      -23.78844098030556       -7.34866447876110
N           -5.78384172162653      -24.91818002615966       -9.56346611369864
N           -7.88213698949622      -25.76405024623588       -7.85310486642285
N           -6.52928299772003      -24.60858707014141       -5.64117165268684
C           -3.95818985390184      -23.25251666709928       -6.19446084029069
C           -2.68155427697301      -22.60780391290512       -6.41480684021349
C           -2.39563049339589      -22.77174584911375       -7.73303379730784
C           -3.50804448846828      -23.50309226725742       -8.30139017226197
C           -4.68316062993796      -24.47228130184223      -10.22184257645963
C           -4.78065652409121      -24.74925192674199      -11.63399413088814
C           -5.98027024243535      -25.37971992140176      -11.81855829014380
C           -6.58835407924981      -25.47320231536108      -10.50393472002285
C           -8.38881976345285      -26.24258352702889       -9.02349358617812
C           -9.63784003318328      -26.92109989177966       -8.79983647843321
C           -9.87997759915547      -26.85044634283765       -7.45281433035613
C           -8.76129261566014      -26.12951144204212       -6.88235617097480
C           -7.60722774389651      -25.10417625522689       -4.97192596882367
C           -7.53566116015630      -24.76592262300905       -3.56954266678681
C           -6.39124388430827      -24.04722059805979       -3.40654815658239
C           -5.77554379502720      -23.96130416092586       -4.70987862530170
C           -4.57780540134211      -23.31884376693974       -4.96080203203204
H           -4.08510940083234      -22.84253007224174       -4.12767113461593
C           -3.60687359615978      -23.83029852264318       -9.63775921383124
H           -2.78848332943074      -23.54426354657830      -10.27995104974793
C           -7.79661858223755      -26.09587416650928      -10.26478819871917
H           -8.31567153357426      -26.51601600035855      -11.11188997691148
C           -8.64397264600118      -25.82114389596678       -5.53949769593092
H           -9.43146689879472      -26.15296426683856       -4.88136629024402
C           -1.20962802830400      -22.31162403640869       -8.50786480078597
H           -0.49257902703106      -21.81499880186739       -7.85893672961635
H           -1.51110441390224      -21.61028138751426       -9.28608023127063
H           -0.71300562429749      -23.15558217776410       -8.98683110444357
C           -1.89312602116921      -21.92144506956381       -5.35325470444664
H           -1.63715431101402      -22.61684228417033       -4.55327616354746
H           -2.46769898761572      -21.10301188693844       -4.91934111252012
H           -0.97133193063670      -21.51354302131741       -5.76004338192663
C           -3.78169665840092      -24.33830370498353      -12.65759414452184
H           -2.94436599797461      -25.03734926612258      -12.68538255609568
H           -3.38783961859511      -23.34791440879660      -12.43473689928554
H           -4.24412891353908      -24.31605331091873      -13.64211674676618
C           -6.58788172178490      -25.85370338864818      -13.04298861829864
H           -7.66767286674241      -25.77303544205598      -13.09232250282633
C           -5.93159546798221      -26.37071535899149      -14.07614365224451
H           -4.86586396126893      -26.51810654961952      -14.06113887427323
H           -6.44589708825120      -26.69231710602777      -14.96648424757948
C          -10.43429700910987      -27.61438466418292       -9.84822893986650
H           -9.77921092294624      -28.11621775113277      -10.55846727945721
H          -11.05270967016471      -26.90511247047739      -10.40096623951135
H          -11.08665291899303      -28.35561482323095       -9.39141436850421
C          -10.98780882966983      -27.38586652040026       -6.69205775691326
H          -10.74683430307207      -27.73187233076103       -5.69352354669591
C          -12.24320572482299      -27.47155385407860       -7.11876511473346
H          -12.54750070818046      -27.10115683968285       -8.08212697244934
H          -13.01922790153638      -27.89550744871258       -6.50354029111366
C           -8.55618697362916      -25.15898395231087       -2.55809442344350
H           -8.64332228430381      -26.24442300686711       -2.50277976020749
H           -9.53388813450362      -24.75501001621222       -2.82194344403688
H           -8.28662245230558      -24.78705905713292       -1.57284947636162
C           -5.82299136687687      -23.44280089917590       -2.16924438103412
H           -4.84152306190449      -23.86485504850493       -1.95097762461925
H           -6.47151753540025      -23.62653694488993       -1.31640144298899
H           -5.70814372236699      -22.36522452815049       -2.28757108009710
O           -7.29260998845110      -22.90541305669219       -7.89863145853455
H           -8.08322800358269      -23.24290707271278       -8.33510806708444
H           -7.53593155465964      -22.70428397103961       -6.98754327180332
C           -3.75967870280575      -26.67586029528778       -6.03872520193179
H           -2.92604781587507      -26.24825212141420       -6.58586381664178
H           -3.48549831547171      -27.64573529288127       -5.63520619629340
H           -4.07231571952957      -25.99495484683676       -5.25461967666998
S           -5.11833403562346      -26.89078514238501       -7.24153442025646
H           -6.00125006503554      -27.34170431476519       -6.34397053543644
