72
 energy: -105.882010361110 gnorm: 0.261929727380 xtb: 6.7.1 (edcfbbe)
Fe          -6.13700000000000      -24.86199999999999       -7.52100000000000
N           -4.44900000000000      -23.72200000000000       -7.29800000000000
N           -5.84200000000000      -24.87900000000000       -9.50400000000000
N           -8.01500000000000      -25.67300000000000       -7.82300000000000
N           -6.61000000000000      -24.53400000000000       -5.55700000000000
C           -3.88300000000000      -23.38500000000000       -6.08100000000000
C           -2.57000000000000      -22.82300000000000       -6.31700000000000
C           -2.36900000000000      -22.83299999999999       -7.64800000000000
C           -3.54400000000000      -23.39600000000000       -8.28900000000000
C           -4.77200000000000      -24.33599999999999      -10.19500000000000
C           -4.90100000000000      -24.68900000000000      -11.59500000000000
C           -6.01400000000000      -25.42599999999999      -11.73700000000000
C           -6.60900000000000      -25.57900000000000      -10.43100000000000
C           -8.39000000000000      -26.36300000000000       -8.95500000000000
C           -9.59100000000000      -27.12100000000000       -8.65600000000000
C           -9.90900000000000      -26.87700000000000       -7.36900000000000
C           -8.93200000000000      -25.95900000000000       -6.84100000000000
C           -7.85200000000000      -24.81700000000000       -4.98200000000000
C           -7.85400000000000      -24.38300000000000       -3.60800000000000
C           -6.47600000000000      -23.78900000000000       -3.36000000000000
C           -5.77300000000000      -23.92200000000000       -4.61900000000000
C           -4.47300000000000      -23.53200000000000       -4.84500000000000
H           -3.85700000000000      -23.32100000000000       -3.97100000000000
C           -3.74500000000000      -23.57600000000000       -9.64900000000000
H           -3.05200000000000      -23.08900000000000      -10.33500000000000
C           -7.75100000000000      -26.30600000000000      -10.17200000000000
H           -8.18000000000000      -26.87900000000000      -10.99400000000000
C           -8.91700000000000      -25.44100000000000       -5.57500000000000
H           -9.83100000000000      -25.53300000000000       -4.98800000000000
C           -1.10500000000000      -22.32400000000000       -8.36800000000000
H           -0.22300000000000      -22.45600000000000       -7.70600000000000
H           -1.21800000000000      -21.24500000000000       -8.60700000000000
H           -0.94500000000000      -22.90500000000000       -9.30200000000000
C           -1.57900000000000      -22.33900000000000       -5.22100000000000
H           -0.92400000000000      -23.18300000000000       -4.91500000000000
H           -2.14500000000000      -21.98200000000000       -4.33400000000000
H           -0.94600000000000      -21.51900000000000       -5.62300000000000
C           -3.91700000000000      -24.25200000000000      -12.69700000000000
H           -3.21900000000000      -25.08600000000000      -12.92300000000000
H           -3.33000000000000      -23.37500000000000      -12.35000000000000
H           -4.47800000000000      -23.99200000000000      -13.62000000000000
C           -6.60900000000000      -26.08500000000000      -13.00000000000000
H           -7.66100000000000      -26.40700000000000      -13.00500000000000
C           -5.89100000000000      -26.28600000000000      -14.10900000000000
H           -4.83500000000000      -25.98100000000000      -14.15300000000000
H           -6.34700000000000      -26.75900000000000      -14.99100000000000
C          -10.32300000000000      -28.03900000000000       -9.66200000000000
H           -9.69600000000000      -28.16800000000000      -10.57000000000000
H          -11.29100000000000      -27.57900000000000       -9.95400000000000
H          -10.49900000000000      -29.03500000000000       -9.20200000000000
C          -11.09500000000000      -27.42100000000000       -6.54700000000000
H          -11.14600000000000      -27.22000000000000       -5.46700000000000
C          -12.08300000000000      -28.13800000000000       -7.09100000000000
H          -12.08000000000000      -28.36700000000000       -8.16700000000000
H          -12.91200000000000      -28.50800000000000       -6.47000000000000
C           -9.00800000000000      -24.48600000000000       -2.60100000000000
H           -9.28800000000000      -25.55300000000000       -2.46500000000000
H           -9.89000000000000      -23.92800000000000       -2.98200000000000
H           -8.69000000000000      -24.07000000000000       -1.62100000000000
C           -5.96800000000000      -23.18300000000000       -2.03300000000000
H           -5.65900000000000      -24.00000000000000       -1.34600000000000
H           -6.78000000000000      -22.59700000000000       -1.55300000000000
H           -5.09300000000000      -22.52800000000000       -2.23000000000000
O           -7.18800000000000      -22.82000000000000       -7.86800000000000
H           -7.42700000000000      -22.80000000000000       -8.79500000000000
H           -7.34300000000000      -22.17900000000000       -7.27100000000000
C           -3.56700000000000      -26.91300000000000       -6.80600000000000
H           -2.88000000000000      -27.23500000000000       -7.61800000000000
H           -3.40200000000000      -27.57900000000000       -5.93300000000000
H           -3.30100000000000      -25.87200000000000       -6.52400000000000
S           -5.28500000000000      -26.99400000000000       -7.33400000000000
H           -5.78000000000000      -26.56600000000000       -6.18200000000000
72
 energy: -105.942092305563 gnorm: 0.109566856684 xtb: 6.7.1 (edcfbbe)
Fe          -6.18423048950640      -24.77810986547344       -7.55028105662659
N           -4.43470219321177      -23.75166598261520       -7.29118938670073
N           -5.83846540033631      -24.89115426243776       -9.51654564795630
N           -8.00234364474142      -25.70561043583127       -7.81154740652678
N           -6.60685896210781      -24.54303927953133       -5.55727073119596
C           -3.87867445285106      -23.40128950862919       -6.08461345156061
C           -2.56331350891091      -22.82771293007027       -6.30957614652253
C           -2.36373697682733      -22.82230928643162       -7.65347240733549
C           -3.54777582073439      -23.39559684107212       -8.27389307401381
C           -4.78579586847525      -24.33720770856375      -10.20164265671677
C           -4.89818670222054      -24.67948057762182      -11.60935915016407
C           -6.01863498195156      -25.44233150432448      -11.75462467134931
C           -6.60301382027858      -25.57570425157607      -10.43395061532372
C           -8.39496444536976      -26.37340873177517       -8.93845286083571
C           -9.60280102906429      -27.12887732838366       -8.66004312357933
C           -9.93799039250199      -26.87470542250928       -7.36033543374259
C           -8.92938572465668      -25.96770049977772       -6.84231578044405
C           -7.82634462300753      -24.79661235045718       -4.96423997052414
C           -7.81360176766903      -24.35586230688467       -3.59322489890738
C           -6.51311523992861      -23.81421690089244       -3.36040078763350
C           -5.79993146349990      -23.94763631762008       -4.60996689254417
C           -4.48753458633836      -23.54111449407690       -4.84620393361746
H           -3.87947211277276      -23.30164516454226       -3.97865519739697
C           -3.75795015100330      -23.58346548795718       -9.63704669933486
H           -3.05124725596079      -23.11605433568673      -10.31695535373904
C           -7.74895424253271      -26.30229940450174      -10.16148125974218
H           -8.17775797310499      -26.86482039308316      -10.98303963930748
C           -8.90281261791993      -25.43547646496424       -5.56588487685237
H           -9.80768815358909      -25.54245631491562       -4.97667054111757
C           -1.12049051976175      -22.33072582229304       -8.36512063143572
H           -0.24362354436622      -22.45548340807697       -7.71984826379988
H           -1.21834824362045      -21.26549754848280       -8.60768629720086
H           -0.95118225208223      -22.89293162267960       -9.28898203335732
C           -1.59657879470793      -22.34880076875456       -5.23640367532551
H           -0.93968142197871      -23.17089579757527       -4.92355145723049
H           -2.13703680173922      -21.98828278540870       -4.35526689613071
H           -0.96749039419075      -21.53699977017424       -5.61781786485883
C           -3.92429880783847      -24.24960478480481      -12.68343280117821
H           -3.22862352427295      -25.06720729482863      -12.91351574308030
H           -3.33999988435445      -23.38471278717499      -12.35765333580657
H           -4.46761132780552      -23.98762153122713      -13.59806549796885
C           -6.58780059110190      -26.07068430353704      -12.98669138487434
H           -7.63215758482702      -26.38481465776241      -12.97418655278323
C           -5.89124072119852      -26.28022742258898      -14.10034804694030
H           -4.84896592597506      -26.00383667504578      -14.16644812915871
H           -6.34122173531088      -26.74842880994441      -14.97107510940803
C          -10.30611778467089      -28.02750704726639       -9.65713082119876
H           -9.70133027513239      -28.16512688271399      -10.55755752841591
H          -11.26666122091762      -27.58544654428722       -9.95208508071118
H          -10.48615871884057      -29.01432221651621       -9.21467870113186
C          -11.08360233162834      -27.41412749565828       -6.56863690900336
H          -11.11464222335305      -27.20867281239502       -5.49850677500236
C          -12.07649237706195      -28.13207350453838       -7.08854867047981
H          -12.10617133318428      -28.36612410226121       -8.14112805957574
H          -12.89340069462272      -28.49933040347046       -6.47505976277812
C           -8.97067575584729      -24.47839705723821       -2.61935922147184
H           -9.26782637093089      -25.52797335993148       -2.47621644320179
H           -9.85762074485185      -23.93663971236154       -2.97856608367628
H           -8.69084929828810      -24.07479076711785       -1.64119381504281
C           -5.98841981329913      -23.20491376159225       -2.06731938645466
H           -5.67045998722980      -23.99021381704614       -1.36681523012184
H           -6.76657879688541      -22.61259861414088       -1.57118423632373
H           -5.12413114236736      -22.55040246294559       -2.24117504799850
O           -7.18205924920929      -22.83678142499982       -7.88224328743503
H           -7.43803158307764      -22.78136634566070       -8.80004506718838
H           -7.35448529513349      -22.15331531041645       -7.26167589723008
C           -3.55030762355505      -26.91045420484425       -6.79594447901669
H           -2.89860108454356      -27.23175981173182       -7.61503908576693
H           -3.39868498587205      -27.57554019906478       -5.93991759232221
H           -3.29892495134735      -25.88100376506888       -6.52410321626791
S           -5.27866570125951      -26.98849960417760       -7.32638264576180
H           -5.77946398068553      -26.58729862998882       -6.16150958457302
72
 energy: -105.960134010966 gnorm: 0.040312175934 xtb: 6.7.1 (edcfbbe)
Fe          -6.20075400248742      -24.75258329644210       -7.56256016455641
N           -4.44138789361205      -23.76768825802220       -7.28723425198295
N           -5.85404374306101      -24.87554013589393       -9.52447800982869
N           -7.99011947949638      -25.71745332768925       -7.80165850548914
N           -6.61486850423686      -24.52795999749122       -5.56651850226907
C           -3.88528175540480      -23.42181363753575       -6.08999090993977
C           -2.56990258903895      -22.83973897882366       -6.30569522020065
C           -2.37197242224698      -22.82164856187658       -7.65683376937524
C           -3.56122831662322      -23.40300269507292       -8.25977917455177
C           -4.80568555773252      -24.33034129721579      -10.20191161011990
C           -4.89646595917982      -24.66730498717227      -11.61134226714216
C           -6.01807150758637      -25.45072273080476      -11.76053367601671
C           -6.60003244192239      -25.56406786591734      -10.43099237307653
C           -8.38960379687783      -26.37729414012813       -8.92117175934470
C           -9.60154457922461      -27.12701794635188       -8.66342602474097
C           -9.95175289498015      -26.86649141135354       -7.35634645261356
C           -8.91944710970765      -25.97063542483150       -6.84255264091694
C           -7.80967462754054      -24.78106925893347       -4.96098611833833
C           -7.77770583495278      -24.33788884855946       -3.58594467257567
C           -6.54458330943476      -23.83384168642054       -3.36658775478610
C           -5.82066040752519      -23.96053023072241       -4.61440784918061
C           -4.50492992925440      -23.54923873021675       -4.85184394568388
H           -3.91127735158212      -23.27039411413907       -3.98891770531236
C           -3.77026338829624      -23.59844638866630       -9.62164965362257
H           -3.04255893245029      -23.15858844788968      -10.29342292297213
C           -7.74217967014370      -26.29664304690768      -10.14748245419272
H           -8.17594164321175      -26.84676115669379      -10.96964063957216
C           -8.88508998775743      -25.43769401895536       -5.55941477661228
H           -9.77663575589450      -25.56491402934547       -4.96081350660362
C           -1.14580588364276      -22.33828988893270       -8.36271951037730
H           -0.27084872654058      -22.45922728838239       -7.72694565062147
H           -1.23063458150388      -21.27991474823938       -8.61129129019155
H           -0.97113105293957      -22.88993623004924       -9.28160481342384
C           -1.62021719795369      -22.36344641340084       -5.25296088096969
H           -0.95959986325526      -23.17156951975786       -4.93380602641254
H           -2.14624104710827      -21.99823358456872       -4.37526145424159
H           -0.99513793601686      -21.55571213160868       -5.62767178584673
C           -3.93283514751854      -24.24248483527809      -12.66598600824388
H           -3.23760685998877      -25.05081294348142      -12.89862229760076
H           -3.34983576762144      -23.38347243988976      -12.35118379183342
H           -4.46457240489121      -23.98093615022436      -13.57873947453930
C           -6.56115487926449      -26.05575388480117      -12.96044322868079
H           -7.60306281749496      -26.35559767763787      -12.92890907484422
C           -5.88810215641345      -26.27855760390093      -14.08699302081180
H           -4.85041634355392      -26.03052859833534      -14.18382809553528
H           -6.34794429100185      -26.73364422905059      -14.94865683178951
C          -10.28576133753876      -28.01155642843516       -9.65073389139452
H           -9.68958422994358      -28.15141307168406      -10.54582698719765
H          -11.24457050816866      -27.58476197541790       -9.95002286714159
H          -10.46908675162004      -28.99445425366525       -9.21868456285641
C          -11.06388760844546      -27.39451950155406       -6.59480315692340
H          -11.06961669103078      -27.18549828580194       -5.53095137319825
C          -12.07006867065672      -28.11780837139365       -7.08539920100438
H          -12.14066284439545      -28.36418861750910       -8.12382122332796
H          -12.86748560240048      -28.48824641136681       -6.46324990371252
C           -8.93079135397816      -24.46809717195541       -2.63465841987645
H           -9.22573766929616      -25.51151225090378       -2.50109245690330
H           -9.81356492529362      -23.93454123830405       -2.99438210879184
H           -8.67305691535788      -24.07109135664462       -1.65654779712353
C           -6.00874030608960      -23.22966833903835       -2.09961780236662
H           -5.68471423231753      -24.00151714032732       -1.39761545336112
H           -6.77174726316364      -22.63453308465858       -1.59889687366294
H           -5.15465939107324      -22.57778229974000       -2.27996774131938
O           -7.16866018321472      -22.85693786047414       -7.89484160393146
H           -7.46031176634530      -22.74331819684386       -8.80153086258677
H           -7.36143269574487      -22.15688258497655       -7.26981827158660
C           -3.53196518343083      -26.90822846068232       -6.78441964188537
H           -2.91595135934542      -27.22917608474976       -7.61812255908277
H           -3.38602006304609      -27.57413608831946       -5.94163230798444
H           -3.29278599890369      -25.88505075884160       -6.52114066413982
S           -5.27428166676751      -27.00586238638885       -7.30528946718501
H           -5.78004443426002      -26.63278496271117       -6.12817225387460
72
 energy: -105.965801954225 gnorm: 0.021315482291 xtb: 6.7.1 (edcfbbe)
Fe          -6.21309808194328      -24.74157072040872       -7.56522209462436
N           -4.44861841050724      -23.78855373050998       -7.28621337145029
N           -5.85874615342524      -24.86861382686412       -9.52082749734944
N           -7.98081461587435      -25.71956247798902       -7.79854013609315
N           -6.61790628760707      -24.52809776343885       -5.57435387919857
C           -3.89272225076521      -23.43845567922613       -6.09392024974423
C           -2.58214194634179      -22.85500916009556       -6.30845472584024
C           -2.38508184095896      -22.83419567593421       -7.65788163760522
C           -3.57027229290608      -23.41863874620166       -8.25494912154865
C           -4.81072220511967      -24.32526859532317      -10.19551583199802
C           -4.89082257138509      -24.65815360967362      -11.60080849097854
C           -6.00807089985485      -25.44618951232859      -11.75280226520563
C           -6.59800711400135      -25.55525628406394      -10.42743539569411
C           -8.37930504581585      -26.37405701902589       -8.91979429497827
C           -9.59077200963217      -27.11756943166873       -8.67204247019066
C           -9.94654883874746      -26.85870569804623       -7.36627172879254
C           -8.91128934535714      -25.97314044552175       -6.84542461013190
C           -7.81064303757759      -24.78511312866253       -4.97266177093971
C           -7.78084923828679      -24.34165926814197       -3.59667576500509
C           -6.53428300247967      -23.84372468937172       -3.37452173822293
C           -5.81901580835418      -23.96446923850158       -4.62759793823510
C           -4.51216390206180      -23.54898848441655       -4.85801016080918
H           -3.93508318467704      -23.23243044536266       -3.99636406635299
C           -3.77057604930564      -23.61116076021007       -9.61278413823266
H           -3.01925281971920      -23.20221333834342      -10.27758056399946
C           -7.73709914186779      -26.28851435762836      -10.14573132687467
H           -8.17577886245457      -26.83184337073545      -10.96830456077535
C           -8.87838650557725      -25.44997699727457       -5.56074937424699
H           -9.75515964644363      -25.60218775022498       -4.94615478278652
C           -1.16857052182666      -22.34502264110854       -8.36877674140857
H           -0.29242234239635      -22.46392916000198       -7.73413626321322
H           -1.25827601261436      -21.28709776350875       -8.61934482055975
H           -0.99752922572424      -22.89722298056878       -9.28859361935060
C           -1.63896548073150      -22.37547547828502       -5.25839680402695
H           -0.97752493114600      -23.18240657163137       -4.93705317703821
H           -2.16824407070675      -22.00726859425538       -4.38364988464820
H           -1.01903165840276      -21.56794263736577       -5.64177187653126
C           -3.93164024829286      -24.22426477741824      -12.65113825263031
H           -3.23356976223123      -25.03001402624821      -12.88472776580011
H           -3.35341292486405      -23.36191724853583      -12.33385175188694
H           -4.46605506098556      -23.96451424217629      -13.56344789519698
C           -6.54887788577280      -26.04425617387434      -12.94720910375941
H           -7.59280987751614      -26.33200409605162      -12.89852042676744
C           -5.89177057784906      -26.27923455044412      -14.08230220841236
H           -4.84366368634406      -26.06907673822236      -14.19583165516871
H           -6.37347426330674      -26.72756969352089      -14.93472259086298
C          -10.26481772962183      -28.00179652244613       -9.65983133339011
H           -9.66158289246632      -28.13634632104542      -10.55166813610240
H          -11.22546056476579      -27.57990055359198       -9.96019557345671
H          -10.44338542229281      -28.98479733042555       -9.22538846615801
C          -11.05087606696361      -27.38052459253875       -6.60321280407665
H          -11.03181579943865      -27.16259725117272       -5.54145853243986
C          -12.07287089719089      -28.10336133183116       -7.06635553597257
H          -12.19022999030336      -28.34852462391839       -8.10515943072367
H          -12.85043619440220      -28.46977889411589       -6.41730624375830
C           -8.92034926462500      -24.46534744612934       -2.64309543869344
H           -9.20114970666898      -25.51134008790811       -2.51716456104166
H           -9.79443597020938      -23.92768728652502       -3.01127390106048
H           -8.65404835019859      -24.06616485157394       -1.66858592762056
C           -6.00576433954518      -23.24383909437339       -2.11382675748285
H           -5.68346811286072      -24.02114868945458       -1.41960641756296
H           -6.77664794112281      -22.65435531179434       -1.62023924143129
H           -5.15858759694824      -22.59177937531507       -2.31078586379137
O           -7.16529735111270      -22.83871825123955       -7.91587089965946
H           -7.50011450850786      -22.69208291797371       -8.80781321159223
H           -7.38354758285874      -22.15319214858420       -7.28063395088189
C           -3.52122680104137      -26.90854359329972       -6.77329154171621
H           -2.92821998900794      -27.22266061668924       -7.62738689650193
H           -3.35733704893081      -27.58131266708477       -5.93907349691360
H           -3.28163295211848      -25.88568289617116       -6.50959426445595
S           -5.27533168019412      -27.01058448492097       -7.27040641540861
H           -5.77629560684567      -26.69439528146516       -6.07070633294071
72
 energy: -105.969339185575 gnorm: 0.022434776437 xtb: 6.7.1 (edcfbbe)
Fe          -6.21346962143160      -24.74594284327923       -7.56659946406651
N           -4.46256648365775      -23.80564270914716       -7.28726887393362
N           -5.85805100304919      -24.86643708875838       -9.51466386929437
N           -7.96721595082049      -25.71167507227891       -7.79796311048216
N           -6.62318615869505      -24.51854795356388       -5.59624247868568
C           -3.90571798069886      -23.44862883647547       -6.09930508138501
C           -2.59811426195799      -22.86919066219264       -6.31174690099211
C           -2.39982213811103      -22.85091529451038       -7.65844216938366
C           -3.57927598083462      -23.43857004645992       -8.25130226642864
C           -4.81011214299657      -24.32405236995341      -10.18883935333530
C           -4.88267177117242      -24.65027200235780      -11.58956708406260
C           -5.99645768442843      -25.43894848878343      -11.74558097574304
C           -6.59390525002292      -25.54650187134989      -10.42542421521499
C           -8.36683592893355      -26.36278038805265       -8.92192249219686
C           -9.57780307352137      -27.10065041201845       -8.68242295873867
C           -9.93645325671357      -26.84546125734908       -7.37874891278169
C           -8.90075915592829      -25.96938292722209       -6.85081418229899
C           -7.80966410808422      -24.78694528516845       -4.99039508924699
C           -7.77850060992543      -24.35109813253942       -3.61266423036652
C           -6.53011150874130      -23.84761037455156       -3.39307755345004
C           -5.82237381425293      -23.96103995829185       -4.64909488256187
C           -4.52512069309724      -23.53831436405223       -4.86582187249978
H           -3.96418921837363      -23.19731136967673       -4.00655308499691
C           -3.76218072085048      -23.63200277483489       -9.60541177209335
H           -2.99171972200495      -23.25066903010239      -10.26137609410762
C           -7.73160628266856      -26.27718603272443      -10.14790691385176
H           -8.17565747333788      -26.81590113667191      -10.96953720233165
C           -8.86967299585540      -25.46401501135206       -5.56271278387940
H           -9.72879913478406      -25.64197317415787       -4.93049802617620
C           -1.19291762563218      -22.35521984899821       -8.37838364835427
H           -0.31165827302786      -22.46654656362753       -7.74872870215398
H           -1.29535414496349      -21.29851566626935       -8.63234260937401
H           -1.02690968644133      -22.90963080790314       -9.29897585238789
C           -1.65921873127911      -22.38731575456071       -5.26037776036813
H           -1.00045277777716      -23.19452389304992       -4.93308412107652
H           -2.19339496852340      -22.01470318091965       -4.38978952269286
H           -1.03951794385814      -21.58200254078925       -5.64976088167972
C           -3.92806047809069      -24.20415828743529      -12.63813154755912
H           -3.22071719014917      -25.00186904025911      -12.87327525634042
H           -3.36115032669915      -23.33381571814603      -12.31709397029169
H           -4.46744990525248      -23.95025496054669      -13.55011800122822
C           -6.53952813671704      -26.03505185782649      -12.93830247407279
H           -7.59008802218511      -26.29691802568588      -12.88287351364223
C           -5.89230156670707      -26.29086556209208      -14.07386538892547
H           -4.84386364433311      -26.09380907368174      -14.20842384767306
H           -6.40015738258414      -26.72200893313575      -14.92108441077976
C          -10.24964943269070      -27.98952218650305       -9.66650260528489
H           -9.63981184218308      -28.12672528954413      -10.55508583169519
H          -11.21033922125440      -27.57270388485345       -9.97294799772441
H          -10.42902108699727      -28.96960730781608       -9.22434619222952
C          -11.03688153817196      -27.36322152275697       -6.60928658569420
H          -10.99275187335970      -27.14820124350369       -5.54765447226311
C          -12.07395803088721      -28.07664561862672       -7.05013937277142
H          -12.22056092424026      -28.33553244031904       -8.08355528159441
H          -12.83120060904325      -28.43814706702922       -6.37249431903148
C           -8.90954035680577      -24.46844767065539       -2.65458504293260
H           -9.18652364697102      -25.51371004865823       -2.52425223172570
H           -9.78122283457594      -23.92933843045012       -3.02376597348553
H           -8.63631771704400      -24.06407297893539       -1.68369069810425
C           -6.00244633571190      -23.25838315694983       -2.13176315363254
H           -5.67540699617572      -24.03958252382398       -1.44480667015303
H           -6.77666782369986      -22.67651167079368       -1.63392186653637
H           -5.16044872098434      -22.60289560981534       -2.33201473637923
O           -7.12842375459661      -22.80188338582558       -7.94525853361220
H           -7.56074305258939      -22.64999686612181       -8.80211679953556
H           -7.44086846933110      -22.15668727211277       -7.29246427847778
C           -3.50917704944291      -26.91197332151694       -6.75868981769426
H           -2.94214945553846      -27.21224522297939       -7.63631525256623
H           -3.31515995510445      -27.59317229277011       -5.93648098077865
H           -3.27003493692729      -25.88934688040506       -6.49109081114291
S           -5.27845627581935      -27.02787876070873       -7.21574049693972
H           -5.76148313068549      -26.78769076372159       -5.98551459482866
72
 energy: -105.970679682306 gnorm: 0.019815301718 xtb: 6.7.1 (edcfbbe)
Fe          -6.21615308431207      -24.73970905688903       -7.56660671355039
N           -4.46607594943538      -23.82151479528924       -7.28792147960836
N           -5.84883234986644      -24.87682562207844       -9.50948145086838
N           -7.96058706201773      -25.70134362790638       -7.80208930273991
N           -6.62614499499710      -24.51224336326935       -5.61209601293003
C           -3.91119217516522      -23.45274955005420       -6.10192743334557
C           -2.60462148947121      -22.87592149739951       -6.31309658351985
C           -2.40263861997290      -22.86636511170878       -7.65793748190388
C           -3.57720149875437      -23.45932655190333       -8.24986048714622
C           -4.80065576930935      -24.33439071140797      -10.18532602755911
C           -4.87656031685142      -24.64839595776006      -11.58602629949681
C           -5.99092790793836      -25.43178804843074      -11.74557230418557
C           -6.58721871447107      -25.54748062316670      -10.42707219712017
C           -8.36009616547403      -26.35377922653876       -8.92776434966295
C           -9.57037049075740      -27.09079900926988       -8.68982948997771
C           -9.92745279454715      -26.84069784190876       -7.38674822195497
C           -8.89445577375804      -25.96755412225499       -6.85593131645006
C           -7.80834318504965      -24.79089991232223       -5.00078412004223
C           -7.77666088380512      -24.35984539363936       -3.62275055357006