87
 energy: -128.370170520469 gnorm: 0.258953979681 xtb: 6.7.1 (edcfbbe)
Fe           8.89200000000000       10.23300000000000       26.26500000000000
N            9.60600000000000        9.94100000000000       24.31800000000000
N            8.74800000000000        8.19300000000000       26.44900000000000
N            8.21800000000000       10.44300000000000       28.04200000000000
N            9.07900000000000       12.27400000000000       25.82600000000000
C            9.98600000000000       10.89600000000000       23.39400000000000
C           10.50300000000000       10.25400000000000       22.21900000000000
C           10.42600000000000        8.91900000000000       22.42000000000000
C            9.87200000000000        8.71000000000000       23.73800000000000
C            9.18200000000000        7.27500000000000       25.56900000000000
C            9.03400000000000        5.95300000000000       26.17800000000000
C            8.53500000000000        6.13300000000000       27.41700000000000
C            8.35900000000000        7.57600000000000       27.61300000000000
C            7.85200000000000        9.51100000000000       29.00200000000000
C            7.42300000000000       10.18300000000000       30.20300000000000
C            7.55500000000000       11.52000000000000       30.00100000000000
C            8.03500000000000       11.69500000000000       28.64300000000000
C            8.72500000000000       13.17800000000000       26.81500000000000
C            8.93300000000000       14.52000000000000       26.29100000000000
C            9.45000000000000       14.35200000000000       24.85500000000000
C            9.51200000000000       12.91500000000000       24.67299999999999
C            9.91000000000000       12.26600000000000       23.53900000000000
H           10.18900000000000       12.87800000000000       22.68200000000000
C            9.65300000000000        7.50100000000000       24.32000000000000
H            9.88000000000000        6.62100000000000       23.71800000000000
C            7.86800000000000        8.15700000000000       28.76800000000000
H            7.46900000000000        7.50000000000000       29.54100000000000
C            8.25700000000000       12.91500000000000       28.06600000000000
H            8.03100000000000       13.78400000000000       28.68400000000000
C           10.88200000000000        7.81900000000000       21.43800000000000
H           11.45400000000000        8.28000000000000       20.60500000000000
H            9.99500000000000        7.29700000000000       21.02100000000000
H           11.53600000000000        7.09300000000000       21.96600000000000
C           11.03200000000000       10.98700000000000       20.96900000000000
H           12.07000000000000       11.33700000000000       21.15600000000000
H           10.38900000000000       11.86600000000000       20.74900000000000
H           11.03700000000000       10.29300000000000       20.10100000000000
C            9.45000000000000        4.67200000000000       25.41000000000000
H           10.39400000000000        4.86200000000000       24.85500000000000
H            8.65500000000000        4.39400000000000       24.68500000000000
H            9.61600000000000        3.84100000000000       26.12800000000000
C            8.19000000000000        5.12800000000000       28.55099999999999
H            7.92300000000000        5.49500000000000       29.55300000000000
C            8.20700000000000        3.80900000000000       28.34700000000000
H            8.12200000000000        3.11200000000000       29.19400000000000
H            8.30600000000000        3.40300000000000       27.32999999999999
C            6.96400000000000        9.43300000000000       31.47700000000000
H            7.49300000000000        8.45900000000000       31.54500000000000
H            5.87000000000000        9.24600000000000       31.42900000000000
H            7.20700000000000       10.03800000000000       32.37700000000000
C            7.24900000000000       12.75600000000000       30.91300000000000
H            7.68700000000000       13.73100000000000       30.65500000000000
C            6.47900000000000       12.70600000000000       32.00300000000000
H            6.01300000000000       11.76000000000000       32.31400000000000
H            6.30200000000000       13.61100000000000       32.60300000000000
C            8.63800000000000       15.81200000000000       27.07100000000000
H            9.25400000000000       15.83600000000000       27.99500000000000
H            7.56400000000000       15.84300000000000       27.35300000000000
H            8.89300000000000       16.69400000000000       26.44600000000000
C            9.84300000000000       15.49000000000000       23.85600000000000
H           10.04400000000000       16.42600000000000       24.42000000000000
H            9.00800000000000       15.67000000000000       23.14500000000000
H           10.76000000000000       15.20100000000000       23.29900000000000
C           13.90500000000000        8.86000000000000       28.54400000000000
H           14.51500000000000        9.63300000000000       29.05900000000000
H           14.55000000000000        8.31400000000000       27.82200000000000
H           13.50200000000000        8.15500000000000       29.30200000000000
N           12.96600000000000       10.45200000000000       26.82200000000000
H           13.85900000000000       10.77500000000000       26.50800000000000
C           12.78000000000000        9.51600000000000       27.81800000000000
C           11.79300000000000       10.84300000000000       26.36100000000000
H           11.65100000000000       11.55500000000000       25.54900000000000
N           10.85700000000000       10.22400000000000       27.05300000000000
C           11.44400000000000        9.38700000000000       27.96200000000000
H           10.85200000000000        8.77500000000000       28.63000000000000
C            3.22700000000000       10.05600000000000       25.61199999999999
H            2.85100000000000        9.49700000000000       24.72800000000000
H            2.71400000000000       11.04000000000000       25.66100000000000
H            3.00900000000000        9.46900000000000       26.52900000000000
N            5.26100000000000       10.95000000000000       24.42800000000000
H            4.74200000000000       11.36300000000000       23.68000000000000
C            4.70400000000000       10.26100000000000       25.48200000000000
C            6.57200000000000       10.97100000000000       24.57100000000000
H            7.26200000000000       11.45500000000000       23.88200000000000
N            6.87600000000000       10.31600000000000       25.67000000000000
C            5.72300000000000        9.88500000000000       26.27900000000000
H            5.74200000000000        9.35200000000000       27.22100000000000
87
 energy: -128.434265964023 gnorm: 0.116526636409 xtb: 6.7.1 (edcfbbe)
Fe           8.88632097893298       10.22386751490843       26.25278341567033
N            9.61580248611211        9.94369624686968       24.31551463436950
N            8.76330860376990        8.20198229813981       26.47883674247369
N            8.22704478532150       10.46728875496100       28.05599423397062
N            9.07525385961636       12.26603403422754       25.83963683188590
C            9.98627853930894       10.89549133291940       23.39719924552075
C           10.50152337541006       10.25951437139402       22.20590133566437
C           10.43240816035657        8.91810777655797       22.40964542894862
C            9.87317403448255        8.72503934665898       23.73169347233041
C            9.17092016882922        7.26631752537798       25.59250777101883
C            9.02919266288712        5.93827354672881       26.18255465472312
C            8.51366653373577        6.11730526251289       27.43393143109223
C            8.35472481273196        7.56396754254497       27.61204892466988
C            7.84665253179553        9.53488094968171       28.99552400654354
C            7.42149103607236       10.19313559705521       30.21427285743889
C            7.54513969753202       11.54158581384275       30.00921812418461
C            8.04030285581108       11.70142303339207       28.64779590778056
C            8.73707794714885       13.19709969070924       26.78028914038225
C            8.94429235575864       14.52741488817448       26.24932515371646
C            9.43328884729288       14.36316526303989       24.90970696799562
C            9.49208007055649       12.93019556729749       24.70934471189173
C            9.90334925209720       12.27233932249928       23.55618325184201
H           10.18980793397696       12.88009796064801       22.70255830664114
C            9.65022952978637        7.49938548798427       24.31997528603086
H            9.88249666834524        6.62635947668592       23.71902261508636
C            7.86827238634530        8.16626639966261       28.76253649280115
H            7.48212266891077        7.51298875293629       29.53787715224157
C            8.26328303518999       12.92704596533460       28.05475994521113
H            8.03556036958290       13.78954771368086       28.66936256911917
C           10.87634896134043        7.82960935096971       21.45223462227691
H           11.44283927872178        8.26874923514859       20.62391385491306
H           10.00941907682803        7.30316295644656       21.03464886733478
H           11.52110409062015        7.10376960968295       21.96012305636017
C           11.02631741209850       10.98206954087847       20.98267678381246
H           12.05211915264898       11.33308533233691       21.15510465485607
H           10.39919014816140       11.84905881374861       20.74955570124344
H           11.03376532840945       10.31059433439814       20.11770446642582
C            9.44693002080054        4.68843771723301       25.42392898147890
H           10.37554105197590        4.86537711628156       24.86856389351223
H            8.66871921526248        4.40069185943657       24.70452822201977
H            9.62371509139205        3.85666552069749       26.10972640862604
C            8.19980327697018        5.13205583298356       28.51902282169818
H            7.95990807213388        5.51179099106950       29.51361056252852
C            8.20398110513086        3.81368004639398       28.34273480373911
H            8.09935383805101        3.12622034251617       29.17798409763533
H            8.30902868831184        3.38785738206444       27.35582465599507
C            6.97388370561079        9.44393184970362       31.45934768907251
H            7.48610322357118        8.47832847713241       31.53868868502573
H            5.89262000839451        9.25369574890874       31.42805350958653
H            7.20506708983088       10.02623939943381       32.35746160660551
C            7.25146829279580       12.71823810188569       30.90605204938924
H            7.68973454365951       13.68124781621853       30.63777029002384
C            6.48443343950890       12.69025280438425       31.99263487925950
H            6.00469626205953       11.77664008518263       32.31582954731162
H            6.30846958122810       13.58612486064246       32.58539084262223
C            8.65189132419274       15.79022809315509       27.03959518263692
H            9.24597289482954       15.82708195994957       27.96506013215180
H            7.59276049859638       15.83680978169196       27.33324751749991
H            8.88792956651696       16.68152458393491       26.45034223606045
C            9.82675594446657       15.45509194654470       23.90086248968497
H           10.03558978594850       16.39917871764982       24.41886190649896
H            9.02347677761103       15.65152721827237       23.17397303070204
H           10.72853305440876       15.19059722493804       23.32850789214999
C           13.90910048353100        8.86487405553684       28.54415240040416
H           14.51781845719121        9.61856422624472       29.05775673904712
H           14.54746840452210        8.31794634393619       27.83952710659650
H           13.51168940264521        8.16664642428666       29.28645846447832
N           12.98292223184455       10.44442320983344       26.82671913419130
H           13.87857925556946       10.77025320072370       26.50947193271791
C           12.78696830305120        9.51963853163387       27.82277682206312
C           11.78814398595380       10.83642954055093       26.36867619958351
H           11.64709508817215       11.54396862389814       25.56839168129445
N           10.83718575222705       10.21361073181010       27.02810405666539
C           11.43664935769286        9.39745289748011       27.94664381212283
H           10.85220492387775        8.78751343231443       28.61198950892506
C            3.22513055960478       10.05787522056256       25.60868231294657
H            2.84580252265262        9.50488531571760       24.74062758183421
H            2.70989531002480       11.02378800247107       25.66272932057721
H            3.01117435220970        9.48198211103635       26.51319738442172
N            5.24172378458511       10.94922752622528       24.42337550577063
H            4.72254828936286       11.36562309309232       23.67180583793080
C            4.69330085846536       10.26604696517286       25.47931669845742
C            6.57125823677402       10.96268001822743       24.57513826822786
H            7.25550167764743       11.44145399774647       23.89486860097849
N            6.89684022317976       10.32055982319401       25.67070139321762
C            5.73895983298968        9.88826543384620       26.26270321354513
H            5.75450271644074        9.35685918611761       27.19761947201962
87
 energy: -128.453972100867 gnorm: 0.040923548042 xtb: 6.7.1 (edcfbbe)
Fe           8.88619087007043       10.22081657628897       26.24475649429236
N            9.61408427966660        9.94543596746664       24.31520611691210
N            8.77214745941086        8.21485480400160       26.49883774389242
N            8.22864556859967       10.49463663021751       28.06944027823117
N            9.06469353452958       12.25893772603468       25.85508584204631
C            9.98168921457106       10.89583044451791       23.40672521491782
C           10.49647853244164       10.26651280958902       22.20313775199362
C           10.43341568052294        8.92049583885625       22.40949219704166
C            9.87218607818173        8.73871663017434       23.73539383061004
C            9.16648474495950        7.26658787017606       25.60968469600432
C            9.02499695622384        5.93893063840204       26.18069340244679
C            8.49843773276194        6.11296213201146       27.44252269577394
C            8.35468532437259        7.56078683418598       27.61098632563875
C            7.84914520791054        9.55785993162231       28.98763401153261
C            7.41995421930290       10.19949166775712       30.21629345194423
C            7.53837412823354       11.55689015631173       30.01329895993251
C            8.04595111117463       11.71035946641392       28.65117673957063
C            8.74165757980182       13.20665107000675       26.76294198292734
C            8.95445254717542       14.52932524320854       26.21603298883684
C            9.41509306444828       14.36542382011055       24.95774206183112
C            9.47618592522152       12.93023171736276       24.73974927294998
C            9.89733784436537       12.27487107527019       23.57848034696520
H           10.19197767706317       12.88366965125183       22.73219124217933
C            9.65126457572307        7.50410363657495       24.32613377334236
H            9.88452036861585        6.63723288651213       23.72403371850742
C            7.87734519532802        8.18195734026993       28.75890782502081
H            7.49952518014765        7.53563012376870       29.53936535908440
C            8.26854102880986       12.93899851826780       28.04900535041834
H            8.04045837394956       13.80125378135563       28.65636078404598
C           10.86850203746337        7.84110024187186       21.47044014526866
H           11.43254352474913        8.26458392385422       20.64198220014417
H           10.01159967832754        7.30956330253243       21.05544249519724
H           11.50639453989382        7.11439736113414       21.96995085313816
C           11.01746484781229       10.98012001546940       20.99815018244329
H           12.03712347634277       11.33194906232359       21.16367459101269
H           10.40031320889858       11.84173107747620       20.75493999912842
H           11.02840483818227       10.31991867923658       20.13424077107101
C            9.44227544740965        4.70778403018642       25.43999615518547
H           10.36022146842491        4.88517577334433       24.88161639489023
H            8.67244034100932        4.40961836351123       24.72543838685490
H            9.62914238820049        3.87527174002125       26.10915188068342
C            8.21203373712567        5.14540527134959       28.47931148879827
H            8.00610054468032        5.53983171683552       29.47042989452788
C            8.19578113265402        3.82062572736065       28.33441505751085
H            8.06587125808427        3.14901343930079       29.16813156556484
H            8.31145524501103        3.36239856119114       27.37274390850902
C            6.98377767326835        9.45744438048411       31.44024725738548
H            7.48792247513339        8.49615502846841       31.51879673291450
H            5.90871557708431        9.26627381012453       31.41905184418084
H            7.20990798958176       10.02700316790381       32.33832049162880
C            7.25193936735998       12.67471813331057       30.88941979573704
H            7.69963881941527       13.62510465125344       30.61452650487279
C            6.48603465906042       12.66873502752071       31.97863214255181
H            5.98582049477260       11.78241702319509       32.31862116007242
H            6.32359557799152       13.56008474321721       32.56634741653650
C            8.66699603998042       15.77384512444211       27.00425318180798
H            9.25271590634705       15.80449132543999       27.92714612322770
H            7.61514557536428       15.81758862156916       27.29983406486199
H            8.89203192712486       16.67071302322789       26.43400622832750
C            9.80806793914827       15.42071044061656       23.95032637176032
H           10.02123894705040       16.36956712357761       24.44316404572584
H            9.01653230434675       15.61028983059266       23.21787199984107
H           10.69978411189732       15.14772121854046       23.37994663561544
C           13.90847534307624        8.86952864585261       28.54782161939773
H           14.51981493948061        9.61052177350214       29.06016414955890
H           14.54354929992034        8.32338825462085       27.85158155107775
H           13.51503670384483        8.17284991658299       29.27962306167938
N           12.99700785810188       10.44119054042934       26.83010525106297
H           13.89388517882639       10.76983510638754       26.51296171068967
C           12.78856327690261        9.52348205911088       27.82571985592265
C           11.79016152175507       10.82563919101294       26.36406221430499
H           11.65033457673265       11.53476589984889       25.57552947328616
N           10.82798771903848       10.20137078611130       26.99550970941481
C           11.43003879384271        9.39978855434497       27.92239214811940
H           10.85146449968448        8.79304761267158       28.58926378332939
C            3.22795352595475       10.05859380375738       25.60971927178615
H            2.84376581539576        9.51043970676662       24.75035899876367
H            2.70774003047382       11.01336870401047       25.66600869040817
H            3.01535058773078        9.48948920807692       26.50751043911797
N            5.22958702882609       10.94982381277983       24.41669127835720
H            4.70893607099671       11.36936240290905       23.66483337699569
C            4.69190164576782       10.26967550268210       25.47681411737636
C            6.57131459361754       10.95641835514428       24.56894527816317
H            7.25032806364524       11.43157383458572       23.89308220372993
N            6.91865065586811       10.31835699286111       25.65664569443780
C            5.75957311620733        9.89009623527468       26.24239012342538
H            5.77012605152954        9.35658715220449       27.17138757372757
87
 energy: -128.436172480079 gnorm: 0.212377138032 xtb: 6.7.1 (edcfbbe)
Fe           8.85738730685030       10.23041348019752       26.25224926066259
N            9.56333574339476        9.95975902349447       24.33005522688876
N            8.82158208922530        8.23512733394839       26.57215464138454
N            8.23327023579558       10.52652148582457       28.11969563691821
N            9.04602865054816       12.26108794875624       25.91073270175639
C            9.91856903403379       10.90488942253144       23.42672192246694
C           10.44435138538484       10.28439838084191       22.21498254240499
C           10.39316764339549        8.93436083604968       22.43044640176100
C            9.83576070934825        8.76810800764640       23.75993511819719
C            9.19536893130129        7.28327512077935       25.66789776125561
C            9.07837294080077        5.95182104277661       26.20671999751017
C            8.56722890401708        6.10383717325119       27.49229614322684
C            8.44081075086582        7.55500683219320       27.67438445943433
C            7.88805712332846        9.58198542692389       29.03117391420616
C            7.41040384906215       10.21200778038650       30.25540081266328
C            7.51058679274011       11.57797782036798       30.04821718740403
C            8.04423955021955       11.72684453366097       28.68859134212454
C            8.74772303731805       13.23248604815602       26.78293708554638
C            8.98396633893253       14.54574489068623       26.20895771775008
C            9.41548250992235       14.36212317028806       25.03077748867877
C            9.44528075176395       12.92899890711061       24.80414059273598
C            9.84219479339584       12.28219726306857       23.62090514952615
H           10.12588053275313       12.89599862241898       22.77892993958968
C            9.64807404941362        7.52654089160048       24.36181736104648
H            9.88595672780082        6.66744254827609       23.75818448685149
C            7.97942214078493        8.19288771317686       28.82638097506843
H            7.66723375253267        7.54627652560808       29.63567790673490
C            8.26947622499617       12.96247123450392       28.07987206242445
H            8.04685887599889       13.82218681247336       28.68555711327986
C           10.83452982965315        7.84203571044122       21.54496064987812
H           11.38235054187685        8.22714609233142       20.69528254381644
H            9.99330533305287        7.26982443453212       21.16504093411186
H           11.47995669342473        7.15017364985149       22.06766725137711
C           11.00956826856910       10.99406172927684       21.05190413483194
H           12.00943154116940       11.35869508765886       21.26434954156486
H           10.40536514345958       11.84442933032057       20.76632851699265
H           11.07771616281811       10.34405259872048       20.19070283343993
C            9.45576421550878        4.76245182351896       25.42113385375534
H           10.36225820978883        4.94125251195998       24.85784753890476
H            8.68204324298475        4.51543803515869       24.70100477661038
H            9.63658476689757        3.88515357298522       26.02546067644762
C            8.28794327625939        5.11033339166895       28.43566224797526
H            8.12875857545697        5.47365972066781       29.44304753121794
C            8.18993612334723        3.78980562763008       28.24303162039519
H            7.99162057275269        3.08500911265477       29.03043115502194
H            8.28401104124693        3.35589429295362       27.28039397700200
C            6.94106056751253        9.51576122974566       31.46809213201200
H            7.40690050909636        8.54682647519409       31.59701313484242
H            5.86715812710426        9.35450437438830       31.44457405287022
H            7.15351519742472       10.09675515323867       32.35288208044521
C            7.21320557390991       12.62199215384588       30.92061925457605
H            7.69948240364254       13.55741255354867       30.68210849555475
C            6.45421856507282       12.61486876314075       32.01677385182248
H            5.88315928206523       11.76392772855310       32.32330550477636
H            6.38695566734733       13.46776231217061       32.67508813934150
C            8.68845221202926       15.79177001327163       26.96044082180540
H            9.17578640601696       15.80617428506400       27.94114294591916
H            7.61800890881860       15.88448011989750       27.15381008956317
H            9.00056392941387       16.67614911273547       26.42318550208275
C            9.82234659742093       15.28977719619870       23.92821958177364
H           10.07373312152706       16.29581613449111       24.29447985737547
H            9.04021978887888       15.40990868995070       23.17693867323080
H           10.68596870174257       14.92130027786357       23.37326348981293
C           13.85604605032761        8.88273251142253       28.57499734988497
H           14.41450450776496        9.62994534435179       29.12297665878238
H           14.54834943556365        8.33567009040407       27.94344600261100
H           13.41642452297072        8.19563534013199       29.27753679199971
N           13.03267586650903       10.43890484652837       26.79808769194179
H           13.94073507033914       10.79420359029472       26.53324115866625
C           12.77794921596207        9.50927233773067       27.77039972195863
C           11.82831757703215       10.81249945936900       26.28166889509962
H           11.71595151032303       11.54565953231642       25.51908125916049
N           10.83400929162288       10.16511018882450       26.83946687569017
C           11.40853009268422        9.34981340505355       27.76402347258912
H           10.81333395627984        8.70925565910965       28.37738363154830
C            3.25676939835485       10.05855040131445       25.63596439728807
H            2.82314701025456        9.50548093410604       24.81105017642378
H            2.72575352532687       10.99721119790776       25.72630304967650
H            3.11197364549468        9.49737542945275       26.54389939130410
N            5.19026859856639       10.97097554895288       24.33948243166083
H            4.63845269252868       11.38974512111976       23.60501192933223
C            4.70605974793011       10.28593009705749       25.42248278666263
C            6.54945024739334       10.98941985616812       24.45338429444636
H            7.19453216549528       11.47578383637112       23.76215278515135
N            6.95804400324395       10.35608602362238       25.52532800834185
C            5.82483489754639        9.90956922652769       26.13193179222774
H            5.87093649726962        9.36779044923450       27.04971910690606
87
 energy: -128.457656898557 gnorm: 0.043929648865 xtb: 6.7.1 (edcfbbe)
Fe           8.86929963420993       10.23327143220926       26.24515397123080
N            9.56827062626862        9.95805318274797       24.33171655945361
N            8.81009900050215        8.23498381837703       26.55234762437554
N            8.23949053705217       10.52009333144287       28.10266440284327
N            9.04385586007136       12.26025312278144       25.90675656689876
C            9.92563495652539       10.90249484601076       23.42518867139922
C           10.44802002302075       10.28098485978275       22.22105589569843
C           10.39412816480772        8.93589669221778       22.43464627201645
C            9.83803137021922        8.76085417611047       23.75973189691780
C            9.19273521441968        7.28982474558343       25.65199850062740
C            9.06873358505279        5.96329529373539       26.19917603037806
C            8.56387485124171        6.11814291204594       27.47470618997397
C            8.42951503418036        7.56524809832408       27.66553027402087
C            7.88674070319540        9.57514375007543       29.01964203876879
C            7.41404450498860       10.20531512780461       30.23688123960070
C            7.51361891684503       11.56274658146415       30.03243703545755
C            8.04258781841836       11.72685954450223       28.68069139702638
C            8.73796777765995       13.22215843567829       26.80251774418823
C            8.96433069478181       14.54150267573060       26.24449252748160
C            9.42366035108343       14.34271932445733       24.98558723838982
C            9.45143305001452       12.91104270062415       24.78561500227169
C            9.84940147934911       12.27411789543086       23.61396270511581
H           10.13836506610557       12.89444116620368       22.77781550543306
C            9.64790320865082        7.52718531190788       24.35734330052237
H            9.88738105597586        6.66481963627583       23.75544163284644
C            7.96857117715752        8.19452969420538       28.81675582295989
H            7.65373777847571        7.55210858059393       29.62894733264770
C            8.26488798705239       12.96165674983270       28.08626978539894
H            8.04262832576720       13.82697167442570       28.68925833067814
C           10.83728588672446        7.83772087416041       21.53834929857256
H           11.38736074524235        8.23142182465335       20.68909322872699