87
 energy: -128.467664334522 gnorm: 0.000040347710 xtb: 6.7.1 (edcfbbe)
Fe           8.99564528308708       10.24698955472223       26.19552823835390
N            9.62783313082537        9.95810019992363       24.31374895323693
N            8.85963818295764        8.26408005574932       26.45871855277629
N            8.35909531875484       10.54651621972363       28.07388743242659
N            9.13992237456877       12.23075782834635       25.92882158496046
C            9.96056251689486       10.91026472730753       23.40373620956351
C           10.36030540772439       10.30551208998536       22.15214605197699
C           10.25987935138048        8.96099503218174       22.33024662023242
C            9.80269041543600        8.76426049564932       23.68871948357025
C            9.15257101010011        7.29843380355331       25.54810363388255
C            8.93370003411880        5.98674026533305       26.10266224836922
C            8.48947839047483        6.17923573137868       27.38432338913345
C            8.46159443971911        7.61660022522733       27.58295253852364
C            8.01349661655766        9.59079508539716       28.97865395820916
C            7.58465872177406       10.18796725391986       30.21756621806835
C            7.67748161592264       11.54354033893073       30.04179107107543
C            8.17377055133879       11.73814190388735       28.69226868737024
C            8.84853845883080       13.19659649015132       26.83773197601595
C            9.07593734985260       14.51081700717547       26.27794059373801
C            9.51286373385031       14.31339700126090       25.00498879180023
C            9.54401675232338       12.88145435215301       24.80594489240477
C            9.92921797292916       12.27680912374151       23.62226179076415
H           10.22463596651930       12.91978599266141       22.80622467475757
C            9.58732014037547        7.52292498492506       24.25292857796140
H            9.76664955986383        6.65881641186342       23.63105829474024
C            8.05254156319741        8.22377279541922       28.75589218789229
H            7.72964969881748        7.58195143059382       29.56208108014098
C            8.39216043287096       12.97924823705782       28.12380067585706
H            8.18735003732040       13.84948656690265       28.72888957296483
C           10.54623621712918        7.85797898986718       21.36922676417235
H           10.86676090954228        8.25375004754236       20.40834409601392
H            9.65655101713994        7.24830167099861       21.20963169467524
H           11.33459759034357        7.20980748999482       21.75310736164853
C           10.78661435953382       11.07027949269054       20.94489262329827
H           11.66255008617455       11.68141527092856       21.16544204876494
H            9.98966928855700       11.73417218355435       20.60803377642499
H           11.03740750682131       10.39683950121261       20.12889089058352
C            9.22158204646741        4.70130977230745       25.40785696882786
H           10.11868281933369        4.78669694605171       24.79637416092515
H            8.39431161484440        4.41647515179174       24.75534985630273
H            9.37184578342987        3.90781351933394       26.13739942838358
C            8.13952429361855        5.20058341018734       28.38879812557819
H            8.35157495946290        5.48437957453324       29.41359274237981
C            7.58432117883437        4.01520472627491       28.15541323370887
H            7.36388974593053        3.32882546345448       28.95638434689167
H            7.30612622478513        3.69739680038758       27.16587944615152
C            7.19884784968282        9.43769710857734       31.44513252813570
H            7.82323768054574        8.55408188761579       31.57040806400504
H            6.15895270809763        9.11020381953510       31.39230890813500
H            7.31460374630247       10.07181686783135       32.32190094179734
C            7.38598320805326       12.60776854457555       30.97560895655483
H            8.00798575270172       13.49128802282823       30.88711284704410
C            6.43209845590507       12.58515900447301       31.90142639237589
H            5.75284295282692       11.75705886149904       32.00449317923503
H            6.28044684078301       13.41262813361702       32.57495536536381
C            8.85453367444548       15.78926462820065       27.01176551774872
H            9.48621222076729       15.83592411053101       27.89930514306272
H            7.81586376610686       15.87185947576337       27.33285143554456
H            9.08705478081125       16.64427483139751       26.38118832997323
C            9.89693623994974       15.31674491108035       23.97059618820538
H            9.79408475045049       16.32825688396062       24.35596129435435
H            9.26424947175391       15.22124037722313       23.08738510124483
H           10.93226394934316       15.17272258949050       23.65960376644250
C           13.72985929069061        9.26412285669510       29.01916266680355
H           14.20273156121839       10.10206004354511       29.53157407442639
H           14.50880273239008        8.68347462394812       28.52479563665883
H           13.24288574222770        8.63499294897461       29.75765743656265
N           13.05511977848413       10.55735342425730       26.98291062601882
H           13.97710429306431       10.90201525830536       26.77157301157132
C           12.72555247808207        9.74467633005786       28.03655662184550
C           11.92163605404668       10.80659955348694       26.28888754236398
H           11.87760966353384       11.41666366613417       25.41050602870439
N           10.89690306666903       10.20269940856966       26.83737418128833
C           11.38061997634900        9.53834580646842       27.92538198266226
H           10.73360003353156        8.96005628137730       28.55154623762831
C            3.47624088173085        9.56782992557473       25.54466777468606
H            3.11762058430739        9.04740556891860       24.65652607821771
H            2.84023896558005       10.43757365569737       25.71026376696982
H            3.38540144575094        8.90315561868257       26.39806508031441
N            5.31286126500909       10.80567474365159       24.37465349315322
H            4.72535043237582       11.21284861909961       23.66574759258391
C            4.89493045140425        9.97499353169224       25.38187887347228
C            6.64716043754273       10.97583284596367       24.51253208828890
H            7.24547524876354       11.57940984458558       23.86184740738227
N            7.09855561687025       10.30537064139101       25.54324974550222
C            6.02097827911474        9.67713512664331       26.09397175875950
H            6.12611300238720        9.05649840183493       26.95943078941330
