78
 energy: -115.463623900673 gnorm: 0.326744284761 xtb: 6.7.1 (edcfbbe)
Fe          -5.76100000000000       57.00100000000000      111.61700000000000
N           -6.39600000000000       56.11599999999999      113.33499999999999
N           -6.72100000000000       58.73199999999999      112.16899999999998
N           -4.83400000000000       57.97999999999999      110.07400000000000
N           -4.62100000000000       55.31499999999999      111.16199999999999
C           -6.13200000000000       54.85700000000000      113.71899999999999
C           -6.68300000000000       54.59300000000000      114.94999999999999
C           -7.35000000000000       55.75800000000000      115.32999999999998
C           -7.12100000000000       56.66499999999999      114.32899999999998
C           -7.39100000000000       58.96100000000000      113.30900000000000
C           -7.89600000000000       60.25299999999999      113.34699999999999
C           -7.44700000000000       60.85100000000000      112.17800000000000
C           -6.66200000000000       59.90300000000000      111.53999999999999
C           -5.01700000000000       59.26199999999999      109.71899999999998
C           -4.21300000000000       59.64900000000000      108.63800000000001
C           -3.45000000000000       58.51100000000000      108.36999999999999
C           -3.93100000000000       57.51200000000000      109.21999999999998
C           -3.88600000000000       55.13500000000000      110.07099999999998
C           -3.57300000000000       53.80600000000000      109.89300000000000
C           -4.08100000000000       53.16500000000000      111.01700000000000
C           -4.71700000000000       54.13600000000000      111.76299999999999
C           -5.39000000000000       53.94500000000000      112.96800000000000
H           -5.32800000000000       52.94000000000000      113.38300000000000
C           -7.56800000000000       57.99900000000000      114.31300000000000
H           -8.12200000000000       58.32599999999999      115.19300000000000
C           -5.89700000000000       60.12100000000000      110.39600000000000
H           -5.99800000000000       61.11299999999999      109.95900000000000
C           -3.53300000000000       56.16500000000000      109.20200000000000
H           -2.85400000000000       55.88700000000000      108.39700000000001
C           -8.18500000000000       55.99200000000000      116.58799999999998
H           -8.19800000000000       55.06600000000000      117.20200000000000
H           -9.22700000000000       56.25100000000000      116.30399999999999
H           -7.73900000000000       56.81500000000000      117.18700000000000
C           -6.59600000000000       53.27000000000000      115.68800000000000
H           -5.57900000000000       52.84099999999999      115.56200000000000
H           -7.34100000000000       52.55799999999999      115.27199999999999
H           -6.78800000000000       53.43100000000000      116.76999999999998
C           -8.83100000000000       60.75500000000000      114.44000000000000
H           -8.40400000000000       60.50800000000000      115.43600000000001
H           -9.82200000000000       60.26400000000000      114.34099999999999
H           -8.94400000000000       61.85700000000000      114.35999999999999
C           -7.71800000000000       62.09600000000000      111.62700000000000
H           -7.16600000000000       62.37600000000000      110.71899999999999
C           -8.64200000000000       63.07299999999999      112.10499999999999
H           -8.65200000000000       64.08700000000000      111.67900000000000
H           -9.35500000000000       62.82299999999999      112.90500000000000
C           -4.11400000000000       61.07400000000000      108.05200000000001
H           -4.11700000000000       61.81600000000000      108.87899999999999
H           -4.98500000000000       61.26899999999999      107.39000000000000
H           -3.16900000000000       61.17900000000000      107.47700000000000
C           -2.43700000000000       58.28000000000000      107.41900000000000
H           -1.80100000000000       57.39800000000000      107.57700000000000
C           -2.11100000000000       59.06700000000000      106.23099999999999
H           -2.68900000000000       59.96999999999999      105.98399999999999
H           -1.28400000000000       58.76500000000000      105.57100000000000
C           -2.92100000000000       53.18000000000000      108.65299999999999
H           -1.86200000000000       53.50800000000000      108.58499999999999
H           -3.45900000000000       53.51000000000000      107.73900000000000
H           -2.95000000000000       52.07200000000000      108.73200000000000
C           -4.00000000000000       51.67100000000000      111.32899999999999
H           -3.07700000000000       51.24700000000000      110.87799999999999
H           -4.88300000000000       51.14999999999999      110.90100000000000
H           -3.96600000000000       51.51900000000000      112.42900000000000
O           -4.27100000000000       57.67600000000000      113.19400000000000
H           -4.55200000000000       57.26900000000000      114.01399999999998
H           -3.56700000000000       58.20800000000000      113.08499999999999
C           -8.94400000000000       54.77100000000000      107.61699999999999
H           -9.19600000000000       55.45200000000000      106.77599999999998
H           -9.84000000000000       54.16600000000000      107.87199999999999
H           -8.11300000000000       54.10400000000000      107.30300000000000
N           -9.19000000000000       56.51500000000000      109.51600000000001
H          -10.11800000000000       56.80599999999999      109.28599999999999
C           -8.51300000000000       55.59899999999999      108.83600000000000
C           -8.47900000000000       56.97399999999999      110.51400000000000
H           -8.81600000000000       57.72799999999999      111.22399999999999
N           -7.31500000000000       56.36399999999999      110.48900000000000
C           -7.31300000000000       55.52700000000000      109.48000000000000
H           -6.44200000000000       54.91700000000000      109.27500000000001
78
 energy: -115.533125653271 gnorm: 0.128582674969 xtb: 6.7.1 (edcfbbe)
Fe          -5.72636393926440       57.01284846491013      111.62685151704703
N           -6.39855128373566       56.11761481807513      113.31894572072419
N           -6.69566451375641       58.72379909489462      112.17517540219805
N           -4.83990406772310       57.97985980196686      110.07193380321655
N           -4.62285163164565       55.33584201996040      111.16881772195892
C           -6.12796339871143       54.84774734563604      113.71175911084939
C           -6.69661977099067       54.58015402180013      114.96828230208556
C           -7.35852367647508       55.74554772854491      115.35125823917765
C           -7.13219965417769       56.67350187210636      114.32427961274074
C           -7.39996783708481       58.94642916907311      113.31874448531833
C           -7.91735423684578       60.25332903166330      113.35623834069467
C           -7.47153467995836       60.86952007716246      112.17719608456966
C           -6.66430499135284       59.90150936719820      111.51782103236104
C           -5.02526598751614       59.28007985926081      109.71960799095434
C           -4.20597036586703       59.66510479293070      108.63737257280918
C           -3.44409651528736       58.51829052638129      108.33373964545326
C           -3.90908457690710       57.50198880255265      109.22163794598939
C           -3.89361670918615       55.14490603300157      110.05199764412529
C           -3.57019210105504       53.78313254427792      109.88295428411166
C           -4.07596744536504       53.13791719405648      111.00551351272445
C           -4.72514251240363       54.12904048007422      111.77133033176671
C           -5.38822076840051       53.92553952652489      112.97213018451701
H           -5.32811928122914       52.92938682735527      113.38545463531261
C           -7.58273952067278       57.99552417340923      114.32289858580974
H           -8.12770031778327       58.32069857258642      115.19765098486960
C           -5.90930081054135       60.13827932544275      110.37929315902254
H           -5.99165562693651       61.12552484893661      109.95302856973183
C           -3.51737184030395       56.16607735084627      109.18410086758041
H           -2.84795616654287       55.88172053770562      108.38659267478707
C           -8.17835825002517       55.98565327571037      116.58670716841999
H           -8.20092217589470       55.07981629173256      117.19814765732924
H           -9.20701762831687       56.24792729929540      116.31162059930773
H           -7.74952399732620       56.80263088527948      117.17933278212351
C           -6.59826426234360       53.27451950781171      115.69254653372772
H           -5.59692444574862       52.84595916432860      115.56994881292448
H           -7.33070368772693       52.56626277098219      115.28565714308527
H           -6.78908975918293       53.42100012924578      116.75863097595101
C           -8.82396037369412       60.75469943849225      114.44002695519349
H           -8.41127814194968       60.51028431185928      115.42472962413710
H           -9.80729030789915       60.27690918098351      114.34579451563189
H           -8.94017798784107       61.83746533859990      114.37746309316600
C           -7.73853974640750       62.13891741197907      111.63646051038667
H           -7.17873508820911       62.40270046478465      110.74084603064735
C           -8.63048513436434       63.06886453192140      112.09607266826222
H           -8.65751397691719       64.06334282510296      111.67106478560095
H           -9.33787029991680       62.83731167076400      112.88169901324666
C           -4.11396214682632       61.05919968495825      108.06208845442423
H           -4.11813367490876       61.80237376206780      108.86756853826176
H           -4.96765345206686       61.26142438673521      107.40199351743516
H           -3.18744374016390       61.17742250312808      107.49373904327847
C           -2.42088470387877       58.30110488537965      107.37953076089032
H           -1.80339527193301       57.41949442630728      107.55046312691027
C           -2.11572605249380       59.05407533056871      106.26253302506746
H           -2.68407787356365       59.93657268300848      105.99222126781481
H           -1.30566783873649       58.76261933801316      105.60259467289450
C           -2.91919437271941       53.18031510533102      108.66637128560477
H           -1.87433711217104       53.50258475809857      108.58636263600049
H           -3.44783821225921       53.50160621690816      107.75995868387722
H           -2.94821220493087       52.08910694544188      108.72871054367894
C           -3.99615767021074       51.67368310833012      111.32531810607448
H           -3.08995065316179       51.24780793083577      110.88457893634710
H           -4.86832642508734       51.15355740975305      110.91098563918193
H           -3.96744915257650       51.51695641991561      112.40867771054100
O           -4.26241381460685       57.67008164169288      113.20073980517796
H           -4.52657372277358       57.28121108947344      114.03362009103937
H           -3.51937411240735       58.23450245468175      113.10782429322772
C           -8.94952858564854       54.78117328382928      107.62103554390306
H           -9.19745857477314       55.44360885311315      106.78464369698256
H           -9.82871009606214       54.17517975786112      107.86564550384385
H           -8.13220934088477       54.12101865713823      107.31499971216289
N           -9.21474348294341       56.50753152781633      109.49722478162491
H          -10.14627407828593       56.80258955136009      109.26801000308892
C           -8.51013478239046       55.57947580456677      108.81615125054464
C           -8.48633093432687       56.97324315674742      110.51090662090169
H           -8.81655153460435       57.71837652120446      111.21413509083924
N           -7.31361614263906       56.37031301099944      110.50198373291596
C           -7.30754175331214       55.51531284747571      109.47316000304687
H           -6.44326899516931       54.91229824005151      109.26986809076890
78
 energy: -115.554994875655 gnorm: 0.054476862847 xtb: 6.7.1 (edcfbbe)
Fe          -5.68708569933366       57.02422685050845      111.63305801253237
N           -6.39796994515017       56.11414257340881      113.30769982319877
N           -6.66710296196828       58.72272837609762      112.18181192019426
N           -4.83711749928001       57.98366816528309      110.07360813840380
N           -4.62323147527543       55.35153475943200      111.17186060954116
C           -6.12571875444384       54.83983545738838      113.70458041435604
C           -6.70796972050259       54.57245096261031      114.97816895587398
C           -7.36332569800249       55.73273615551486      115.36099165477540
C           -7.14046642526174       56.67677768606610      114.31630861368704
C           -7.40043347311615       58.93545934024734      113.32129694722437
C           -7.93551611850528       60.24931258690157      113.35151559806796
C           -7.49991943053412       60.87395720601052      112.17088131668301
C           -6.66956889090260       59.90110204654096      111.49960576629789
C           -5.02928784172227       59.29253098509987      109.72187669257964
C           -4.19668514703452       59.67166058611244      108.64030497999285
C           -3.44300080860944       58.52430665817622      108.31308948323067
C           -3.89317943072813       57.49633902413061      109.22206638324882
C           -3.90221538779107       55.15348907204922      110.03814778467654
C           -3.57437109418758       53.76997313603955      109.87779736145880
C           -4.07367359476810       53.12420690159108      110.99483307212205
C           -4.73117799160158       54.12634690037464      111.77673236439087
C           -5.38640116079125       53.90709058444264      112.97277718809555
H           -5.32947900955005       52.91411870081463      113.38520164220728
C           -7.59466075996046       57.98815002639161      114.32704027802603
H           -8.14275117452676       58.30872997889027      115.19700407480802
C           -5.92286652430873       60.15607736457086      110.36494192758148
H           -5.99095946124807       61.14346754667808      109.94465947981578
C           -3.50462007133415       56.16715224073120      109.16675739328433
H           -2.84020760037688       55.87551609449831      108.37213158295717
C           -8.17080866954064       55.97814003018565      116.58335034011590
H           -8.20285565975504       55.08694748739200      117.20007423735294
H           -9.19227794758743       56.24579652126669      116.31582753218063
H           -7.75367405284945       56.79382603087448      117.17212951291981
C           -6.60362321432131       53.27901842799783      115.69833668040718
H           -5.61066952236217       52.85119306687513      115.58059340999492
H           -7.32673079110525       52.56776903694727      115.29959363629430
H           -6.79654052478294       53.41241911465988      116.75693160601503
C           -8.81592749938465       60.75248003482159      114.43733835075290
H           -8.41054021456470       60.50296290124124      115.41522191997554
H           -9.80095219229146       60.29090700983770      114.35407177972724
H           -8.93063126982455       61.82651160925336      114.39282044656206
C           -7.75737519529678       62.17161112179245      111.64338624107268
H           -7.16852175427981       62.43367829224422      110.77242668238172
C           -8.62939201744629       63.07176379049637      112.08698731125253
H           -8.68057865166559       64.05026770356532      111.64763893526242
H           -9.32512042306803       62.86546546827745      112.87634366497245
C           -4.11082674045277       61.04313492490371      108.07236941548204
H           -4.12313930842157       61.78880292442069      108.86537147561368
H           -4.95404859699569       61.24678234042631      107.41053124678628
H           -3.19391394977472       61.17240691569507      107.50899269906628
C           -2.40951624863835       58.31644106937252      107.34978822324462
H           -1.80395248415483       57.43555890278886      107.53270741166739
C           -2.12783277763415       59.04048633264195      106.27868742804668
H           -2.68660419678323       59.91223816172731      105.99149201388883
H           -1.31551630129277       58.76806890307267      105.62765884199374
C           -2.91855791520192       53.18090117997451      108.68116286178864
H           -1.88146977415004       53.50171765151371      108.59605115053181
H           -3.43809977518696       53.49647917054185      107.77625750710790
H           -2.94262381607951       52.09753802235496      108.72948246264919
C           -3.99332744758634       51.67836299687875      111.31946090922378
H           -3.09819920157006       51.24431564401922      110.88514099101475
H           -4.85922333906067       51.15207581444541      110.91792653263734
H           -3.96772674158140       51.51755138730022      112.39345920407082
O           -4.19441965403133       57.67338696376244      113.23284075853579
H           -4.45049992633444       57.32489347580447      114.08814353123690
H           -3.45043640313238       58.27040512825504      113.17699850429611
C           -8.95890973061670       54.78732304130819      107.61779077883416
H           -9.20665935227213       55.44245359154603      106.78669172587648
H           -9.83062044737936       54.18316425036689      107.85747672643384
H           -8.15091314821175       54.12922435702250      107.31451289711792
N           -9.24751278475213       56.49517471068037      109.46921731956198
H          -10.18058473915454       56.79285487219948      109.23779972266411
C           -8.51369337321166       55.56115810491721      108.79473695111228
C           -8.51105033870636       56.96159480786245      110.49415657447669
H           -8.83432780185247       57.70278174470653      111.19389359531614
N           -7.33843409358739       56.36654844838569      110.50614466744685
C           -7.31909695930253       55.50331238333478      109.46306716525427
H           -6.45507988194857       54.90601616344019      109.26316696047007
78
 energy: -115.566382453392 gnorm: 0.045886094688 xtb: 6.7.1 (edcfbbe)
Fe          -5.64860270786323       57.03590525189904      111.64216166922589
N           -6.39138512263158       56.10730551414656      113.30743887850849
N           -6.64001205817672       58.73124938497932      112.19021079984478
N           -4.82797688578677       57.98892935583532      110.07834198628126
N           -4.62389116924954       55.35586798962681      111.17023002047874
C           -6.12447586001078       54.83263267947758      113.70272371655392
C           -6.71655538415763       54.56588891162139      114.98355945354174
C           -7.36601442536557       55.72162383595283      115.36399819603314
C           -7.14224613329109       56.67518442718040      114.31109221590475
C           -7.39504479256106       58.93126744975569      113.31940713668801
C           -7.94724437382650       60.24675629041263      113.34124394849695
C           -7.51673537871450       60.87625642939539      112.16733113056873
C           -6.66878497561840       59.90638135473174      111.49127895988798
C           -5.02587345486492       59.29811981796345      109.72647192869992
C           -4.18515613288402       59.66981376356824      108.64335792495373
C           -3.44226046491956       58.52550255088108      108.30775087090022
C           -3.88583328461466       57.49238162718170      109.22100568917251
C           -3.90692678891958       55.15646287501785      110.03150570901064
C           -3.57864182625626       53.76259128238745      109.87599081282323
C           -4.07413242760807       53.11768514075271      110.98691626890017
C           -4.73521219880585       54.12418816395552      111.77881561222223
C           -5.38654432345945       53.89411266532753      112.97151241517794
H           -5.33449954289862       52.89941986621804      113.38101824526710
C           -7.60077950509335       57.97996418531962      114.32359935526425
H           -8.16412043537001       58.29329138705047      115.18677715088113
C           -5.92711753755850       60.16793813034306      110.35750211533046
H           -5.99285278481774       61.15389380561661      109.93255317851333
C           -3.49933359160147       56.16540073196116      109.15633385654556
H           -2.83800253785688       55.86877254112155      108.36017725507945
C           -8.16747547348922       55.97278347567367      116.58359736439073
H           -8.20511060194301       55.08799457091449      117.20707424296525
H           -9.18663426916755       56.24491613846566      116.31816521111868
H           -7.75124712684793       56.79003799465337      117.16813103803082
C           -6.61096608126399       53.27738680252912      115.70711746163693
H           -5.61826476836720       52.85227745950996      115.59571238217113
H           -7.32887685061328       52.56139036615506      115.31130483683181
H           -6.80941312981804       53.40685237971029      116.76404423395398
C           -8.81038182076255       60.74927338466550      114.43764570890414
H           -8.40229438311076       60.48400909080589      115.40908980091734
H           -9.80324604055572       60.30556510933958      114.36184048851707
H           -8.91323325757804       61.82401845459218      114.41207037553001
C           -7.76363965530249       62.19327602712047      111.65063541363718
H           -7.15092405065172       62.46278825061014      110.80018968773462
C           -8.64496434689442       63.08774529969162      112.07968617797218
H           -8.71333749759356       64.05522701625726      111.61937606650994
H           -9.33840832176509       62.89920954412166      112.87261928965711
C           -4.10442841656889       61.03500364113373      108.07823283818213
H           -4.12945309507597       61.78104276707233      108.86877863639207
H           -4.94291190306844       61.23240644423311      107.41090010525208
H           -3.18681165508906       61.17226945055628      107.52186059753889
C           -2.40229801952080       58.31889440214361      107.34012653018409
H           -1.79578903943751       57.44296243168199      107.53017499703888
C           -2.12605852887633       59.05021288163432      106.26957388046233
H           -2.70098772402072       59.90321270371382      105.96477809886193
H           -1.31229094822970       58.78418413936156      105.62119764685538
C           -2.91281464791308       53.17914209575267      108.68907961790478
H           -1.87811163544751       53.50391711499807      108.60965149614373
H           -3.42665660420737       53.49231864418365      107.78226565387965
H           -2.93203361318616       52.09687615371728      108.73194652892906
C           -3.99151132566551       51.67685885966798      111.31458285858324
H           -3.10041328373624       51.23728673527681      110.88052418496918
H           -4.85706715552868       51.14623481654266      110.92092892281228
H           -3.96478621006270       51.51715237608419      112.38680791288881
O           -4.07502033691152       57.66944844840814      113.29449279032630
H           -4.34953721169313       57.39706576629530      114.17874262792692
H           -3.36472040112004       58.32698885045137      113.27756001950418
C           -8.97755612079445       54.78489719200249      107.59794519137579
H           -9.22543582829873       55.44253894474437      106.77099463179130
H           -9.84932259316733       54.18313522812281      107.83662190667374
H           -8.17359262244645       54.12545183020642      107.29386274006542
N           -9.28543543524368       56.48088213676439      109.43746396026533
H          -10.21776190541718       56.77870486984104      109.19773933504715
C           -8.53044272034894       55.54639382852487      108.77295141929999
C           -8.55249532199820       56.94305246906578      110.47335370452441
H           -8.87500882384777       57.68456095171526      111.17092224291414
N           -7.38187685330046       56.35323196875981      110.50651097362903
C           -7.34715740822084       55.48940044360710      109.45462220277753
H           -6.47953883105016       54.89573263924007      109.25919946576458
78
 energy: -115.573171031446 gnorm: 0.035467717886 xtb: 6.7.1 (edcfbbe)
Fe          -5.60893879741132       57.04968058715387      111.66374027690883
N           -6.37389568664145       56.10259282726701      113.31862075937293
N           -6.61424966099464       58.74605628535470      112.20090640097945
N           -4.81292550934529       57.99352604712561      110.08880955811225
N           -4.62690998547171       55.35518405865171      111.16584011278660
C           -6.12017795480854       54.82861567849129      113.70681887634773
C           -6.72132491030350       54.56096267864324      114.98735755951301
C           -7.36722959509669       55.71387400025507      115.36452541934190
C           -7.13685511391141       56.67370038949304      114.31097169280693
C           -7.38579333098953       58.93248660719809      113.31661133221860
C           -7.95160551550736       60.24608765049904      113.33254609419635
C           -7.52167336007217       60.88009262053518      112.16923715711845
C           -6.65850658900917       59.91760369585428      111.49311664647202
C           -5.01480003890226       59.29936078140803      109.73522150528790
C           -4.17584231832094       59.66509700048264      108.64665116136717
C           -3.44238396775484       58.52420604483719      108.30674585943738
C           -3.88114050905049       57.48943389086607      109.21971001026635
C           -3.91073273194316       55.15654155039346      110.02976066369570
C           -3.58308240625409       53.75976979351527      109.87603794475150
C           -4.07730705443210       53.11594532057494      110.98208303057372
C           -4.73980223908254       54.12304695676680      111.77923886700373
C           -5.38804228794807       53.88564259050506      112.96906941081441
H           -5.34435736678732       52.88642507304122      113.37220350644792
C           -7.60263013716736       57.97320610873937      114.31734882882729
H           -8.19032109148788       58.27741348468825      115.16974740123250
C           -5.92210830948543       60.17667206334784      110.35834502366890
H           -6.00020032863710       61.15583346670687      109.91683277735636
C           -3.49906570081536       56.16245225652914      109.15032352366239
H           -2.84075931911173       55.86226654596990      108.35116746315326
C           -8.16816331876353       55.97109533153246      116.58556899704054
H           -8.20754487859253       55.08772670747697      117.21420194377927
H           -9.18788298654181       56.24589731976207      116.31983444317743
H           -7.74585166414551       56.78990451022153      117.16633428701410
C           -6.61889398693362       53.27192095327528      115.71574189942901
H           -5.62204466416772       52.85037350578365      115.61425858206542
H           -7.33278883358023       52.55068399952982      115.31820597266024
H           -6.82681772867672       53.40460086575123      116.77278254149098
C           -8.80610317266891       60.74725262583637      114.43922445019746
H           -8.39306252206341       60.45856516497580      115.40440108965174
H           -9.80984685154818       60.32445878081938      114.36555429233451
H           -8.88683225556848       61.82719584437127      114.42742918939834
C           -7.76508937166155       62.20475878906369      111.65912958233034
H           -7.13680142223967       62.48575333949751      110.82446947762953
C           -8.66907643823640       63.09724438339924      112.06982672433207
H           -8.73613343537701       64.06109871944693      111.59923708821135
H           -9.36950772133114       62.91764908624379      112.86085777079177
C           -4.09666440807786       61.03304818109563      108.08023996574987
H           -4.13649534058788       61.77877392712738      108.87244481634598
H           -4.93109107621059       61.22094237794973      107.40308925317687
H           -3.17154143450348       61.17331698372087      107.53337246783721
C           -2.40371828267482       58.31873871630913      107.33546208689167
H           -1.78015057258010       57.45686858862776      107.52830252407290
C           -2.13911878422983       59.05231932322177      106.25120495025487
H           -2.72255654582560       59.89991420839899      105.94978797731872
H           -1.30546414978301       58.80243377792395      105.61854476068117
C           -2.90280053983722       53.17822503734885      108.69283340393315
H           -1.86772575466927       53.50957496314440      108.62701310168516
H           -3.41003830987274       53.48878938567107      107.78007248173958
H           -2.91590585504966       52.09410960268748      108.73657313642717
C           -3.99144325885421       51.67301927513165      111.31168775272150
H           -3.10119682340676       51.23179352856928      110.87283486670333
H           -4.85958110804494       51.13958009579972      110.92320645532486
H           -3.95830467730708       51.51655094876805      112.38570382301521
O           -3.95475560852481       57.65020040850074      113.34374511482686
H           -4.25799424800116       57.47638601960779      114.25557924750353
H           -3.29775634185991       58.37324162068936      113.36091454393882
C           -8.99855315530897       54.77830996790371      107.57283462134473