78
 energy: -116.057576566835 gnorm: 0.000035214289 xtb: 6.7.1 (edcfbbe)
Fe          14.70713830500306       -3.24285067867227       10.76425142648652
N           13.60807370507334       -3.82532518209840        9.18071408400169
N           13.01320280436553       -2.95454863316355       11.81501003800743
N           15.78632217759511       -2.76613083400411       12.36664625458022
N           16.37109948421667       -3.54382163601713        9.71447790765631
C           14.07140314794003       -4.17014070345792        7.94973545606488
C           12.97843820270355       -4.52316973470262        7.07274100538206
C           11.83889100733099       -4.38040225357504        7.80266782692296
C           12.25060428398984       -3.93179933026868        9.11343577402660
C           11.73471869575017       -3.13621406573292       11.37908445519671
C           10.79160924960354       -2.73293701643621       12.38624661390024
C           11.52825185429938       -2.25995496553480       13.44039821608447
C           12.91693668469097       -2.43501982840958       13.06794014130315
C           15.31464973213120       -2.40736544762264       13.59202453686772
C           16.39985629055174       -2.19152305880163       14.51652718077492
C           17.55311919313937       -2.41386789282518       13.81306304742394
C           17.13760154372101       -2.77608181124066       12.47057707608045
C           17.64646847102056       -3.38204143002330       10.15059354268397
C           18.59020169664157       -3.63644642292651        9.08269608072281
C           17.84965717805020       -3.95904043851260        7.98999717297445
C           16.46450910745654       -3.89951293967164        8.40698076463925
C           15.40180890598034       -4.19380907075720        7.57483492199353
H           15.62652718174468       -4.47297852968800        6.55688366716613
C           11.37131703484122       -3.62334279227175       10.13337580903184
H           10.31676074975450       -3.74141710007563        9.93564690901501
C           13.98355869381659       -2.22570065930172       13.92056159743803
H           13.75503691392026       -1.90702912760102       14.92535652648265
C           18.01697200273899       -3.03726181870254       11.43602491480967
H           19.07329381250418       -2.96564775240143       11.64616101727814
C           10.42273185089433       -4.61381749966221        7.40014800766287
H           10.36658321593327       -4.97470151737442        6.37618515800412
H            9.84531811316426       -3.69126793645079        7.46998662217787
H            9.95528298566827       -5.35364870226008        8.05045998159722
C           13.14364148444240       -4.95662221985652        5.65661312820848
H           13.75995132801198       -5.85414044348478        5.60005563231711
H           13.63053089042901       -4.17593045984994        5.07178386710700
H           12.17982614229432       -5.17381056948305        5.20260474575668
C            9.30959544935517       -2.78233714328133       12.23972272772543
H            8.98095001613452       -3.79101341555673       11.98754120387193
H            8.97755023560411       -2.11251554187782       11.44531248311587
H            8.82379554900761       -2.47904957045856       13.16364379685225
C           11.01729686902513       -1.69432391231699       14.67160785325136
H           10.11386326724296       -2.15689995528132       15.05500121022739
C           11.53447081325022       -0.65623615361469       15.31900232165839
H           12.39824840526516       -0.12769660494823       14.95283443472375
H           11.09517649164133       -0.28435166761341       16.22988750749681
C           16.24247980207755       -1.86151378059018       15.95969355546717
H           15.38667754101492       -2.38472021647394       16.38336381120677
H           16.08624566033527       -0.79050413606903       16.10000066642399
H           17.13618729979963       -2.15242777004807       16.50810385055492
C           18.92651020603609       -2.35469069898999       14.26165617400607
H           19.60188730483236       -3.05960612983175       13.79088566020943
C           19.40488427427108       -1.51855068812622       15.17754300338064
H           18.79183999967540       -0.76730058018736       15.64400792846782
H           20.44025620123261       -1.54134711238418       15.47499136017029
C           20.07036751622518       -3.54727499621555        9.23026336217101
H           20.42375126243049       -4.26366839119516        9.97217479593520
H           20.36472176253489       -2.54961968837740        9.55694782777246
H           20.56711782800783       -3.75957897302566        8.28670826383556
C           18.29952652011542       -4.31843221844545        6.61539599767018
H           19.38306091995347       -4.27258544794214        6.53879166839547
H           17.87379726953982       -3.63408177562074        5.88118729451446
H           17.98080704983131       -5.32936777440203        6.36004528917461
O           14.61275201252934       -5.43475149290995       11.43376769278830
H           14.22548677146484       -5.82370097467471       10.64189317852195
H           13.91006436627108       -5.36978266691815       12.08958504535261
C           15.92488661131913        2.04564776613335        9.50103604422100
H           15.45021519618906        2.83139152655194       10.08859737358630
H           15.89908859192934        2.34160783461187        8.45233246516386
H           16.96090783796820        1.95615596089547        9.81213782900143
N           13.90890252105259        0.56368557562322        9.39711449607931
H           13.28824906228573        1.26278901555764        9.02348769486544
C           15.23266182567460        0.74725463903857        9.70005396295178
C           13.59475107328789       -0.71742942808754        9.69374168931257
H           12.62233424125275       -1.14350916123228        9.55808668101703
N           14.63812463529882       -1.35544079449029       10.16539448314234
C           15.66506126701138       -0.45766500118577       10.17524205339606
H           16.63855435059338       -0.73723795311542       10.52172415453014
