72
 energy: -105.980640056463 gnorm: 0.000190237396 xtb: 6.7.1 (edcfbbe)
Fe          48.41653887616793       46.45449442700819        9.03382952263296
N           47.69673394815980       44.59991609020513        8.96736511634090
N           50.27911064643135       45.73564350965520        9.21703778097211
N           49.13465753823257       48.33447950585668        9.17904319821987
N           46.55676622699652       47.18389399138348        8.92183567908955
C           46.39272390251777       44.22933326695220        8.90856574000524
C           46.26996169363933       42.78775211871175        8.87511410104702
C           47.53643809839823       42.29716235946930        8.91396106471559
C           48.41430338387615       43.44650707864415        8.97839665919094
C           50.65353379817269       44.42896987357220        9.16612781680198
C           52.08244562919882       44.29979201941391        9.29208551351677
C           52.57339949936538       45.57061744520258        9.42832973384317
C           51.42468174447173       46.45253406017122        9.35849910423242
C           50.43784404542135       48.70176900443465        9.33410533078556
C           50.56375354683921       50.13496237122725        9.36626700642160
C           49.29781015639639       50.63718282963747        9.21401559609013
C           48.42353544841161       49.48959950692203        9.09254039035460
C           46.18847646651730       48.49289228157188        8.90285293060839
C           44.74981956902914       48.61817126042439        8.82479832389245
C           44.25714939717538       47.35093352384887        8.80990796869364
C           45.40160416022004       46.46944792734305        8.87242826211357
C           45.31336175166900       45.09083196929350        8.86811149676624
H           44.32734725203257       44.65475630060121        8.82991938389341
C           49.78901212397481       43.35535293286559        9.05113775543379
H           50.22198501845360       42.36728401896176        9.04118923421690
C           51.50544996259341       47.82845953723434        9.44083218890912
H           52.48365703948290       48.26058966188936        9.58141312397446
C           47.04914686451281       49.57222604454081        8.96516672634268
H           46.60994120668536       50.55704326211448        8.93671442961007
C           48.00396682634037       40.88279464636450        8.90321419295341
H           47.16223977097520       40.19818716574937        8.83541439279080
H           48.55789147777536       40.65631847052340        9.81435065437143
H           48.66250309077881       40.70249088235733        8.05322133931756
C           44.97332581648165       42.05725762350035        8.80967767341013
H           44.42324865981409       42.32981366389835        7.90848873102581
H           44.35344670881702       42.30288472709260        9.67189072788114
H           45.13536543016966       40.98238293115610        8.79981423095008
C           52.83535890820406       43.01844137092126        9.21630434781037
H           52.40192316464942       42.36230926156009        8.46317836601678
H           52.81225319803350       42.49571635594904       10.17395810864485
H           53.87365702025392       43.21144199770305        8.95493376254929
C           53.94369144101154       46.01022759359933        9.57635693335121
H           54.18661897409922       46.95526808745914        9.10503131778928
C           54.89264045978058       45.35570108749287       10.23709227191245
H           54.69586310292495       44.43708118892067       10.76194179814330
H           55.89987317909598       45.73304159760868       10.29672898648848
C           51.84825813126744       50.87965591840902        9.46586842277134
H           52.62643294685519       50.38256038475781        8.88902200436578
H           52.18380039986831       50.94208810823605       10.50246741640026
H           51.72347691714451       51.89043011958841        9.08331314025162
C           48.85970287429303       52.01459597291623        9.15347029880741
H           48.01975150199071       52.21010888914407        8.49690708440037
C           49.39504815839234       53.02242142653380        9.83392316075305
H           50.19851240657577       52.87788739821870       10.53496568769747
H           49.02751405997766       54.02970261019072        9.73041442124422
C           44.02107418032332       49.91668497189310        8.78181290501978
H           44.33181064300295       50.50371384934846        7.91709119636671
H           44.22719773736629       50.50116144434373        9.67870434015847
H           42.94797904579355       49.75517238778883        8.71796510337625
C           42.84333033240671       46.88633145601716        8.74461731599787
H           42.68107005171819       46.26952015843811        7.86013924748100
H           42.16043188762649       47.73108223524243        8.70262585801167
H           42.59742719489346       46.28925336180176        9.62275458472875
O           48.31175403276022       46.48912963857591       11.27514189190367
H           48.22257326585297       47.43499406618453       11.43854136152906
H           49.21436906750476       46.24443909402577       11.51022758606421
C           47.31094737507544       45.68014279587398        5.90857729034345
H           47.56484461972399       44.62777001796643        5.98106616106729
H           47.24000445665808       45.97778930734457        4.86691956221603
H           46.38482457327902       45.87188878994146        6.43970586022497
S           48.67467642539357       46.60126686936282        6.70247395499372
H           48.11713148999439       47.80625189687890        6.53809512971546
