72
 energy: -105.899975678761 gnorm: 0.259093000554 xtb: 6.7.1 (edcfbbe)
Fe          48.41300000000000       46.52900000000000        8.90300000000000
N           47.69800000000000       44.66099999999999        9.03000000000000
N           50.26400000000000       45.77000000000000        9.42500000000000
N           49.13600000000000       48.35899999999999        9.36000000000000
N           46.53300000000000       47.21900000000000        9.01700000000000
C           46.38300000000000       44.29400000000000        8.83600000000000
C           46.28800000000000       42.84499999999999        8.85400000000000
C           47.51199999999999       42.35000000000000        9.07800000000000
C           48.42600000000000       43.48200000000000        9.11400000000000
C           50.64400000000000       44.43800000000000        9.31200000000000
C           52.10199999999999       44.34899999999999        9.18000000000000
C           52.58400000000000       45.58700000000000        9.22200000000000
C           51.45900000000000       46.49299999999999        9.37800000000000
C           50.45900000000000       48.75099999999999        9.34600000000000
C           50.56000000000000       50.20200000000000        9.32300000000000
C           49.31000000000000       50.66900000000000        9.32800000000000
C           48.39300000000000       49.53299999999999        9.41400000000000
C           46.15400000000000       48.54899999999999        9.12100000000000
C           44.72199999999999       48.66500000000000        8.92000000000000
C           44.23400000000000       47.41799999999999        8.80000000000000
C           45.36699999999999       46.49499999999999        8.85100000000000
C           45.29400000000000       45.13900000000000        8.70100000000000
H           44.32600000000000       44.69800000000000        8.46200000000000
C           49.78900000000000       43.37000000000000        9.30300000000000
H           50.20699999999999       42.37499999999999        9.45300000000000
C           51.53200000000000       47.87100000000000        9.38200000000000
H           52.52900000000000       48.31099999999999        9.41700000000000
C           47.02100000000000       49.60700000000000        9.33600000000000
H           46.57399999999999       50.59400000000000        9.45500000000000
C           47.97700000000000       40.88800000000000        9.07800000000000
H           47.11500000000000       40.22500000000000        8.85300000000000
H           48.38300000000000       40.62300000000000       10.07700000000000
H           48.75700000000000       40.74200000000000        8.30000000000000
C           44.94100000000000       42.11200000000000        8.73600000000000
H           44.54300000000000       42.23199999999999        7.70600000000000
H           44.21400000000000       42.54499999999999        9.45600000000000
H           45.08299999999999       41.03000000000000        8.94400000000000
C           52.87299999999999       43.02600000000000        9.13500000000000
H           52.30899999999999       42.28900000000000        8.52500000000000
H           52.99200000000000       42.62599999999999       10.16500000000000
H           53.87000000000000       43.18800000000000        8.67300000000000
C           54.03500000000000       46.07200000000000        9.08200000000000
H           54.22700000000000       46.97400000000000        8.48300000000000
C           55.06699999999999       45.50800000000000        9.61200000000000
H           54.95499999999999       44.60100000000000       10.22500000000000
H           56.07300000000000       45.92600000000000        9.45800000000000
C           51.88000000000000       50.98400000000000        9.25800000000000
H           52.50800000000000       50.58299999999999        8.43400000000000
H           52.42999999999999       50.87300000000000       10.21700000000000
H           51.67100000000000       52.05700000000000        9.06200000000000
C           48.79100000000000       52.13600000000000        9.27900000000000
H           48.16300000000000       52.53200000000000        8.47100000000000
C           49.17499999999999       52.90700000000000       10.32300000000000
H           49.80500000000000       52.49000000000000       11.12300000000000
H           48.86199999999999       53.96000000000000       10.38500000000000
C           43.96800000000000       50.00000000000000        8.94200000000000
H           44.36800000000000       50.66500000000000        8.14700000000000
H           44.10700000000000       50.49300000000000        9.92800000000000
H           42.88700000000000       49.82400000000000        8.75500000000000
C           42.77700000000000       46.97200000000000        8.59000000000000
H           42.61200000000000       46.73700000000000        7.51700000000000
H           42.08700000000000       47.79000000000000        8.89000000000000
H           42.57200000000000       46.06200000000000        9.19400000000000
O           48.12400000000000       46.36400000000000       11.23200000000000
H           48.99100000000000       46.17700000000000       11.59300000000000
H           47.36999999999999       46.45500000000000       11.69500000000000
C           47.81400000000000       45.31300000000000        5.97400000000000
H           48.29900000000000       44.35300000000000        6.25200000000000
H           47.80400000000000       45.38399999999999        4.86500000000000
H           46.76800000000000       45.28999999999999        6.34600000000000
S           48.68500000000000       46.70500000000000        6.67200000000000
H           47.75400000000000       47.59400000000000        6.35700000000000
72
 energy: -105.953499372843 gnorm: 0.099847667604 xtb: 6.7.1 (edcfbbe)
Fe          48.40392693873491       46.52260844746435        9.03349850669158
N           47.69612405210316       44.64581789755744        8.99311544381898
N           50.29468550317233       45.76857146504677        9.36205418607622
N           49.13928815227934       48.38035760160285        9.32870362980903
N           46.52371224268198       47.23271150416855        8.99234023444916
C           46.38712325374335       44.28290372785742        8.83350007635022
C           46.27200495863729       42.83803732458318        8.86022372233543
C           47.51377646975278       42.34055776536710        9.07199391891239
C           48.41261600706289       43.48073934048813        9.13388562543833
C           50.66097425636826       44.44750746042854        9.30214645713418
C           52.11139668662291       44.34011265883783        9.20651839837274
C           52.60122253183319       45.60455569608879        9.22699813260206
C           51.46187349326819       46.49677282002777        9.34396710792161
C           50.45445805930949       48.75806824664442        9.34561941644476
C           50.56136489711414       50.20830453641787        9.32168150651124
C           49.29321842611125       50.68673937510984        9.32784443995387
C           48.40022330039665       49.53677773639508        9.36391734634298
C           46.15139002249618       48.54791634863243        9.10651851496044
C           44.71637042448058       48.67207544619811        8.93806904195414
C           44.22677281153749       47.41566960471580        8.79157638736175
C           45.36918457768611       46.51321459718764        8.82574780149323
C           45.30402654923895       45.14094652691070        8.69669362831293
H           44.33712997737333       44.69942363293961        8.48143416738210
C           49.78358634536158       43.37873533742214        9.30717747570556
H           50.20007418511715       42.38515648359271        9.43367403024462
C           51.52850011565707       47.87799957740295        9.37698173429158
H           52.52084596464133       48.31399155831500        9.41196626568970
C           47.02076112836678       49.60635664701098        9.31928210026898
H           46.57779265628585       50.58921808326058        9.44227981613490
C           47.97018748505435       40.90160231137419        9.07121141533851
H           47.12959145484081       40.23565308675740        8.85422294309937
H           48.37831958417638       40.62888200869289       10.05269576151422
H           48.74451242756788       40.74645415326826        8.31268216655625
C           44.95222094855490       42.11520288512265        8.73542376075151
H           44.54926937645818       42.22998084540572        7.72204509793314
H           44.22853128712963       42.53146256628991        9.44461405720091
H           45.07792643925657       41.04849441471024        8.94163520183284
C           52.86339473198651       43.03518320587190        9.13223674547127
H           52.31617850961886       42.29949053929271        8.53346568989872
H           52.99198100978062       42.63148650144102       10.14407572105015
H           53.84994688761237       43.18785416094049        8.68275269162936
C           54.00969411413330       46.07414480486353        9.08108076121214
H           54.18220354773823       46.96899271961411        8.48360259576400
C           55.06643841631990       45.49677460700769        9.61873032408151
H           54.97182915147364       44.60816363869877       10.23136060654039
H           56.06164194250714       45.90503335619345        9.46856006043555
C           51.86333496244921       50.97296347130166        9.25609021394214
H           52.49535558230956       50.58697425207168        8.44777865271781
H           52.41543558907425       50.87403872566190       10.19870181227905
H           51.66885699627577       52.03434640820431        9.07006729940636
C           48.81530691672345       52.11521821083888        9.31043866344658
H           48.19033124353478       52.48708513803511        8.49833680245330
C           49.17640906561315       52.90313871347858       10.31825289373160
H           49.79389899821148       52.51012411809516       11.11684011472561
H           48.86568380515804       53.94210261801695       10.38082876726464
C           43.97592462021791       49.98694022042643        8.94428279604264
H           44.36351998716292       50.65066700201494        8.16205891289360
H           44.10192838405250       50.48536220510176        9.91189862735941
H           42.90867015906073       49.82782300920211        8.76110329611562
C           42.79450516672030       46.97545444813863        8.58982284340643
H           42.61511289796628       46.74033036555304        7.53353024111951
H           42.10275772863191       47.77068356240581        8.88667786021673
H           42.57764616324127       46.08115346356576        9.18374897861217
O           48.14175284726961       46.36613979049064       11.22478896347642
H           48.99125996367622       46.17510088540044       11.61601322605228
H           47.35372139756819       46.45634481620068       11.72756636982817
C           47.80187695936175       45.30577377222461        5.96521765657296
H           48.29854887107594       44.37351622345179        6.25301938421940
H           47.80504111461622       45.38609186156967        4.87180388703635
H           46.77419290194976       45.28216499066594        6.33957638558646
S           48.68003556207690       46.69162177821931        6.71216527483168
H           47.75960081435803       47.59213669644458        6.35958536338852
72
 energy: -105.967966545637 gnorm: 0.023742806243 xtb: 6.7.1 (edcfbbe)
Fe          48.40052870723623       46.51374004499316        9.09558209091324
N           47.69185505770396       44.64277535356948        9.00249487984650
N           50.30367725026396       45.77411553526166        9.31394607508395
N           49.13464344955433       48.38542932529738        9.30334610318769
N           46.52461762508579       47.23890506877914        8.98768047137343
C           46.39357097929909       44.28043540459402        8.83684998332938
C           46.26444801798266       42.83857742953523        8.85336896180892
C           47.51922569617560       42.34156672938287        9.04084710303974
C           48.40320621976532       43.48944607047732        9.13479776043269
C           50.66652303898758       44.46421573071472        9.28589284799179
C           52.10966127083938       44.33912241350993        9.22988372561937
C           52.60635988172072       45.61754732025660        9.22932333083925
C           51.45173692006320       46.49925145191711        9.29595927276908
C           50.44318239218064       48.75574900312767        9.33041108431835
C           50.55868803080644       50.20269489071701        9.32687788778328
C           49.28200861115544       50.68843858386983        9.32761414779435
C           48.40571542957313       49.53069563388643        9.31659127881302
C           46.15532587842858       48.54305252595070        9.09519005085678
C           44.71936098895161       48.67391243827842        8.95015218287835
C           44.23130624625331       47.41250870411798        8.77788172676267
C           45.37938979587083       46.52679998232029        8.80740252085031
C           45.31818703237640       45.14641172566343        8.69471497715041
H           44.34927169466486       44.70445728859627        8.50930134427414
C           49.77734951730377       43.39568926098860        9.28980904308658
H           50.19318947788329       42.40381574404920        9.40043972014285
C           51.51954865350572       47.88190697026413        9.34989645401245
H           52.50778815526383       48.31699695736295        9.40059074521948
C           47.02292216837431       49.60494018441731        9.29278412387130
H           46.58503568482070       50.58658024824435        9.41104652471632
C           47.96451102527482       40.91784335343912        9.08404382683235
H           47.13553906825837       40.25037112422905        8.86738306009444
H           48.37776641885986       40.64744097098006       10.05519923397691
H           48.73360960018970       40.75078111769137        8.33244736915972
C           44.96548343763287       42.11812938174415        8.73227928768679
H           44.55494615619335       42.23102072152780        7.72952631700780
H           44.24222204908758       42.52099040758601        9.43858271611431
H           45.08423033170966       41.05883795200514        8.93593264687386
C           52.85308397483831       43.05012540395109        9.13855993204735
H           52.31193933878596       42.32173713507714        8.53998902120217
H           52.99394182022350       42.62938835032806       10.13489552244443
H           53.83213414291617       43.20223396204906        8.69184022553212
C           53.97908577092915       46.06994799100737        9.09170456223322
H           54.13056032269374       46.96368255669729        8.49784194926957
C           55.05026012462589       45.48645807756331        9.62411322967318
H           54.97457814520382       44.61200695538529       10.24270793333476
H           56.03909953137128       45.88440231253644        9.46771450324640
C           51.84245757711808       50.96054327770746        9.26158733010219
H           52.47330954267011       50.58223355966010        8.45886096718238
H           52.39903305923421       50.86731461674211       10.19367973659555
H           51.65270874421665       52.01572099112587        9.08154521527085
C           48.83920181594203       52.08065808436575        9.33996735481327
H           48.20851210847488       52.42277042572919        8.52516335766884
C           49.18376977640635       52.89999771387482       10.31967254364975
H           49.79461512151391       52.53840386392542       11.12810877517907
H           48.87226588546726       53.92985558598625       10.36897143502206
C           43.98511174781405       49.97209000803201        8.95296269177763
H           44.36881967521803       50.63137801665353        8.17557151572435
H           44.10156603861935       50.47968254360862        9.90889646435073
H           42.92539742938146       49.82045057223886        8.77005615621854
C           42.81600441712759       46.97854547711373        8.58717624909412
H           42.62456003744431       46.73970420831220        7.54088938909526
H           42.12538167648427       47.76325167231442        8.88421224516886
H           42.59464260918388       46.09379355675997        9.17927493840902
O           48.16305303328716       46.38005443414617       11.21622728249063
H           48.98490996241330       46.17013363530594       11.66287873674382
H           47.36479742988663       46.45287393214240       11.74067476267770
C           47.79167326623369       45.29610826233264        5.96103462333560
H           48.30273815157593       44.38467589331599        6.25270342864516
H           47.80769008193256       45.39763917157334        4.87984365498314
H           46.77520717953386       45.27446911622987        6.33621588417900
S           48.68879575336997       46.68336118882701        6.72444606757036
H           47.77146274856565       47.59911439803539        6.38394143855700
72
 energy: -105.971740237178 gnorm: 0.021584215973 xtb: 6.7.1 (edcfbbe)
Fe          48.40085248153098       46.51014766757894        9.09836909066169
N           47.68990632737432       44.64692566731749        9.00863173584316
N           50.29564832252739       45.77846033532381        9.27651116979446
N           49.13001275356149       48.38026524466801        9.27349867442060
N           46.53081742762468       47.23952344843281        8.97943286702070
C           46.39332909238040       44.28283097637998        8.84627092347210
C           46.26354777740841       42.84215497764350        8.85833920055988
C           47.51965044189622       42.34729364433947        9.03881494076561
C           48.39965085510967       43.49504580648060        9.13135174526505
C           50.66032901720135       44.47027024155985        9.27170394038911
C           52.09916938043384       44.34113075708230        9.24113478611804
C           52.59727567348575       45.62058583270745        9.23044086919422
C           51.44079798459738       46.50084098055176        9.26448857213522
C           50.43723845686668       48.74871986328457        9.30866509936922
C           50.55627510379018       50.19121746316650        9.33286334154671
C           49.28069272430755       50.67876298171035        9.33280335963626
C           48.40588751188466       49.52346867886329        9.28663881258460
C           46.16093610617055       48.54169283812897        9.08060755731661
C           44.72602582301934       48.67211418619718        8.94792159015399
C           44.24061126568323       47.41111422300774        8.76810982007995
C           45.38704566726799       46.52940423064724        8.80111823129764
C           45.32167712269221       45.14883982995046        8.70368308004187
H           44.34965395390284       44.70723441631946        8.53914727409071
C           49.77300012592868       43.40221597999778        9.27177916267574
H           50.19176607055335       42.41021332633438        9.36088672839931
C           51.51491142784646       47.88167567615010        9.32020248212734
H           52.50104000967437       48.31870773026017        9.37544553238587
C           47.02520060830116       49.60705271571257        9.26077821157719
H           46.59127241117223       50.59130082504299        9.36214450531901
C           47.96501328232615       40.92755146978526        9.08340353177766
H           47.13456102772674       40.25783874703314        8.87720407325181
H           48.37714470372522       40.67306958401958       10.05865962822423
H           48.73766602347126       40.74906465004976        8.33573116561033
C           44.97071774332163       42.11694511185247        8.72717206024589
H           44.55852598204394       42.23240555935350        7.72473139145479
H           44.24439563453393       42.51118354625788        9.43639134290722
H           45.09593405109887       41.05693630904954        8.92625498203543
C           52.84483281613673       43.05773925542020        9.14783957934354
H           52.30255785371786       42.33525437389722        8.54215786639982
H           52.99285887987347       42.62433960529984       10.13847734994808
H           53.82200722710572       43.22181262354024        8.69988894542915
C           53.96337452710593       46.06929335323309        9.10348381933018
H           54.10340254552922       46.97000944526376        8.51735282890613
C           55.03553052376008       45.48034069404431        9.62926546339422
H           54.96424805964678       44.61002034732401       10.25575944644968
H           56.02560234724929       45.87044789590915        9.46587821743231
C           51.83320726317984       50.95135636620255        9.27444955984521
H           52.46126849838757       50.57860726570486        8.46644806722969
H           52.39113408364751       50.85409269213648       10.20532596074962
H           51.63387928607326       52.00631827881080        9.10215655328128
C           48.84262405877651       52.06341072899841        9.36244644557593
H           48.19721603693542       52.38572448326127        8.55197005935979
C           49.19420034847504       52.90666677052027       10.32255489847477
H           49.81269799057571       52.57147223399293       11.13930782244244
H           48.87736848681715       53.93475980206725       10.34983336369007
C           43.99141073008056       49.96631108185859        8.96034931189278
H           44.37425771358136       50.62521015762561        8.18186168261754
H           44.10911943099170       50.47451277887172        9.91642659743454
H           42.93132703010334       49.81160058998622        8.78086353329419
C           42.82880291671343       46.97638244108759        8.58205806513338
H           42.63347407159443       46.73133474334291        7.53742226263827
H           42.14148526134736       47.76410232418986        8.87901408741555
H           42.61113081705741       46.09464289812755        9.18089414888473
O           48.19482462437974       46.42822514638307       11.24539090956655
H           48.98133874809007       46.14966028436005       11.73446765562288
H           47.38255068551786       46.43923531472114       11.76315171602949
C           47.78791121874254       45.29152952218399        5.95586291061980
H           48.30842957260286       44.38540987401083        6.24470432146881
H           47.80479611511062       45.40712051860447        4.87691554718894
H           46.77400632598936       45.26753038044067        6.33682344045773
S           48.69758200738994       46.67701529519549        6.72305785737421
H           47.78036152527318       47.60430491114286        6.41480822532937
72
 energy: -105.973075434361 gnorm: 0.051199561076 xtb: 6.7.1 (edcfbbe)
Fe          48.40776308474078       46.50930182624477        9.09429540159587
N           47.68798664384547       44.65532012976399        9.02229679230953
N           50.28151813992771       45.78361629820071        9.23737938763910
N           49.12493279604934       48.37345075589001        9.22841277633642
N           46.54238428398438       47.23868546492631        8.96941178324591
C           46.39110211846663       44.28711875386860        8.86114350868871
C           46.26373869641709       42.84725049209290        8.86247811215295
C           47.51999820756640       42.35459379573931        9.03330231009920
C           48.39708428340005       43.50110179053917        9.12569538628555
C           50.64987175331062       44.47564075547641        9.25362969449656
C           52.08420908014052       44.34545745996424        9.25244619207667
C           52.58273851646514       45.62347721381726        9.23108699929687
C           51.42760007208926       46.50281131976651        9.23142231316148
C           50.43156837479820       48.74104753478014        9.27958242084288
C           50.55305218165019       50.17838261773498        9.34094701068975
C           49.28019169530956       50.66787580538092        9.33979763988593
C           48.40499846859935       49.51712669712929        9.25380504618361
C           46.16898296267692       48.54101158864774        9.06043573102197
C           44.73559400634622       48.66924347512599        8.93845933605685
C           44.25242287623906       47.40954339827901        8.75914026437985
C           45.39659564422901       46.53010338207596        8.79695068186065
C           45.32221186305087       45.15111307830713        8.71981110368025
H           44.34732878791030       44.71159314977988        8.57385597581333
C           49.76917136616466       43.40703392458796        9.24679231017834
H           50.19164179868082       42.41537521325466        9.31185766454841
C           51.51091523702888       47.88119002567260        9.28175153701978
H           52.49476895139568       48.32090959181618        9.33733194106336
C           47.02780647590830       49.61203630848603        9.21780807997132
H           46.59694810477078       50.59887488345904        9.29744519655183
C           47.96772340821008       40.93636599043145        9.08675066282061
H           47.13590625825641       40.26300402890264        8.89301152077041
H           48.38219623358511       40.69918531738660       10.06705904150780
H           48.74037407438301       40.74724220278431        8.34029308466878
C           44.97471489423080       42.11534569724683        8.72259589350222
H           44.56390000590592       42.23758036362337        7.71937114279911
H           44.24230120335510       42.49589970340151        9.43545724817050
H           45.10986590746313       41.05286701146193        8.91051676692804
C           52.83504318031272       43.06572240090841        9.16087602283319
H           52.29457110875958       42.34650014313043        8.54716151365207
H           52.98767121682626       42.62152171256654       10.14651922700955
H           53.81176210011928       43.24280658119682        8.71335408387229
C           53.94919806399589       46.07124717011363        9.12010048867258
H           54.08205046440585       46.97847259702976        8.54129915706431
C           55.01779071978819       45.47295511002348        9.63838488422214
H           54.94681902580771       44.59897021634796       10.26227465230424
H           56.01078815022090       45.85684790352178        9.47497948560694
C           51.82654688972296       50.94260523097186        9.29700511749756
H           52.45430354168269       50.58117936541765        8.48202895838845
H           52.38529503096334       50.83644911173148       10.22699202852822
H           51.61733973966950       51.99876762162941        9.13750125660246
C           48.84132286100498       52.05060071321582        9.38646568735006
H           48.16621782278902       52.35396074671338        8.59233041044904
C           49.21151630903694       52.91613758452788       10.32127306926365
H           49.85316371775277       52.61479055037969       11.13636324081246
H           48.87802953216765       53.93992255027180       10.32719608038819
C           43.99904800692753       49.96202682368122        8.96507386585450
H           44.37590306449981       50.62566792572568        8.18632545802795
H           44.12379602953090       50.46509472108054        9.92417465119759
H           42.93678078111485       49.80459750199609        8.79440452923109
C           42.84125226272328       46.97181757952870        8.57710341904225
H           42.64551825364187       46.71580855039339        7.53423423727112
H           42.15504537908985       47.76394979560924        8.86776948317593
H           42.62630260757190       46.09458076497484        9.18576999482575
O           48.24081176468584       46.54775720170071       11.29047511790707
H           48.96777727592566       46.10060073835737       11.79960127655100
H           47.40574419750361       46.37116329163008       11.80079705730057
C           47.78353472272655       45.28690546241291        5.94806601153162
H           48.31349413744294       44.38329358098401        6.22855904709451
H           47.79632905472516       45.41717109118907        4.87065754338733
H           46.77209680518564       45.25708804862139        6.33656218619392
S           48.70096829160840       46.66931703094119        6.72388387012999
H           47.78305943351828       47.60592553542942        6.45060892846005
72
 energy: -105.974236282948 gnorm: 0.022112699742 xtb: 6.7.1 (edcfbbe)
Fe          48.41240757133225       46.51067226065092        9.08941027204045
N           47.68682615848107       44.65959005402220        9.03086085265124
N           50.27200766954911       45.78541325438015        9.22297818257850
N           49.12259891144191       48.36873070511113        9.20495680821299
N           46.54866813717726       47.23714985981445        8.96517132717810
C           46.38822187212588       44.28889136501639        8.86899607684375
C           46.26420757919190       42.84910632606594        8.86297201987244
C           47.51949128509966       42.35721296800853        9.02879812805944
C           48.39678856381266       43.50202430525005        9.12025559061956
C           50.64296842888675       44.47619691989259        9.24329313198173
C           52.07592656222252       44.34828718287567        9.25376183737585
C           52.57355764269648       45.62359207590300        9.22976950714638
C           51.42157302672157       46.50326501084178        9.21853080096151
C           50.42947758737774       48.73743074178729        9.26490757318754
C           50.55094733018296       50.17249027873076        9.34631049853315
C           49.28049004502184       50.66230645386491        9.34530886668550
C           48.40351865373981       49.51482436686026        9.24147958337708
C           46.17267882577782       48.54122813747330        9.04864237950782
C           44.74014110031776       48.66740427463492        8.92936127716551