78
 energy: -115.942719415618 gnorm: 0.334375240112 xtb: 6.7.1 (edcfbbe)
Fe          -5.68300000000000       57.14000000000000      111.78599999999999
N           -6.57000000000000       56.15700000000000      113.35799999999999
N           -6.67300000000000       58.88900000000000      112.25399999999999
N           -4.83400000000000       58.15600000000000      110.21700000000000
N           -4.65900000000000       55.42000000000000      111.30300000000000
C           -6.31200000000000       54.89099999999999      113.74200000000000
C           -6.80400000000000       54.65899999999999      115.01299999999999
C           -7.36500000000000       55.86800000000000      115.43600000000001
C           -7.13100000000000       56.76400000000000      114.40400000000000
C           -7.31000000000000       59.10799999999999      113.41699999999999
C           -7.86000000000000       60.39800000000000      113.46700000000000
C           -7.43200000000000       61.00399999999999      112.27600000000000
C           -6.62300000000000       60.07500000000000      111.63599999999998
C           -5.01500000000000       59.43000000000000      109.82599999999999
C           -4.26000000000000       59.74900000000000      108.69799999999999
C           -3.56600000000000       58.56200000000000      108.41100000000000
C           -3.98400000000000       57.62400000000000      109.34999999999998
C           -3.91000000000000       55.27300000000000      110.21500000000000
C           -3.57700000000000       53.94900000000000      110.00299999999999
C           -4.19300000000000       53.22200000000000      111.02300000000000
C           -4.83700000000000       54.18599999999999      111.81899999999999
C           -5.58600000000000       53.95399999999999      112.99299999999999
H           -5.60200000000000       52.92800000000000      113.35999999999999
C           -7.45000000000000       58.13600000000000      114.41799999999999
H           -7.87200000000000       58.49900000000000      115.35400000000000
C           -5.85700000000000       60.32699999999999      110.49900000000000
H           -5.91900000000000       61.33400000000000      110.08700000000000
C           -3.57400000000000       56.29600000000000      109.36300000000000
H           -2.87600000000000       56.02400000000000      108.57299999999999
C           -8.10900000000000       56.14900000000000      116.73699999999998
H           -7.48700000000000       56.80099999999999      117.38700000000000
H           -8.30800000000000       55.19400000000000      117.26899999999999
H           -9.06600000000000       56.66800000000000      116.51699999999998
C           -6.69300000000000       53.34500000000000      115.77700000000000
H           -5.68900000000000       52.90100000000000      115.60700000000000
H           -7.46700000000000       52.63399999999999      115.41600000000000
H           -6.82600000000000       53.53099999999999      116.86399999999999
C           -8.73300000000000       60.90899999999999      114.61799999999999
H           -8.22800000000000       60.70300000000000      115.58599999999998
H           -9.71400000000000       60.38800000000000      114.60499999999999
H           -8.88400000000000       62.00500000000000      114.51699999999998
C           -7.73200000000000       62.24199999999999      111.70900000000000
H           -7.17600000000000       62.54200000000000      110.80900000000000
C           -8.70800000000000       63.18500000000000      112.18400000000000
H           -9.30900000000000       62.96399999999999      113.07899999999998
H           -8.86500000000000       64.13800000000001      111.65800000000000
C           -4.15800000000000       61.14599999999999      108.06099999999999
H           -4.10000000000000       61.91500000000000      108.86100000000000
H           -5.05700000000000       61.34100000000000      107.43799999999999
H           -3.24200000000000       61.20699999999999      107.43599999999999
C           -2.61900000000000       58.24499999999999      107.42600000000000
H           -2.17000000000000       57.24299999999999      107.46699999999998
C           -2.15500000000000       59.07500000000000      106.35599999999999
H           -2.54600000000000       60.09599999999999      106.23200000000000
H           -1.40300000000000       58.70199999999999      105.64599999999999
C           -2.77300000000000       53.39300000000000      108.83900000000000
H           -1.76300000000000       53.85699999999999      108.83100000000000
H           -3.28600000000000       53.62900000000000      107.88200000000001
H           -2.66300000000000       52.29299999999999      108.95000000000000
C           -4.13600000000000       51.70000000000000      111.18800000000000
H           -3.11000000000000       51.39800000000000      111.48699999999999
H           -4.39000000000000       51.20800000000000      110.22499999999998
H           -4.85000000000000       51.38099999999999      111.97699999999999
O           -4.45100000000000       57.75200000000000      113.41999999999999
H           -4.70900000000000       57.20700000000000      114.16300000000000
H           -3.82400000000000       58.38200000000000      113.42199999999998
C           -9.05400000000000       55.16800000000000      107.80699999999999
H           -9.43300000000000       55.93400000000000      107.09699999999999
H           -9.89500000000000       54.50500000000000      108.10500000000000
H           -8.26100000000000       54.57300000000000      107.30599999999998
N           -9.09400000000000       56.65600000000000      109.89400000000001
H          -10.05200000000000       56.92600000000000      109.80900000000000
C           -8.48300000000000       55.85400000000000      109.03399999999999
C           -8.29200000000000       57.03899999999999      110.84899999999999
H           -8.55800000000000       57.69200000000000      111.67800000000000
N           -7.12400000000000       56.47699999999999      110.59499999999998
C           -7.18900000000000       55.75000000000000      109.50299999999999
H           -6.32900000000000       55.21000000000000      109.12799999999999
78
 energy: -116.013056055324 gnorm: 0.136715083158 xtb: 6.7.1 (edcfbbe)
Fe          -5.67889632599675       57.13694067417744      111.78638829123715
N           -6.53478467079453       56.16694066009875      113.34915058956875
N           -6.64046658704541       58.87809852374706      112.26750973168680
N           -4.83993275316487       58.15053782818782      110.23194749895262
N           -4.67521868529212       55.42930613393988      111.31597959055912
C           -6.29966220615399       54.88582395809939      113.73042664104511
C           -6.81502435751558       54.65441022292417      115.02935385862935
C           -7.36785434400004       55.85226871438887      115.44960668864385
C           -7.14161281447470       56.77388863187699      114.39496084956178
C           -7.31959688207551       59.08873155941011      113.42373464293514
C           -7.86454511088912       60.40285125516527      113.47362675702323
C           -7.45029433130564       61.02084284298768      112.29312461479664
C           -6.62739775062512       60.06528415450315      111.62129905205229
C           -5.02296765027564       59.43581603755246      109.83871384881746
C           -4.24348524067407       59.75701502809432      108.69667419530533
C           -3.55410258961917       58.58382203681563      108.38733418241073
C           -3.97353947669078       57.61907881450354      109.35459396477259
C           -3.91369174143587       55.27973012967026      110.21590083752044
C           -3.57658633331103       53.92159036960114      110.00423607963246
C           -4.18459124592198       53.21133948069905      111.01871164800905
C           -4.85297280876919       54.18493490158821      111.82681833025450
C           -5.58903412597577       53.94470452775763      112.98616869887455
H           -5.59811521035460       52.92796200057894      113.35898591733908
C           -7.47075716564069       58.13123964629187      114.42498420732932
H           -7.88670486360037       58.49335492234728      115.35661367755502
C           -5.86834927034911       60.32716448758914      110.49138912400709
H           -5.91482901043854       61.32867420776424      110.08449177498609
C           -3.55914681358377       56.29754909489215      109.35729772700326
H           -2.87753007310896       56.01355949305001      108.56805037711527
C           -8.09931628917311       56.14400585708287      116.73235183580175
H           -7.49702677255288       56.79263569330725      117.38183879780732
H           -8.30813361527591       55.21064971654267      117.26405647661804
H           -9.04748514568466       56.65486191737809      116.52213575550331
C           -6.69869519552221       53.35451307355194      115.77788350051019
H           -5.70896274414776       52.91024345403989      115.61361609541086
H           -7.45688481468258       52.64289052630080      115.42678396836251
H           -6.82884070305880       53.52251810819315      116.85116150325165
C           -8.72149047866688       60.90530152057068      114.60881173394156
H           -8.23479332515813       60.70230766255749      115.57040361026657
H           -9.69641855840681       60.39976241151973      114.60354066493656
H           -8.87799203610802       61.98310325036395      114.53154255733210
C           -7.75819153302870       62.28499181645286      111.73158787596732
H           -7.20715081292297       62.55891864764357      110.83097901104156
C           -8.68967624520220       63.17568434431220      112.17276449271966
H           -9.30082361934026       62.97151931129397      113.04230423721194
H           -8.85378487630278       64.11515120673472      111.65960783788952
C           -4.15931591174831       61.13115203309490      108.07129113104477
H           -4.10415220331605       61.89998283834688      108.85133868010563
H           -5.04057199879947       61.33374823540348      107.44825967639552
H           -3.26183861409590       61.21479618039467      107.45488397428022
C           -2.59909060495852       58.27365673870268      107.38405272705910
H           -2.16226034636232       57.27654927306394      107.44165263987875
C           -2.15976890981919       59.06085192430729      106.36729007550075
H           -2.53722854894044       60.06422148564744      106.22324215194089
H           -1.41625900968977       58.70179612425062      105.66650443396590
C           -2.77530160109518       53.38985354649542      108.84896328105488
H           -1.77750930684043       53.84741510751545      108.83045471522028
H           -3.27488778945352       53.62055762850274      107.89839283385147
H           -2.66169325390483       52.30641977913465      108.94280340696909
C           -4.13587611402007       51.71336190018292      111.19133250806864
H           -3.12547448412578       51.40098140154781      111.48420430322724
H           -4.38756044836945       51.21693175971652      110.24595306419714
H           -4.83970523070110       51.38504910519499      111.96282568795139
O           -4.43014261270573       57.73180453585827      113.40985770602259
H           -4.69348845342115       57.21957232488474      114.17489738667533
H           -3.78497504139297       58.41143138670177      113.44130939505816
C           -9.05959601079188       55.17292974373624      107.80724864453536
H           -9.43402717515004       55.92200484615552      107.09985658415069
H           -9.88594735565314       54.51156121984508      108.09401474972934
H           -8.27839239335229       54.58453908711932      107.31772929978214
N           -9.12277089751368       56.64699465400526      109.87591486032350
H          -10.08447722798952       56.92003217583866      109.79179831196498
C           -8.47862217441090       55.83760880065207      109.01445810992557
C           -8.29637835993299       57.03612226086228      110.84422550162685
H           -8.55925899245706       57.67851487041784      111.66426272982854
N           -7.11362650610599       56.50082443676027      110.60915173917763
C           -7.19100295458454       55.75430491207391      109.50325868505102
H           -6.33844226398024       55.21691082743792      109.13112765323967
78
 energy: -116.033646238544 gnorm: 0.046551275605 xtb: 6.7.1 (edcfbbe)
Fe          -5.67815765845814       57.13210599267661      111.78732718104139
N           -6.49642669348437       56.17682455881165      113.34583811433463
N           -6.61594463856971       58.86616500932642      112.28097732373364
N           -4.83641426068462       58.14111909643982      110.24748232613791
N           -4.69735094654376       55.43926564188053      111.31512800222688
C           -6.28223610993963       54.88644753981939      113.72309377783161
C           -6.82296547518644       54.65425401001583      115.03745023598589
C           -7.36897016197398       55.83800306565789      115.45159627366087
C           -7.14358393597433       56.78130244121056      114.38565700874591
C           -7.32265381187340       59.06945994041612      113.42960841616184
C           -7.86568724417056       60.40038711885666      113.47414073666623
C           -7.46516714936419       61.01957141667162      112.30611737590833
C           -6.63146285306236       60.05077379263437      111.61467929494104
C           -5.02598066457220       59.43316055833260      109.85638261553713
C           -4.22605455068598       59.75661979463540      108.70538044889685
C           -3.54444750479990       58.60080987659566      108.38100719173285
C           -3.96092294498677       57.61390664015634      109.36179375290024
C           -3.92107601355033       55.28896526049379      110.21367237894849
C           -3.58006763649950       53.90609877349189      110.00882543280251
C           -4.18124427845841       53.20955800496167      111.01525262341916
C           -4.87005060616623       54.19023042943982      111.82915152426915
C           -5.58993892727639       53.93810855182339      112.98202145330461
H           -5.59574865408062       52.92580248167075      113.35821023098191
C           -7.49094795882259       58.12297486122792      114.43187676315722
H           -7.92745946488586       58.47716296203890      115.35399409374006
C           -5.87889746380010       60.32282210302476      110.48836890132412
H           -5.92223416468072       61.32046274424123      110.07986913007308
C           -3.54368036029696       56.29733820701696      109.34971432488703
H           -2.87515027020037       56.00066973215868      108.55833052164918
C           -8.08992839590090       56.13781712989157      116.72366599134534
H           -7.49834604775436       56.78561108292347      117.37205093079984
H           -8.30617977419093       55.21958016023148      117.26160640205735
H           -9.03271148366162       56.64456271697861      116.51942627336922
C           -6.70794869833040       53.36396810018569      115.77736954135578
H           -5.72522771090045       52.92178037866879      115.61906312296696
H           -7.45550689407356       52.64931638970673      115.43244178982600
H           -6.84057478675873       53.51854749386037      116.84407320329619
C           -8.70765510966547       60.89933570478084      114.60076606723841
H           -8.23192556745599       60.69067816555345      115.55840529515785
H           -9.68157372100742       60.40633647468793      114.59853140012993
H           -8.86443863641963       61.96870612621743      114.54107381914416
C           -7.77833713318492       62.30772068970519      111.74754833142437
H           -7.21633024468324       62.56493467223730      110.85559871368670
C           -8.68288373269849       63.17173717008117      112.16474751673368
H           -9.30927420013551       62.98863197001759      113.01673518669229
H           -8.84632123308934       64.10602980105762      111.65824357921764
C           -4.15946364895756       61.11485655075215      108.08752372003575
H           -4.11606102927530       61.88466621234610      108.85681195065365
H           -5.03171760215458       61.31403729399764      107.46254495320842
H           -3.27259434799273       61.21939456275008      107.47420343065656
C           -2.58312147259515       58.29661343402721      107.35681357961840
H           -2.15527412473557       57.30270014543948      107.42871653505748
C           -2.16247759215356       59.05708787862664      106.36490658718851
H           -2.53063397161275       60.04988517111695      106.19517480426984
H           -1.41980041955079       58.70572833551533      105.67121652569261
C           -2.77816127042891       53.38690949020365      108.86268010931994
H           -1.78839514630924       53.84248864039410      108.83954952357151
H           -3.26969582560214       53.61466641403327      107.91551854135128
H           -2.65925548579649       52.31114145241876      108.94044373759671
C           -4.13867985670990       51.72801996540949      111.19919537178968
H           -3.13709596232992       51.40728510310883      111.48844388334433
H           -4.38841219500435       51.22667108752985      110.26408625528038
H           -4.83765751264546       51.39531676947242      111.95998805858659
O           -4.32838041455905       57.67815013239061      113.37536985321846
H           -4.65930816125776       57.27290829488820      114.19594782202998
H           -3.75732716790558       58.45298010217886      113.47461413640855
C           -9.06187229692299       55.17424391794338      107.80650988554895
H           -9.43770710019510       55.91487364185860      107.10315800626208
H           -9.88247750715078       54.51579144556401      108.08566364327091
H           -8.29214403219750       54.58788624490606      107.31711871729496
N           -9.15754609338794       56.63452764344530      109.85701060606112
H          -10.12288778474323       56.90325978180326      109.77101856419304
C           -8.47305122709776       55.82439499311019      109.00063789858704
C           -8.31610171641042       57.03785036263375      110.82902567917439
H           -8.58241289906949       57.67146557046537      111.64424103418325
N           -7.11823043195474       56.53701372493261      110.61879281283757
C           -7.19657871100558       55.77114903313679      109.50443465534832
H           -6.34639121932828       55.23537177108852      109.13634449891782
78
 energy: -116.038440099067 gnorm: 0.074947163750 xtb: 6.7.1 (edcfbbe)
Fe          -5.67099219358609       57.13002370330245      111.79037966100606
N           -6.46968622263350       56.18319514761905      113.35000993481501
N           -6.59579384876182       58.85934291327643      112.29800343048899
N           -4.82391259657703       58.12989254648666      110.25543723016708
N           -4.71789090144745       55.44202742963012      111.30197883001708
C           -6.26899927169388       54.88937291708759      113.72269105932949
C           -6.82468739329667       54.65297728462548      115.03834811691500
C           -7.36950887000649       55.83052249121617      115.44925052237983
C           -7.13761409821653       56.78251954472508      114.38368475234016
C           -7.32045147881559       59.05831409554679      113.43706349807414
C           -7.86644010017267       60.39242392044164      113.47497078125045
C           -7.46922547559593       61.01045104480321      112.31296844431688
C           -6.62860678116153       60.03857461659172      111.61934733537858
C           -5.01895002826068       59.42363027524183      109.87106985018173
C           -4.21165748338450       59.75237693946404      108.71924560037009
C           -3.53064647057723       58.60699369683994      108.38565277783023
C           -3.94577602986534       57.60823336030652      109.36564053147954
C           -3.93020930809328       55.29072774879030      110.20693027448843
C           -3.58498449108662       53.90001276953672      110.01093423758417
C           -4.18601157149142       53.21046022303822      111.01524135121331
C           -4.88420390021514       54.19498379394545      111.82394537012182
C           -5.59115441913270       53.93569233589682      112.97996680602182
H           -5.59433235586620       52.92397186518704      113.35689845011083
C           -7.50753405104812       58.11404005255893      114.43637841954259
H           -7.98735926535766       58.45396884243902      115.34403107990539
C           -5.88143005308036       60.31152376163006      110.49056021448622
H           -5.93513787641639       61.30409088789060      110.07204937436447
C           -3.53331952642925       56.29158275971842      109.34267207203598
H           -2.86997558156970       55.98552843059772      108.55046906274890
C           -8.08640851189053       56.13397958865239      116.71917543852322
H           -7.49384462412204       56.78332766659019      117.36370129084298
H           -8.30428327309184       55.22019515187525      117.26287839509914
H           -9.02825551534076       56.63922707976120      116.51454989854588
C           -6.71853654083351       53.36476546041531      115.77741945776778
H           -5.73528940020962       52.92467549328047      115.62723058122074
H           -7.46304845327027       52.64966527094602      115.42979489232383
H           -6.86071661315614       53.51658016280786      116.84304901377934
C           -8.69848252152409       60.89111281261324      114.60380470922135
H           -8.22413846508267       60.66650496158536      115.55766339262085
H           -9.67762956877236       60.41061166926519      114.59679958179096
H           -8.84224990229925       61.96235422505266      114.55678799603430
C           -7.77888857283676       62.30966646191791      111.75769119527737
H           -7.20571360586873       62.56600740035267      110.87551159874090
C           -8.69722662532646       63.18030938169201      112.15874862538330
H           -9.34954346484572       63.00814094609827      112.99378710885820
H           -8.84415628933801       64.11528545279791      111.64866771357035
C           -4.16141952294450       61.10889571137037      108.10734038241890
H           -4.13742190494832       61.87726049755490      108.87774683279103
H           -5.03231571141933       61.29145375725745      107.47684212410770
H           -3.27328204566798       61.23102408617418      107.49970891524239
C           -2.56896312846755       58.31064136955590      107.34964196608516
H           -2.13405516744284       57.32294334206590      107.42550052102611
C           -2.15855138852213       59.06808180663977      106.34076156053871
H           -2.53321165085913       60.05350809181308      106.14509312056289
H           -1.41256209783078       58.71248092818909      105.65303837545270
C           -2.77642058260878       53.38168739869842      108.87282001716764
H           -1.78914017982942       53.83967297372569      108.85421641061700
H           -3.26461160019036       53.60805115487799      107.92485301275163
H           -2.65419056002943       52.30632216769164      108.94613773948691
C           -4.14444246898393       51.73421544940166      111.21251947926736
H           -3.14448697479770       51.41348636112531      111.50418315084809
H           -4.39315136850914       51.22783155175716      110.28078613001021
H           -4.84512026189493       51.40673529545884      111.97192618310802
O           -4.17394809931280       57.60662919885243      113.32834521105873
H           -4.61849702370875       57.35238487292577      114.20651629470142
H           -3.73578435986864       58.50638040590126      113.49003534209550
C           -9.06253096547265       55.17069003437691      107.80133145319951
H           -9.44313571725503       55.91085943010890      107.10062166551555
H           -9.88280369969908       54.51218732067999      108.07918312315931
H           -8.29771481979457       54.58428323136864      107.30634485257106
N           -9.18930904380051       56.62394866610219      109.84269826162731
H          -10.15972928814829       56.87680478162908      109.75076595525935
C           -8.47421662325767       55.82119113925965      108.99386213247746
C           -8.35007088798089       57.04705334854815      110.81503736978033
H           -8.63142720849213       57.67595841334171      111.62831153741588
N           -7.13842013669976       56.57370518514827      110.62433685746795
C           -7.20377443628116       55.79850199026107      109.50604275631396
H           -6.34738748363333       55.27026545400070      109.14237130730925
78
 energy: -116.043512802428 gnorm: 0.040447702260 xtb: 6.7.1 (edcfbbe)
Fe          -5.66301445804285       57.13123933905464      111.79499050632585
N           -6.44412839459283       56.19133999870898      113.35736665933116
N           -6.57776653627527       58.85480799908855      112.31634841820747
N           -4.80911040754901       58.11812213135765      110.26190087677570
N           -4.73899813345985       55.44581098725173      111.28629377537307
C           -6.25558280947297       54.89522534513868      113.72466383053020
C           -6.82523439337346       54.65274984303915      115.03768344773218
C           -7.37113429003418       55.82520542193937      115.44565651050996
C           -7.13081130106058       56.78365762418004      114.38358235380447
C           -7.31932620300559       59.04952668104150      113.44457547816000
C           -7.86997543304684       60.38332655081809      113.47435222673265
C           -7.47482005678395       60.99894519504254      112.31645888531774
C           -6.62611529640013       60.02719560278099      111.62602099856237
C           -5.01025027886980       59.41237104364757      109.88581358500868
C           -4.19822025385593       59.74754452643528      108.73500475604426
C           -3.51648997663993       58.61160349178242      108.39297532926767
C           -3.92934722461677       57.60305932055000      109.36906579135375
C           -3.93984164200689       55.29299213970283      110.20009909846260
C           -3.58962955547916       53.89804578071427      110.01435438038978
C           -4.19194803175375       53.21431330130091      111.01774923361170
C           -4.89783591975845       54.20240636834884      111.81782262621550
C           -5.59213506841171       53.93620694214024      112.97924019971525
H           -5.59268973366053       52.92406256204573      113.35590381539811
C           -7.52708069554404       58.10535481666775      114.44001895978010
H           -8.05485607678735       58.42887943458120      115.33135635212264
C           -5.88388868351782       60.29844489486904      110.49325529593875
H           -5.95173409953363       61.28513284159694      110.06162907652633
C           -3.52316666724946       56.28543982670668      109.33570392218941
H           -2.86288847371431       55.97062127734171      108.54333802056047
C           -8.08539172242481       56.13108369676083      116.71533757924398
H           -7.48945009504284       56.78283405460933      117.35523115531007
H           -8.30278599318006       55.21941082267679      117.26493029646124
H           -9.02771031002131       56.63472565351439      116.50940219851438
C           -6.72936592000442       53.36467830584309      115.77732157441049
H           -5.74386953726593       52.92664759264802      115.63669283323109
H           -7.47207468522208       52.64931892702462      115.42481906828539
H           -6.88346903446726       53.51603652201726      116.84300419771262
C           -8.69286600590116       60.88409696516392      114.60708848012148
H           -8.21823099139880       60.64134346453304      115.55741501767415
H           -9.67881627509547       60.41685044846354      114.59415977831200
H           -8.81967085413921       61.95950240495532      114.56852603097045
C           -7.77985496977223       62.30614236809578      111.76569335110089
H           -7.19331588113349       62.56982069964820      110.89675193998887
C           -8.71496210451271       63.18671922860916      112.15374456444276
H           -9.39164857169785       63.02303154169973      112.97353700574688
H           -8.84128248906154       64.12336474294030      111.63728147140787
C           -4.16307423686025       61.10451093215023      108.12708079213992
H           -4.16066552155635       61.87153559971753      108.90037466370332
H           -5.03375688689465       61.26741815452238      107.48960863544079
H           -3.27092659963042       61.24113482902522      107.52556894179409
C           -2.55592307036769       58.32452149948465      107.34725478747389
H           -2.10711987070011       57.34520845488896      107.42528328834445
C           -2.15628873433101       59.08193923924656      106.31633677816693
H           -2.53933814264917       60.06109116794720      106.09748411297862
H           -1.40548244752289       58.71887646835508      105.63530005993466
C           -2.77295706891586       53.37731255338846      108.88414934763017
H           -1.78670201489962       53.83808593963244      108.87198577641013
H           -3.25814879943329       53.60196799323923      107.93391287293652
H           -2.64777058370520       52.30072347853894      108.95577979783734
C           -4.15008025475809       51.74061581232526      111.22842817861152
H           -3.15028977024149       51.42145683100598      111.52395218515835
H           -4.39746431292319       51.22850778306102      110.29873510989921
H           -4.85374814268632       51.41975152258790      111.98830260064581
O           -4.15184736227285       57.67669749901965      113.33807930860523
H           -4.47485252688155       57.33664150554097      114.16176228050554
H           -3.64934092895978       58.48149735772534      113.47541302250710
C           -9.06137542461576       55.16531772910030      107.79526025469860