78
 energy: -115.949518240799 gnorm: 0.266943169877 xtb: 6.7.1 (edcfbbe)
Fe          -5.87600000000000       56.91499999999999       20.60200000000000
N           -6.34100000000000       56.11199999999999       22.39700000000000
N           -6.55400000000000       58.70700000000000       21.33000000000000
N           -4.88900000000000       57.96200000000000       19.17299999999999
N           -4.54100000000000       55.37599999999999       20.33000000000000
C           -6.07300000000000       54.82100000000000       22.79300000000000
C           -6.66900000000000       54.58500000000000       24.09800000000000
C           -7.28800000000000       55.71000000000000       24.47100000000000
C           -7.08000000000000       56.69100000000000       23.41000000000000
C           -7.35600000000000       58.87400000000000       22.44300000000000
C           -7.92300000000000       60.21000000000000       22.41700000000000
C           -7.46100000000000       60.82300000000000       21.32000000000000
C           -6.61200000000000       59.88200000000000       20.61499999999999
C           -5.04600000000000       59.29900000000000       18.84500000000000
C           -4.17200000000000       59.63100000000000       17.74800000000000
C           -3.49200000000000       58.53600000000000       17.43700000000000
C           -3.93700000000000       57.46900000000000       18.31500000000000
C           -3.84800000000000       55.16400000000000       19.14600000000000
C           -3.61400000000000       53.74000000000000       18.97000000000000
C           -4.14700000000000       53.10900000000000       20.01800000000000
C           -4.72500000000000       54.11600000000000       20.88500000000000
C           -5.35800000000000       53.88500000000000       22.08300000000000
H           -5.28800000000000       52.88200000000000       22.50300000000000
C           -7.57900000000000       57.97100000000000       23.44600000000000
H           -8.17400000000000       58.27799999999999       24.30500000000000
C           -5.93900000000000       60.16600000000000       19.44500000000000
H           -6.12200000000000       61.12799999999999       18.96700000000000
C           -3.45400000000000       56.16500000000000       18.29300000000000
H           -2.70500000000000       55.91900000000000       17.54000000000000
C           -8.08900000000000       55.99900000000000       25.76000000000000
H           -8.09800000000000       55.09300000000000       26.40200000000000
H           -9.13600000000000       56.26600000000000       25.50000000000000
H           -7.61200000000000       56.83200000000000       26.31900000000000
C           -6.54700000000000       53.23099999999999       24.83200000000000
H           -5.48300000000000       52.91300000000000       24.84900000000000
H           -7.14500000000000       52.46000000000000       24.30000000000000
H           -6.90800000000000       53.33700000000000       25.87700000000000
C           -8.87600000000000       60.75299999999999       23.50700000000000
H           -8.63800000000000       60.27300000000000       24.48000000000000
H           -9.92800000000000       60.51799999999999       23.23700000000000
H           -8.74600000000000       61.85199999999999       23.60600000000000
C           -7.75700000000000       62.24800000000000       20.82000000000000
H           -7.02800000000000       62.81999999999999       20.22900000000000
C           -8.94800000000000       62.79200000000000       21.12500000000000
H           -9.68500000000000       62.22800000000000       21.71600000000000
H           -9.20100000000000       63.80799999999999       20.78800000000000
C           -4.06600000000000       61.02900000000000       17.11400000000000
H           -4.45800000000000       61.78900000000000       17.82400000000000
H           -4.66700000000000       61.06399999999999       16.18000000000000
H           -3.00300000000000       61.26000000000000       16.89000000000000
C           -2.39700000000000       58.32900000000000       16.34900000000000
H           -1.53300000000000       57.66399999999999       16.48100000000000
C           -2.57600000000000       59.03300000000000       15.20400000000000
H           -3.44600000000000       59.69500000000000       15.08600000000000
H           -1.85300000000000       58.95000000000000       14.37900000000000
C           -2.85800000000000       53.14500000000000       17.75700000000000
H           -1.78100000000000       53.41100000000000       17.82400000000000
H           -3.27400000000000       53.56099999999999       16.81500000000000
H           -2.95700000000000       52.03800000000000       17.75900000000000
C           -4.15200000000000       51.59100000000000       20.34000000000000
H           -3.35900000000000       51.36699999999999       21.08500000000000
H           -3.95100000000000       51.01000000000000       19.41400000000000
H           -5.13700000000000       51.30100000000000       20.76400000000000
C           -9.23500000000000       54.75399999999999       16.63600000000000
H           -9.11700000000000       55.36900000000000       15.71800000000000
H          -10.31100000000000       54.51400000000000       16.77300000000000
H           -8.64800000000000       53.81800000000000       16.52000000000000
N           -9.29100000000000       56.61499999999999       18.39800000000000
H          -10.15100000000000       57.03200000000000       18.10300000000000
C           -8.73100000000000       55.52500000000000       17.82500000000000
C           -8.52000000000000       57.03300000000000       19.40300000000000
H           -8.78000000000000       57.84900000000000       20.07600000000000
N           -7.43900000000000       56.31500000000000       19.43400000000000
C           -7.53100000000000       55.37200000000000       18.44000000000000
H           -6.72500000000000       54.67099999999999       18.26000000000000
O           -4.48600000000000       58.34800000000000       22.61500000000000
H           -4.32600000000000       57.72200000000000       23.32100000000000
H           -4.24300000000000       59.20300000000000       22.60500000000000
78
 energy: -116.011995255666 gnorm: 0.108700807056 xtb: 6.7.1 (edcfbbe)
Fe          -5.78648722245658       56.96329505372768       20.66889632991071
N           -6.36587200381737       56.09724048893179       22.39670544018799
N           -6.62754379803498       58.70933327324129       21.29417223623705
N           -4.88416678056269       57.96276936568967       19.15997949500786
N           -4.58599445992363       55.34411832585114       20.28990147064240
C           -6.08035278458919       54.82087438238978       22.79978365111431
C           -6.66662144614185       54.57026181082318       24.10543096622753
C           -7.29261063196740       55.70885013385109       24.48246892173951
C           -7.09060107001089       56.67252570110384       23.40862414812673
C           -7.37715941414388       58.89059178455178       22.42585947179936
C           -7.93350328686669       60.22803433642210       22.42736512059976
C           -7.47036971731920       60.85172063923844       21.30955151329840
C           -6.63354994631471       59.89147594480350       20.61227091203307
C           -5.05373562157283       59.28658383952730       18.82774219653520
C           -4.16902764320144       59.63858192131308       17.73854497195806
C           -3.46359326756151       58.52308605647979       17.42589326273231
C           -3.92125342085433       57.47305503646239       18.32057303749206
C           -3.85854507950295       55.15021648695090       19.14188691564653
C           -3.59225522474604       53.73462234687467       18.96339402810363
C           -4.13409870381433       53.09309640126093       20.02683082735531
C           -4.73227068230885       54.10797680766798       20.86945834766186
C           -5.36095685579173       53.88436919271271       22.08095369226962
H           -5.29149100808372       52.88675259879084       22.49911745090054
C           -7.58094626036917       57.96416127751255       23.43303626304808
H           -8.16592150237802       58.26759783576014       24.29334144092909
C           -5.94255467818560       60.15708265640747       19.44237749331787
H           -6.10599606312367       61.12376102631007       18.97965107435147
C           -3.45593200524363       56.16543144003625       18.29324561912821
H           -2.72084171765999       55.91861951802476       17.53492637120287
C           -8.07826474889310       55.99428875805060       25.74638332215726
H           -8.09708576415444       55.10867540000039       26.38966839182528
H           -9.11325187047393       56.26269487132204       25.50201811764982
H           -7.62162491848841       56.81911736307362       26.30596565759609
C           -6.54695289045233       53.24481620814253       24.82729137489107
H           -5.50054792482888       52.92040373262016       24.84981706257116
H           -7.13567570905872       52.47669618887554       24.31097755248562
H           -6.90439628164607       53.33382132872375       25.85779620877149
C           -8.86238846582887       60.74980544441933       23.50297288265048
H           -8.64045708659098       60.28140358576336       24.46674966934869
H           -9.90543637199324       60.52242920755216       23.24466415494014
H           -8.74685365592494       61.83334565165375       23.60701924685637
C           -7.77209608625515       62.23078520345977       20.83598312756811
H           -7.03707982834884       62.78023115999769       20.24823984068798
C           -8.94437354540610       62.79254707019851       21.12229510895946
H           -9.68859416257019       62.24992227370586       21.68935237976909
H           -9.19498735879074       63.79522731684710       20.79131113713067
C           -4.06821431745052       61.01913002025790       17.12630803922882
H           -4.45020693266128       61.77879185669220       17.81542472029538
H           -4.65788805978801       61.06879822466978       16.20203429081299
H           -3.02354539107690       61.25307195826413       16.89184297649635
C           -2.42847261686978       58.35078317066152       16.35132710668465
H           -1.57876039084148       57.68482201070803       16.49924457386513
C           -2.57199461184349       59.02788825193526       15.21177650057334
H           -3.42531032206952       59.67664582605997       15.06888798611591
H           -1.85935243821875       58.94688267446498       14.39624162961366
C           -2.86217353715751       53.15269537323097       17.77002257664081
H           -1.79750509280900       53.40851389158992       17.82387568830638
H           -3.26802771689770       53.55423171984165       16.83449661190434
H           -2.95480168409110       52.06152501203857       17.75939969284108
C           -4.15015648790451       51.60809277102749       20.33817223207020
H           -3.37157385633259       51.37334481951423       21.07385675165167
H           -3.95554266085590       51.02355555632452       19.43266866923827
H           -5.11929548914128       51.30910154343383       20.75221066481210
C           -9.23360678750607       54.76598996058096       16.64161292883263
H           -9.12343165546055       55.35832129087513       15.72513199273186
H          -10.29405643849497       54.51647211354720       16.76858162688589
H           -8.66092923945006       53.84092069293304       16.52496895236632
N           -9.30046123877487       56.60495584277214       18.40034535398421
H          -10.16809141176152       57.01962768806413       18.10553812651285
C           -8.70515212139570       55.53091697335172       17.81424255982046
C           -8.50704302503039       57.03705562609498       19.40227438084342
H           -8.77211733388896       57.84456024061459       20.06370443569826
N           -7.40146301265386       56.32996703848797       19.45794232269786
C           -7.51123864224379       55.38205104107639       18.46482373044645
H           -6.72232956171975       54.67686269943789       18.28335615630787
O           -4.45946866469634       58.29990954975379       22.58679337510931
H           -4.31818394971295       57.72428128130245       23.33464273188689
H           -4.23528634494919       59.21393683326949       22.61176270930862
78
 energy: -116.034372112413 gnorm: 0.047189495892 xtb: 6.7.1 (edcfbbe)
Fe          -5.70955816975064       57.00981140589988       20.73331827118766
N           -6.36773809885883       56.09339468889961       22.40145082173708
N           -6.66910211623311       58.70742507356010       21.27198661119461
N           -4.86196962388582       57.97042224890768       19.17407404102149
N           -4.62707423872639       55.33215607741761       20.26362576282790
C           -6.08891345468154       54.82258746108567       22.79917590001578
C           -6.66426162750133       54.56179695974739       24.10576525705877
C           -7.29689110802127       55.70807004450499       24.48422226086192
C           -7.10019459943218       56.65704412817339       23.40169294261910
C           -7.40176186841179       58.89304505561643       22.40224679923784
C           -7.94508242214614       60.23103673302783       22.43070355419597
C           -7.48436417666283       60.86304019722989       21.29858078520501
C           -6.66026958159719       59.88730334187529       20.60371758706317
C           -5.05663502147627       59.27531077480039       18.82314959109864
C           -4.17831042855020       59.64087745120732       17.73217548674140
C           -3.45186035883238       58.51599329098475       17.42140665407300
C           -3.90845055579603       57.48008037818505       18.33424222047260
C           -3.88528812744303       55.14547434447226       19.13855466758799
C           -3.58225608798122       53.73754833557162       18.96192537753690
C           -4.12906025798100       53.08960988400512       20.03271144117090
C           -4.75493348395033       54.11107539852182       20.84882360952198
C           -5.37517141229511       53.88548679728024       22.06898750346348
H           -5.29543417849350       52.89309413355223       22.48899847132255
C           -7.59141242113204       57.95133745652387       23.40896450474214
H           -8.16074590658789       58.25572735133418       24.27523241344561
C           -5.94957574465453       60.14335181887856       19.44035800770190
H           -6.08447569678381       61.12040929098876       18.99644204461636
C           -3.46946311324717       56.16555193251623       18.29274260542640
H           -2.74523717124993       55.91389608216470       17.53016468154563
C           -8.06796072619023       55.98898011648838       25.73081387102363
H           -8.09182197694204       55.11544561935106       26.37624803216465
H           -9.09621174761159       56.26035566941965       25.49544369362602
H           -7.62401036634050       56.81145244288400       26.29025284183176
C           -6.54723789343794       53.25981647199196       24.82244063820049
H           -5.51090429211760       52.92935746954821       24.85015102878369
H           -7.13017940204938       52.49129886080615       24.31562597796661
H           -6.90558830743996       53.33900539014971       25.84444418490537
C           -8.84710732545324       60.74824062689319       23.49773562028063
H           -8.63270515240344       60.28456987820628       24.45589679298697
H           -9.88743295312359       60.52666352230840       23.25152485646832
H           -8.74286471874517       61.82441507623794       23.60552303590423
C           -7.78552173209503       62.20441238778361       20.85240451833420
H           -7.03971680297768       62.73030451340579       20.26635678424643
C           -8.94585154470669       62.79596923099468       21.11758022075692
H           -9.70981036060630       62.27626720211142       21.66226377087975
H           -9.18314640715610       63.79236794686823       20.78920510032778
C           -4.07337169418692       61.00605487558949       17.13634381431125
H           -4.44219721290732       61.76446840606125       17.81958810464652
H           -4.65933353234150       61.07351733450076       16.21925131722645
H           -3.03822775620933       61.23764090406956       16.89153136999435
C           -2.46539195096682       58.37077306266289       16.36800028191499
H           -1.63085779681136       57.69719052679877       16.53298580259447
C           -2.56882853185353       59.02521412137732       15.21787315607520
H           -3.41026915546929       59.66657563450627       15.03728380173899
H           -1.85453635837318       58.93840382127654       14.41701578793400
C           -2.86307604931332       53.16287925751110       17.78880651106097
H           -1.80354965364318       53.41158512959080       17.82704763121555
H           -3.26539979245892       53.55548080762066       16.85661742556234
H           -2.95308528090854       52.08003782284012       17.76884717355264
C           -4.14337165887161       51.62918307480999       20.33700896852189
H           -3.37641119199862       51.38108510417376       21.07050089868364
H           -3.95279910599163       51.04149192597358       19.44279643426407
H           -5.10575162186634       51.32533587356641       20.74240514601424
C           -9.22254731927514       54.77715379802299       16.65109893702907
H           -9.12569631610178       55.35661027718269       15.73378864419539
H          -10.27411740718502       54.52925864652894       16.78361031852337
H           -8.66339263656945       53.85556143467709       16.52937019313707
N           -9.30099318041012       56.59452336795247       18.40716750472380
H          -10.17563433342404       57.00272124111445       18.11538232651882
C           -8.67188869463836       55.53505252455833       17.80996648754835
C           -8.49575904957653       57.04194049892600       19.40100108034125
H           -8.76346425977729       57.84700715950175       20.05177432806015
N           -7.37994508205667       56.34555444621635       19.47546644496478
C           -7.48704582475095       55.39789169006685       18.48583253485400
H           -6.71031671944279       54.68490911210640       18.30830901126174
O           -4.35066485900207       58.21535704688061       22.49260251516841
H           -4.33782459857165       57.74180193602896       23.35581746396369
H           -4.28068861328706       59.19285857492575       22.61955774101797
78
 energy: -116.040892201256 gnorm: 0.028487345806 xtb: 6.7.1 (edcfbbe)
Fe          -5.67679296836382       57.03171218413819       20.76579552192211
N           -6.36990958449090       56.09192140968180       22.39994554990951
N           -6.69283081524770       58.69971451189611       21.26260276145976
N           -4.84738580142813       57.98102300812121       19.19983779351871
N           -4.65041559843773       55.33634373867066       20.25699160373523
C           -6.09523168446564       54.82122684459826       22.79401808838567
C           -6.66821271726318       54.55961229052689       24.09883672503874
C           -7.30387176154230       55.70428775843823       24.47568229692812
C           -7.11066141805506       56.64989514760931       23.39432901868698
C           -7.42944040508846       58.88226877476750       22.38901822241005
C           -7.97147837870140       60.21601798143733       22.42297299015127
C           -7.51689212073935       60.84876341905827       21.28763535728564
C           -6.68512344783503       59.87961378675380       20.59680379456657
C           -5.05743773761833       59.27761851029885       18.83823873696082
C           -4.19739496234600       59.64306134714944       17.73736895299929
C           -3.46906777513955       58.51925590689957       17.42541475294993
C           -3.90609541149782       57.48889682082852       18.35165732634045
C           -3.90334345721477       55.15308231267721       19.13847303664443
C           -3.58312982052978       53.74949314329449       18.96651624003649
C           -4.13039138612217       53.09959393523106       20.03457418490964
C           -4.77343131774358       54.11733079964161       20.84022369325527
C           -5.38854282153903       53.88423282260950       22.05968660631478
H           -5.30651139269377       52.89147305885884       22.47651719869219
C           -7.61038763942891       57.93922301756719       23.39452995520961
H           -8.18015260063445       58.24051898674278       24.25992222255086
C           -5.95613752974573       60.14188727499503       19.44760905979556
H           -6.07050759073711       61.12565401486319       19.01377069649306
C           -3.48250743912499       56.17081113976930       18.29452240774634
H           -2.77655569525883       55.91117250580205       17.51747961888870
C           -8.06824213623544       55.98668182442465       25.72137843229943
H           -8.08930006605773       55.11402642773757       26.36797488393140
H           -9.09624220241120       56.25911445880479       25.48598589837905
H           -7.62297046158184       56.81180819264470       26.27666947486934
C           -6.54895196307100       53.26424453382223       24.82070878847256
H           -5.51170880612197       52.93605290880361       24.85342312778396
H           -7.12946837864632       52.49271286597737       24.31507490609797
H           -6.91265429171567       53.34789759363874       25.84076229361865
C           -8.84696397447337       60.74630841208602       23.50143914348234
H           -8.62015665201313       60.28454952687915       24.45837874016936
H           -9.89252882670340       60.53192310147777       23.27069895963350
H           -8.73377835148783       61.82286850012011       23.60014727463197
C           -7.80635152458337       62.18937464816707       20.84983080126648
H           -7.04173058029060       62.69679543391775       20.27240088055069
C           -8.95735854820480       62.81042907763919       21.10085808184649
H           -9.75299936111395       62.30798588936675       21.62262925813272
H           -9.16269597065791       63.81395943931496       20.77347333007527
C           -4.08554231676897       61.00399197800845       17.14434885692577
H           -4.43353522353890       61.76393175141437       17.83807587185644
H           -4.68106081413084       61.08533299953339       16.23421590768639
H           -3.04930780938316       61.21838447676244       16.88598170316311
C           -2.48906166388234       58.37391302755182       16.37742623451397
H           -1.66424291985892       57.69524267161813       16.56406310370222
C           -2.55795643489713       59.02038212642444       15.21587499851799
H           -3.39455998416132       59.66063317829138       14.99416041708111
H           -1.82096741855157       58.92038065994989       14.43817636337345
C           -2.85509999071747       53.17682872727677       17.80156802847817
H           -1.79544005332268       53.42687604868333       17.83893219943991
H           -3.25883202520375       53.56685556610856       16.86851176204297
H           -2.94406224436226       52.09359581033967       17.78492268496286
C           -4.13522329482938       51.64279679924277       20.34039053704806
H           -3.37145153832235       51.39507065677623       21.07795652249151
H           -3.93829370992388       51.05773879883264       19.44555931654441
H           -5.10004237678656       51.33716953578718       20.73963460531894
C           -9.19816293497275       54.78432019148905       16.66515232841603
H           -9.11564068990463       55.36273196027178       15.74485947732530
H          -10.24905451973138       54.54288228851682       16.81479572958392
H           -8.64574736932738       53.85988911661202       16.53508552336282
N           -9.28578932071928       56.59019760518368       18.41577861045674
H          -10.16949799557085       56.98247343968614       18.12872348202023
C           -8.63778532609351       55.53921347797996       17.81855227459586
C           -8.48435897799764       57.05129448516876       19.40429358739377
H           -8.75636850430896       57.86097243898281       20.04718586476563
N           -7.36675721894231       56.36468734475375       19.48489423180262
C           -7.45718717190984       55.41481959542813       18.50216050472941
H           -6.67940792562091       54.69875756981580       18.33793851817197
O           -4.32248560113332       58.15034696820597       22.44802086806000
H           -4.30686863039958       57.70452916856350       23.30631832297480
H           -4.23626462032404       59.10732024899373       22.56763287416868
78
 energy: -116.040597632962 gnorm: 0.091591253103 xtb: 6.7.1 (edcfbbe)
Fe          -5.66174215233031       57.04517291462383       20.78885136451410
N           -6.36954214998834       56.09206253354901       22.39501312184294
N           -6.69661683066715       58.68858003576442       21.26208287639913
N           -4.83255364786379       57.99299379539283       19.23612594275688
N           -4.67327575401713       55.35022727992560       20.25732902331727
C           -6.09875675456648       54.82054029015622       22.78808159339599
C           -6.67346953838702       54.55876254100035       24.08872706438454
C           -7.31138934917061       55.69960936097785       24.46324620943157
C           -7.11711921183832       56.64460048701637       23.38704900498418
C           -7.44932518822981       58.86758302959010       22.38085677165445
C           -8.00231198907595       60.19126425368743       22.41135226711080
C           -7.55519171913874       60.82405234463506       21.27612182702424
C           -6.70516136492192       59.86902693587337       20.59398755293996
C           -5.05526259545565       59.28317072467075       18.86454995628797
C           -4.22322906393739       59.64477296869600       17.74693261327657
C           -3.49735353606105       58.52455983322677       17.43186717707054
C           -3.90741463774406       57.49948681190130       18.37349431623412
C           -3.92073055882156       55.16874664341034       19.14281721435686
C           -3.58771259573399       53.76935533859234       18.97458090952190
C           -4.13427495489176       53.11790349489630       20.03693173835213
C           -4.79062670133218       54.12920353325394       20.83635036078599
C           -5.40202564124037       53.88285241800010       22.05102893289282
H           -5.32359522035463       52.88685851280636       22.45967876553055
C           -7.62793568135069       57.92602073662005       23.38237315583220
H           -8.21016320975156       58.22071592349604       24.24075331066718
C           -5.95968455987517       60.14349859290475       19.46221898421982
H           -6.05889493518007       61.12990736899518       19.03438631890736
C           -3.49919444682088       56.17915846879939       18.29707823513759
H           -2.81809080412437       55.90937975843013       17.50055514744594
C           -8.07129236506720       55.98525713983233       25.71172802970372
H           -8.08842044434259       55.11249977995081       26.36035671867877
H           -9.10041807711086       56.25882224454227       25.47670049384352
H           -7.62079717722796       56.81346888879578       26.26145028794921
C           -6.55155757568394       53.26633250699074       24.81869139732491
H           -5.51131994534255       52.94312101036730       24.85885782449270
H           -7.12825171010329       52.48943963182864       24.31365362603379
H           -6.92246842752516       53.35799814805102       25.83739140931667
C           -8.85188267280894       60.74208671756333       23.50339184283143
H           -8.60358301074505       60.28792348391372       24.46154547417983
H           -9.90632807681623       60.53746448013600       23.29865957320677
H           -8.72274817530064       61.82066514328449       23.58425945058205
C           -7.83283510095020       62.17237597008863       20.84108549330034
H           -7.04535111999925       62.66287266509033       20.27900453974773
C           -8.97199285410636       62.82385565948883       21.07566217623087
H           -9.79789575777670       62.34945308827245       21.58509408783571
H           -9.13396683234050       63.83915911396856       20.75106918891294
C           -4.10273427611910       61.00302872892846       17.15177265388057
H           -4.41880676186098       61.76815080218443       17.86017387075411
H           -4.71543667126675       61.10096899686140       16.25298151657741
H           -3.06446974329640       61.19219441527723       16.87197989188043
C           -2.51379863296911       58.37292277268709       16.38500378538642
H           -1.69928265088704       57.68882375188474       16.59462244236422
C           -2.54645090384746       59.01097881021019       15.21405633212073
H           -3.36861569043829       59.66036947471397       14.94926466292558
H           -1.77922758018901       58.89086963069318       14.46584914207769
C           -2.84593305674192       53.19698274802423       17.81527256274030
H           -1.78570408980059       53.45024883840499       17.85703199910771
H           -3.24925233179060       53.58366378414498       16.87879485762877
H           -2.93227331513643       52.11163914787871       17.80480310453289
C           -4.12751491413888       51.65938006849153       20.34508158611560
H           -3.36551866002064       51.41654106643125       21.08811262226691
H           -3.91940269583900       51.07757437167767       19.44843930077268
H           -5.09536647469640       51.34898176259755       20.73783811826759
C           -9.17163646808989       54.79058430639303       16.68010513552727
H           -9.10342431942826       55.37175757446284       15.75815923052105
H          -10.22299822995951       54.55761939272220       16.85258843671305
H           -8.62530314240250       53.86236607486546       16.53943816124064