78
 energy: -116.058025989279 gnorm: 0.000065338243 xtb: 6.7.1 (edcfbbe)
Fe          16.78496284573603      -30.93833009568797       -3.45638025361054
N           15.87048168541448      -32.29842279051140       -2.32580430479704
N           16.74497944531861      -29.63299719287495       -1.94631385693380
N           17.65728886240050      -29.55297524837523       -4.63346594743907
N           16.77979378302732      -32.22513409099114       -5.00156943385666
C           15.53286103246610      -33.56573069575400       -2.67694398133947
C           14.88737363509004      -34.24878771084829       -1.57592702632469
C           14.84201262670858      -33.35901059948254       -0.54987210424721
C           15.46539326767429      -32.14686797843927       -1.03745038056834
C           16.23207521224275      -29.84014481286818       -0.70407478979322
C           16.39481677586942      -28.67067012470728        0.12177108635808
C           17.02611776457131      -27.73661158155827       -0.65534355012923
C           17.24108285168230      -28.36912551601234       -1.94355757378518
C           18.04055118814190      -28.29845138978774       -4.26488647985656
C           18.65960380654524      -27.60822020677932       -5.36573075311940
C           18.64592838713729      -28.47886820929600       -6.42442251399226
C           18.02652666910419      -29.69358876822768       -5.93409893088639
C           17.26048171450680      -32.00469965751785       -6.25606598349963
C           17.11187369744163      -33.18666258553115       -7.07508188272355
C           16.54030720094076      -34.13169726791487       -6.28063094267907
C           16.34034666044383      -33.51205267581297       -4.99022036553094
C           15.75763735936359      -34.14700131504027       -3.91044932688674
H           15.44555945047909      -35.17137524471455       -4.04426174081351
C           15.62716709001940      -31.00881602949505       -0.27352619164584
H           15.24522836414940      -31.03010054070017        0.73588406842402
C           17.84185589685552      -27.73864526244310       -3.01515606130386
H           18.17349353150285      -26.72171223808320       -2.87225362621748
C           17.82715555759563      -30.82565013155523       -6.70430972362875
H           18.15506831688414      -30.79455612639349       -7.73199936915275
C           14.28044131567218      -33.52358299340532        0.82089567539645
H           13.85686809970951      -34.51669545380237        0.94872458948684
H           13.49497257691842      -32.78984416762810        1.00184498026654
H           15.05537434320338      -33.38197289840596        1.57511591316718
C           14.38961785325252      -35.65237737969066       -1.63274306255672
H           15.20400195410452      -36.33949535989630       -1.86387936213390
H           13.62905224497714      -35.75736080037305       -2.40667747287897
H           13.95247108637737      -35.94690284624168       -0.68181944105524
C           16.00126746451082      -28.56959121681063        1.55433425697557
H           16.18786133430854      -29.50809847626005        2.07458427788565
H           14.93938884878443      -28.33755955680988        1.64937235556199
H           16.57002721131943      -27.78103937942851        2.04311616459090
C           17.44556524317497      -26.39544895775417       -0.31381082528682
H           18.35760728348087      -26.05420743032869       -0.79027790962391
C           16.80621137481840      -25.57393032922437        0.51260391292087
H           15.87193397058603      -25.83986323925275        0.97513295467546
H           17.18480342126713      -24.58949435779662        0.73292046854193
C           19.24843269515145      -26.24256858854022       -5.29882345131019
H           19.74717733737736      -26.08536629614787       -4.34364562117974
H           18.47598510605010      -25.47897433374248       -5.40544605244145
H           19.97540293240661      -26.10978836079468       -6.09749843751710
C           19.15418750225624      -28.29622306196838       -7.76596767499677
H           19.55978558975352      -29.18354838644377       -8.23856553943055
C           19.14944456996552      -27.15276240552132       -8.44343137323906
H           18.71681341312195      -26.25194191563586       -8.04449670008601
H           19.55857730340636      -27.08558895666881       -9.43787947652361
C           17.53037975235316      -33.27869951224542       -8.50257599551185
H           18.60448202401394      -33.11708253715049       -8.59919307952985
H           17.02051140810553      -32.52417387556471       -9.10220728717298
H           17.29429368333013      -34.25771914447390       -8.91212059869077
C           16.16409076637562      -35.53646016637145       -6.60556743111954
H           16.68775513403897      -36.23361620835402       -5.95120917359295
H           16.41731444176031      -35.77710240374549       -7.63518045554753
H           15.09265315585266      -35.68740265109166       -6.47133406799205
O           14.78899239642771      -30.15319027694306       -4.27079891763125
H           15.06911702848683      -29.30413293782362       -4.62948144232537
H           14.67058219754970      -30.75088024893807       -5.01712049680778
C           22.07532607501381      -32.68258249977077       -3.23711337504600
H           22.25997323348751      -33.71994483374517       -2.95812096924419
H           22.79975278583143      -32.05576731009936       -2.71728492506647
H           22.22831380166669      -32.57739520268485       -4.30654433443675
N           20.21217955913875      -32.30494127478409       -1.60689102109880
H           20.73305972424873      -32.58304154827078       -0.79142190956639
C           20.68786055907067      -32.28237089598728       -2.89175813558023
C           18.92695032121205      -31.88590731154074       -1.63803642502655
H           18.30068155622390      -31.80234739697012       -0.77360547389752
N           18.56043632012994      -31.59991853694758       -2.86395421750248
C           19.64487826848177      -31.84168519654980       -3.65482127457518
H           19.60311905194326      -31.68350479400567       -4.71220020229014
