78
 energy: -115.975784990794 gnorm: 0.260367372414 xtb: 6.7.1 (edcfbbe)
Fe          16.90400000000000      -31.00000000000000       -3.50200000000000
N           15.85300000000000      -32.32200000000000       -2.34000000000000
N           16.82100000000000      -29.64600000000000       -1.95400000000000
N           17.84800000000000      -29.60800000000000       -4.64000000000000
N           16.88400000000000      -32.32800000000000       -5.04300000000000
C           15.50600000000000      -33.61000000000000       -2.70400000000000
C           14.88500000000000      -34.25500000000000       -1.57200000000000
C           14.85900000000000      -33.38200000000000       -0.56200000000000
C           15.46700000000000      -32.15200000000000       -1.02600000000000
C           16.27200000000000      -29.85600000000000       -0.70400000000000
C           16.45200000000000      -28.66400000000000        0.09100000000000
C           17.08700000000000      -27.76700000000000       -0.67600000000000
C           17.32600000000000      -28.36500000000000       -1.97400000000000
C           18.13900000000000      -28.30500000000000       -4.29800000000000
C           18.62600000000000      -27.60800000000000       -5.47100000000000
C           18.62100000000000      -28.48800000000000       -6.48000000000000
C           18.13100000000000      -29.75500000000000       -5.97700000000000
C           17.38000000000000      -32.06100000000000       -6.31600000000000
C           17.08700000000000      -33.16100000000000       -7.19500000000000
C           16.36700000000000      -34.17100000000000       -6.33300000000000
C           16.28500000000000      -33.58400000000000       -5.01900000000000
C           15.69600000000000      -34.18600000000000       -3.93700000000000
H           15.34800000000000      -35.21100000000000       -4.06600000000000
C           15.65500000000000      -31.00900000000000       -0.28400000000000
H           15.27700000000000      -31.01899999999999        0.73800000000000
C           17.96600000000000      -27.76800000000000       -3.03900000000000
H           18.37600000000000      -26.77300000000000       -2.87000000000000
C           18.00400000000000      -30.90800000000000       -6.71100000000000
H           18.44400000000000      -30.90500000000000       -7.70800000000000
C           14.29700000000000      -33.59600000000000        0.85500000000000
H           13.89100000000000      -34.62700000000000        0.94100000000000
H           13.47900000000000      -32.86900000000000        1.04800000000000
H           15.10700000000000      -33.46400000000000        1.60400000000000
C           14.38300000000000      -35.70700000000000       -1.57400000000000
H           15.00200000000000      -36.31199999999999       -2.27000000000000
H           13.32500000000000      -35.73800000000000       -1.91200000000000
H           14.46700000000000      -36.13500000000000       -0.55200000000000
C           15.97800000000000      -28.51200000000000        1.55300000000000
H           15.99800000000000      -29.50300000000000        2.05400000000000
H           14.93900000000000      -28.12000000000000        1.57200000000000
H           16.65500000000000      -27.81900000000000        2.09700000000000
C           17.50500000000000      -26.33700000000000       -0.30100000000000
H           18.47200000000000      -25.92900000000000       -0.63000000000000
C           16.69500000000000      -25.56300000000000        0.43500000000000
H           15.72200000000000      -25.94200000000000        0.77900000000000
H           16.99400000000000      -24.53900000000000        0.70400000000000
C           19.06500000000000      -26.13200000000000       -5.48800000000000
H           19.29700000000000      -25.80200000000000       -4.45300000000000
H           18.24500000000000      -25.50100000000000       -5.89200000000000
H           19.97500000000000      -26.01800000000000       -6.11500000000000
C           19.02800000000000      -28.29300000000000       -7.95300000000000
H           19.14500000000000      -29.16900000000000       -8.60800000000000
C           19.24900000000000      -27.09400000000000       -8.48000000000000
H           19.14500000000000      -26.18700000000000       -7.86700000000000
H           19.53800000000000      -26.99299999999999       -9.53600000000000
C           17.42400000000000      -33.29700000000000       -8.68800000000000
H           18.52500000000000      -33.24000000000000       -8.82600000000000
H           16.94600000000000      -32.47100000000000       -9.25700000000000
H           17.06400000000000      -34.27700000000000       -9.06600000000000
C           15.79100000000000      -35.52000000000000       -6.78200000000000
H           16.49400000000000      -36.33400000000000       -6.50400000000000
H           15.65500000000000      -35.52200000000000       -7.88500000000000
H           14.81700000000000      -35.69799999999999       -6.27900000000000
O           15.17500000000000      -30.14300000000000       -4.33100000000000
H           15.46800000000000      -29.36700000000000       -4.80800000000000
H           14.33700000000000      -30.43200000000000       -4.26100000000000
C           22.33600000000000      -32.17800000000000       -2.66700000000000
H           22.63200000000000      -33.19200000000000       -3.01300000000000
H           22.79900000000000      -31.98600000000000       -1.67500000000000
H           22.69300000000000      -31.42800000000000       -3.40400000000000
N           20.11800000000000      -32.92800000000000       -1.71500000000000
H           20.51900000000000      -33.60900000000000       -1.10200000000000
C           20.84300000000000      -32.10400000000000       -2.55200000000000
C           18.82900000000000      -32.67100000000000       -1.85700000000000
H           18.03500000000000      -33.17000000000000       -1.30400000000000
N           18.69100000000000      -31.72400000000000       -2.76800000000000
C           19.93500000000000      -31.36000000000000       -3.22400000000000
H           20.05600000000000      -30.60200000000000       -3.98800000000000
78
 energy: -116.027840146725 gnorm: 0.105306369348 xtb: 6.7.1 (edcfbbe)
Fe          16.91286276217697      -30.99833438639478       -3.48521312339860
N           15.85646481029207      -32.32467691323063       -2.34377822381198
N           16.82033323269203      -29.64098804024636       -1.95427136529201
N           17.82734461401656      -29.60460198670923       -4.65075607292145
N           16.88152721787159      -32.31856482836734       -5.03791940533442
C           15.50933317353372      -33.60290880581593       -2.70292345867352
C           14.88589870235054      -34.26821685247236       -1.57561378467790
C           14.85528056622340      -33.38127011598421       -0.55382008476648
C           15.46997174554451      -32.15927293794908       -1.03866244276404
C           16.27867928243938      -29.84607957761299       -0.71209205951160
C           16.45027243732455      -28.65794437926921        0.09945070577268
C           17.10146327748243      -27.74682540291749       -0.67157953300973
C           17.33755013168623      -28.37428115854039       -1.96253643446010
C           18.13706719580318      -28.31308765864625       -4.30798687688140
C           18.63881089619975      -27.60445908809922       -5.47115747377277
C           18.63713862961233      -28.49411567666329       -6.50421549000531
C           18.14052859095555      -29.75537303362609       -5.97563373655065
C           17.36465582776304      -32.08710425277234       -6.30368342830041
C           17.07133615711751      -33.19999162476902       -7.17008972144851
C           16.38405221546137      -34.14544975843712       -6.36325285065816
C           16.29934177062452      -33.56408296455749       -5.04623421239161
C           15.70490717600901      -34.17311455139783       -3.94814224632455
H           15.35251469163391      -35.19220022590788       -4.07664092122166
C           15.65777918088443      -31.00939463900156       -0.29196066935407
H           15.27986341486202      -31.02229894165709        0.72574641174951
C           17.96790617079104      -27.77419899787091       -3.03921856927102
H           18.35864593027572      -26.77545795025047       -2.87442340304126
C           18.00036094668964      -30.92067874818868       -6.70728144644708
H           18.41783994035055      -30.91223143619346       -7.70839416298309
C           14.30376586196816      -33.59135825433859        0.83961783547507
H           13.89865772851849      -34.60396825367285        0.93826981409453
H           13.49745947729732      -32.87858374860554        1.04490484976084
H           15.09173863754837      -33.45983692686347        1.59035686950038
C           14.38981182777300      -35.69558767683596       -1.57729887048037
H           14.99147570922985      -36.30600728931255       -2.25731885864131
H           13.34422422185933      -35.73804402377855       -1.90501866769570
H           14.46166196584261      -36.12679164579161       -0.57328826315620
C           15.98597148514270      -28.51712998826420        1.53507212732263
H           16.00028396232476      -29.48665568152429        2.04365367933636
H           14.96061194503463      -28.12942152826769        1.57012741999135
H           16.64108029631186      -27.82898826582635        2.08012428865336
C           17.48840527211676      -26.35420735128191       -0.30091313777408
H           18.44834558783182      -25.96435487823315       -0.63896323995879
C           16.69907861861165      -25.57375643208427        0.43164808180391
H           15.73320663326729      -25.92440602320909        0.77229981930643
H           16.98909474195970      -24.56149468529830        0.69864071192505
C           19.06254450894419      -26.15109897771024       -5.47563481144514
H           19.29040543490034      -25.80806790863972       -4.46277524577746
H           18.26277708738397      -25.51664240402472       -5.88010117840033
H           19.96220825692274      -26.02217311081620       -6.08705292020547
C           19.02603215326724      -28.28663066184504       -7.92900508069053
H           19.13381893257042      -29.16514733278457       -8.56392291595944
C           19.24546421431923      -27.09661020030726       -8.47775384537345
H           19.13623529574247      -26.18814979443019       -7.90629265234596
H           19.53379283982109      -26.99782171722590       -9.51918490266949
C           17.41370366473951      -33.30234939126368       -8.64525175731040
H           18.49891408560993      -33.24234188978171       -8.80873227931862
H           16.95167361362236      -32.49202434931918       -9.22728823269300
H           17.06821023022685      -34.25730521164545       -9.05336292829095
C           15.81058337646844      -35.48534974349349       -6.77921825140233
H           16.48604759130647      -36.30925058103136       -6.50836121548720
H           15.65858594254107      -35.51851658097825       -7.86315345295381
H           14.84555081189197      -35.67863980850751       -6.29247726507427
O           15.17971890658370      -30.13354440231533       -4.32755603161444
H           15.44339021790849      -29.35632359791502       -4.81962216241686
H           14.29030820265996      -30.42999235767972       -4.26937256796367
C           22.33558827790931      -32.18279676164335       -2.66401844408311
H           22.63916016472308      -33.17880108954496       -3.00692220014914
H           22.80231172193946      -31.98883923712931       -1.69157149360712
H           22.68657473052281      -31.44161803498960       -3.38662327259588
N           20.13724702024971      -32.92973389473738       -1.71173318605328
H           20.53630988956453      -33.61342728954777       -1.09319673845880
C           20.85204076582099      -32.11487362632411       -2.55493952307630
C           18.83361986762434      -32.66262745296125       -1.86797139729807
H           18.04653682718142      -33.15415881000612       -1.32079924375318
N           18.67834065647489      -31.72393083216842       -2.77544164434055
C           19.92456125313870      -31.36972233915881       -3.21645262180128
H           20.04713879611456      -30.61469302333729       -3.97084091710265
78
 energy: -116.042287194590 gnorm: 0.036584309573 xtb: 6.7.1 (edcfbbe)
Fe          16.91817749385616      -30.99671538434105       -3.47685142100665
N           15.86825566241253      -32.32595468780048       -2.34833694654151
N           16.83491004270590      -29.64762578883077       -1.95352316941503
N           17.82501464656018      -29.60844338563774       -4.65616604705502
N           16.88307124451761      -32.31186612933177       -5.03353240732180
C           15.51901998408028      -33.59369252315975       -2.70418123174383
C           14.89251760788190      -34.27307922750155       -1.58344589815272
C           14.85811489746415      -33.37734867544852       -0.55579579381883
C           15.47859212337654      -32.16308518802995       -1.05312328887051
C           16.28902872170499      -29.84532084756995       -0.72258199700910
C           16.44639638223242      -28.66068572500377        0.09752715433044
C           17.10999382920510      -27.74113319636603       -0.67375239295569
C           17.34948897642894      -28.38913026611280       -1.95739502039561
C           18.13581819856988      -28.32441534693249       -4.31323549672777
C           18.64748883568551      -27.60766331218226       -5.46278078369103
C           18.65014262103206      -28.49992315534569       -6.51368428498829
C           18.14656781342751      -29.75676315267229       -5.97208938790820
C           17.35622154780653      -32.09636678525872       -6.28996919591893
C           17.05940610859500      -33.22580538726128       -7.14641862581530
C           16.40229356824126      -34.12291003354164       -6.38211614730211
C           16.30998852769866      -33.54581447113900       -5.05733856683135
C           15.71352912756125      -34.15847074382393       -3.95665864231120
H           15.35488084662283      -35.17055374334992       -4.09005580959025
C           15.66298484034207      -31.01172806374699       -0.30222218568395
H           15.28171532740060      -31.02661812909236        0.71018949249897
C           17.96503589084617      -27.78165829062290       -3.04178263785567
H           18.33269130902266      -26.77654952987082       -2.88241238309754
C           17.99044332213788      -30.92626698936825       -6.70450460240118
H           18.37911039892102      -30.91629040550929       -7.71374355686472
C           14.31266985571096      -33.58207528705147        0.82000682365935
H           13.90765540928161      -34.58532515654741        0.92562511489227
H           13.51304556330796      -32.87468420240146        1.03268711569270
H           15.08861777928499      -33.44862516287988        1.57324456071201
C           14.39789438769810      -35.68206120985991       -1.58366804794587
H           14.98877185730445      -36.29978263669845       -2.25394440876714
H           13.35769146225772      -35.72994277928634       -1.90610500469921
H           14.45930556215409      -36.11252872191291       -0.58668321145207
C           15.99278158938856      -28.52252019552045        1.51313291666955
H           16.00969852656390      -29.48072745186079        2.02659893742391
H           14.97258423932068      -28.13980553890111        1.55972184377695
H           16.63549863506075      -27.83096453821296        2.05443785848252
C           17.47386644179678      -26.38265807203259       -0.30859407020504
H           18.42773931456660      -26.00846867213679       -0.66386047959982
C           16.70325698132655      -25.58783495980618        0.42605042168838
H           15.73662622445718      -25.90903450948663        0.76894826227363
H           16.99470881563458      -24.58487963895008        0.69138813470693
C           19.06342183596416      -26.17392457362987       -5.45994985962743
H           19.28080116712741      -25.82566256397120       -4.45522503898115
H           18.27427180802733      -25.53933802311111       -5.86857867681427
H           19.95868958918678      -26.03534581634071       -6.06300036955227
C           19.02599029251328      -28.28417073098383       -7.89322390041565
H           19.12741852350093      -29.17019296363133       -8.50835576674544
C           19.23906566361811      -27.10310347940315       -8.47296096950420
H           19.12417332823221      -26.17942683835108       -7.94358174670729
H           19.52582330757552      -27.01887136876140       -9.50757586160915
C           17.40475916128393      -33.30901119760614       -8.60395200838038
H           18.48246779182112      -33.24273380262516       -8.76547204168230
H           16.94479236937112      -32.49976287242887       -9.17555171983405
H           17.06525585839109      -34.25099005123776       -9.02837718307357
C           15.83020491372820      -35.45173366227046       -6.77741901264111
H           16.49673119252898      -36.27256708246084       -6.50247830396744
H           15.67120882540583      -35.50098114400706       -7.85234315701931
H           14.87157077020863      -35.63763313807026       -6.29244964765708
O           15.15880922051146      -30.11754134345296       -4.30577445838775
H           15.38151891806294      -29.35081438819633       -4.83982646159284
H           14.25077070534729      -30.41921674280428       -4.28745291157518
C           22.33484262403221      -32.18467020315632       -2.66367091735599
H           22.64748694207772      -33.17102891310230       -3.00245404346542
H           22.80196448259420      -31.98938634180032       -1.70045900471569
H           22.68229132035480      -31.44676123428163       -3.37756035989181
N           20.14903312389862      -32.93166604939983       -1.70972581546367
H           20.54571498694310      -33.61539165596671       -1.08601195995557
C           20.85572398364371      -32.12347784737640       -2.55940105718559
C           18.83619818666888      -32.65735079910198       -1.87586815034909
H           18.05442223231352      -33.14414173121555       -1.33186559317325
N           18.66713065079630      -31.72462395371488       -2.78105887548884
C           19.91484987632926      -31.37966625521506       -3.21338264650460
H           20.04328380648847      -30.62601593392791       -3.96099797354724
78
 energy: -116.046651894951 gnorm: 0.023140590906 xtb: 6.7.1 (edcfbbe)
Fe          16.91404899933942      -30.99380056816912       -3.47645596782474
N           15.87955528419018      -32.32535017365342       -2.35199275116758
N           16.84857739994520      -29.66072316823619       -1.95440262328485
N           17.82407694092463      -29.61314052846760       -4.65407780284597
N           16.88157585718452      -32.30304356406445       -5.02911348570815
C           15.52817956916206      -33.58947812448555       -2.70549508515498
C           14.90043098306912      -34.27056896554043       -1.58982945406549
C           14.86551731787389      -33.37387862434217       -0.56333966779680
C           15.48879882239833      -32.16427101328368       -1.05987693676643
C           16.29804785355247      -29.85506770397829       -0.72777450213931
C           16.44383607386391      -28.67115259049746        0.08906028238335
C           17.10684880935942      -27.75088139600868       -0.68153524216208
C           17.35672489459488      -28.40284278084221       -1.95834562539033
C           18.13673378713245      -28.33275763421009       -4.30767119435485
C           18.65228405998218      -27.61303490942847       -5.44659135240606
C           18.65616693451477      -28.50033574546017       -6.50301930852808
C           18.14874911644664      -29.75565914933480       -5.96622119405238
C           17.35805594846969      -32.08442974924284       -6.28135837361997
C           17.06866418695973      -33.21701018921234       -7.13872063378682
C           16.40305395348338      -34.11754027075227       -6.37247435884280
C           16.31129524544930      -33.53598442458574       -5.04868607463862
C           15.71683646466040      -34.15195982179822       -3.95712237596878
H           15.35122894736314      -35.15892743882873       -4.09911286823823
C           15.66969002918523      -31.01741582723119       -0.30646042842118
H           15.28123617509646      -31.03144882069657        0.70175668899071
C           17.96264301817693      -27.78798703737199       -3.04042848382735
H           18.30494682728829      -26.77308867182014       -2.88762876897266
C           17.98353688228236      -30.91923050000377       -6.70367430122142
H           18.34206821612027      -30.90687558053260       -7.72447419939518
C           14.31938557658999      -33.57007419884594        0.80925376640896
H           13.91236440045673      -34.57202306232676        0.91735222688201
H           13.52207251428266      -32.85852614728634        1.01769555342561
H           15.09519159428769      -33.43272959263756        1.56223167302913
C           14.40243117322829      -35.67553440156848       -1.59189706051098
H           14.99254833125188      -36.29861676372673       -2.25846782237993
H           13.36274160314287      -35.71979707524169       -1.91720476097077
H           14.45727351530840      -36.10290898228347       -0.59302010542306
C           15.99409743032597      -28.52959876726916        1.50074551260476
H           16.02333244614853      -29.48503641520990        2.01913921020954
H           14.97090211916554      -28.15505901156710        1.54905508038469
H           16.63332859613398      -27.82594356037324        2.03110297275126
C           17.46807661377381      -26.39771003657657       -0.32320655883520
H           18.41901253740514      -26.03323642320008       -0.69515851108593
C           16.71144993519843      -25.59519771052923        0.41923902036386
H           15.74060294495428      -25.90024465900009        0.76792049672584
H           17.01499144947058      -24.59624772724668        0.68150784822302
C           19.07207589498036      -26.18548842332833       -5.43429833265292
H           19.27406489295039      -25.84009196854993       -4.42508746794348
H           18.28826178623520      -25.55163470255285       -5.85431842350556
H           19.97607251119592      -26.04848342072734       -6.02445288655309
C           19.03023115800668      -28.28635089986068       -7.87595819332636
H           19.13998039960919      -29.18422306855062       -8.47203619033026
C           19.23161339822892      -27.11491334273090       -8.48323524865448
H           19.09054583568907      -26.16983382487164       -7.99125102689985
H           19.52034546858248      -27.05688338232340       -9.51871932086831
C           17.41123240379828      -33.30273814235275       -8.58768019325079
H           18.48836474325446      -33.23596207484837       -8.73745403449723
H           16.94385461221277      -32.49059566850145       -9.14511450484705
H           17.06900573199176      -34.24454879643287       -9.00858591144376
C           15.83710345551101      -35.44050149932961       -6.76861717680300
H           16.50840186419806      -36.25291570692428       -6.48676688365074
H           15.68434076970651      -35.48809953425511       -7.84400674968113
H           14.87815092103862      -35.61330695450725       -6.28422854567425
O           15.11526345482080      -30.08556069139268       -4.25922612561671
H           15.31297259157269      -29.36075654494149       -4.87233514344301
H           14.21300689981574      -30.42405278184613       -4.30815263402773
C           22.33482532327272      -32.18401109910225       -2.66477091705656
H           22.65732818193367      -33.16852950518211       -3.00126622460574
H           22.79987982399405      -31.98537889864336       -1.70092898091955
H           22.68048922714724      -31.44397320032089       -3.37732542425721
N           20.15061832064737      -32.93440256537839       -1.71057051374948
H           20.54740859430671      -33.61383358491302       -1.08166860256275
C           20.85490449752311      -32.12899910776007       -2.56463098227183
C           18.83632785808841      -32.65998219498994       -1.87952336184467
H           18.05553890259981      -33.14404757893294       -1.33328135204868
N           18.66320085472347      -31.73142819898221       -2.78823791074606
C           19.91156084138908      -31.38859198800908       -3.21937594721015
H           20.04381740178192      -30.63451114199008       -3.96511724165324
78
 energy: -116.048215481941 gnorm: 0.057140617444 xtb: 6.7.1 (edcfbbe)
Fe          16.90901995655270      -30.99119833284238       -3.46971968851236
N           15.89300699506621      -32.32409257744403       -2.35637201988318
N           16.86850037273138      -29.68243710061249       -1.95437107697746
N           17.81464745770302      -29.62011695766980       -4.64922574503219
N           16.86847668389299      -32.28267315384630       -5.01909294668080
C           15.53722521930083      -33.58531645396059       -2.70759132027919
C           14.90984872705425      -34.26723191750381       -1.59727886803959
C           14.87562050782400      -33.37087448469556       -0.57256442446724
C           15.50126278746128      -32.16593365457269       -1.06597474637137
C           16.30967623416345      -29.87066446342295       -0.73201068472957
C           16.43983090018242      -28.68614643053358        0.07780925568234
C           17.09999531942872      -27.76568865891912       -0.69232021920513
C           17.36215550643993      -28.42093730043896       -1.96078586294085
C           18.13489815321046      -28.34365760797695       -4.29855928008236
C           18.65470085134218      -27.62127580315936       -5.42587624450443
C           18.65708139606543      -28.50114716143072       -6.48666683471555
C           18.14232282305478      -29.75366703797667       -5.95865251862367
C           17.35195289986954      -32.06461848027285       -6.26811083021840
C           17.07525661535766      -33.20090403632150       -7.12502841283291
C           16.40758390282694      -34.10651475487862       -6.35580324165230
C           16.30816907760013      -33.51929556980975       -5.03561165927463
C           15.71640416169283      -34.14491709713002       -3.95857437244651
H           15.34685821416954      -35.14739184859109       -4.11210437255129
C           15.67772540072408      -31.02615709459798       -0.30787049450364
H           15.27962202297289      -31.03821443873021        0.69525407770560
C           17.95469328250221      -27.79471175162047       -3.03843062635350
H           18.26745398778483      -26.77026106454395       -2.89235505946454
C           17.96404199285776      -30.90699407045999       -6.70481854938558
H           18.29136441186218      -30.89608928417308       -7.73531730276821
C           14.32740051061866      -33.55407577515020        0.79932178243005
H           13.91640180508275      -34.55425620686066        0.91404855674098
H           13.53279834154205      -32.83502441074189        0.99824692281003
H           15.10437402061699      -33.41062495406953        1.55135349884200
C           14.40679852831293      -35.66956624883625       -1.60335688824642
H           14.99947262846573      -36.29715412454150       -2.26509557861673
H           13.36840614277163      -35.70773381561609       -1.93725915675400
H           14.45189175709993      -36.09413990809143       -0.60162222796679
C           15.99317413318752      -28.53926248868813        1.48811963623689
H           16.04412104500818      -29.49024495274291        2.01556520098431
H           14.96313287007562      -28.18155604683618        1.53751937107677
H           16.62524173854265      -27.81604522126271        2.00345635201521
C           17.46361463312541      -26.41279667898354       -0.34460385128328
H           18.41033307006514      -26.05869595531310       -0.73814580207644
C           16.72545212595878      -25.60129705154894        0.40766138389127
H           15.75613643158237      -25.89209728584367        0.77622378084207
H           17.04613520160538      -24.60507767668329        0.66081468364906
C           19.08363310720826      -26.19848061646618       -5.41321975878544
H           19.27718306866156      -25.85476842805068       -4.40024567619916
H           18.30599945303971      -25.56170987853169       -5.83984889481759
H           19.98985948114502      -26.06841801573161       -6.00239379996636
C           19.03580458212235      -28.29026631706873       -7.85716482254885
H           19.17596697825580      -29.19814017797826       -8.43330243116142
C           19.21469787211245      -27.12821494434873       -8.48700699515373
H           19.07861285281801      -26.17020062123773       -8.01875271877007
H           19.51101072176299      -27.09862073747404       -9.52311031525295
C           17.42201377959012      -33.29011801178911       -8.56757353987652
H           18.49910249314299      -33.22253710027302       -8.70862835278428
H           16.95117008427308      -32.47741636138523       -9.11924733225966
H           17.08062882341055      -34.23314445719080       -8.98701847216391
C           15.84944423347983      -35.42703955839801       -6.75385670623277
H           16.52170479929637      -36.23430452356651       -6.46218164579739
H           15.70690750904838      -35.47638714941885       -7.83116841592668
H           14.88694210417941      -35.59139067501926       -6.27581356459873
O           15.04758757756445      -30.02023653606009       -4.16484848723672
H           15.22293484192337      -29.39210906525248       -4.91933640159438
H           14.16918789823918      -30.44569320859976       -4.37375256030182
C           22.33650401903111      -32.18114254537536       -2.66674833271524