87
 energy: -124.426247745472 gnorm: 0.355983690733 xtb: 6.7.1 (edcfbbe)
Fe           3.30300000000000        2.86400000000000        6.30600000000000
N            4.23800000000000        2.63800000000000        8.04200000000000
N            4.79600000000000        4.02000000000000        5.65600000000000
N            2.38900000000000        3.08900000000000        4.58000000000000
N            1.81200000000000        1.73800000000000        6.95400000000000
C            3.85000000000000        1.87000000000000        9.11100000000000
C            4.81100000000000        1.96700000000000       10.19900000000000
C            5.78600000000000        2.81500000000000        9.78600000000000
C            5.41900000000000        3.25200000000000        8.44200000000000
C            5.81300000000000        4.55500000000000        6.39500000000000
C            6.58800000000000        5.48000000000000        5.60000000000000
C            6.10300000000000        5.42300000000000        4.37300000000000
C            4.96400000000000        4.51800000000000        4.38800000000000
C            2.91200000000000        3.60600000000000        3.38200000000000
C            1.96700000000000        3.48200000000000        2.30500000000000
C            0.81800000000000        2.94700000000000        2.83900000000000
C            1.10200000000000        2.66300000000000        4.22900000000000
C            0.61000000000000        1.46700000000000        6.32200000000000
C           -0.20600000000000        0.55700000000000        7.10800000000000
C            0.52400000000000        0.26000000000000        8.25800000000000
C            1.74700000000000        1.03400000000000        8.12800000000000
C            2.71700000000000        1.09200000000000        9.13200000000000
H            2.56100000000000        0.46500000000000       10.01000000000000
C            6.10400000000000        4.18200000000000        7.69800000000000
H            6.95300000000000        4.67100000000000        8.17600000000000
C            4.11700000000000        4.25500000000000        3.30800000000000
H            4.44200000000000        4.59400000000000        2.32400000000000
C            0.28400000000000        1.94900000000000        5.06300000000000
H           -0.72300000000000        1.73900000000000        4.70200000000000
C            4.67200000000000        1.29300000000000       11.52100000000000
H            4.61200000000000        0.25800000000000       11.12200000000000
H            3.64400000000000        1.65700000000000       11.73500000000000
H            5.27400000000000        1.28500000000000       12.45500000000000
C            7.05800000000000        3.21900000000000       10.46400000000000
H            6.86900000000000        4.31200000000000       10.52200000000000
H            7.70800000000000        3.01200000000000        9.58700000000000
H            7.56300000000000        2.89000000000000       11.39700000000000
C            0.21800000000000       -0.65700000000000        9.38100000000000
H            0.56100000000000       -0.97200000000000       10.39000000000000
H            0.13200000000000       -1.55500000000000        8.73300000000000
H           -0.77100000000000       -0.16000000000000        9.47500000000000
C           -1.55800000000000        0.05700000000000        6.71700000000000
H           -1.63300000000000       -0.96400000000000        6.31500000000000
C           -2.69000000000000        0.52500000000000        7.61700000000000
H           -2.67600000000000        1.53500000000000        8.05200000000000
H           -3.53500000000000       -0.14100000000000        7.84300000000000
C           -0.50200000000000        2.68200000000000        2.19300000000000
H           -1.09700000000000        3.20400000000000        2.97300000000000
H           -0.55000000000000        1.58700000000000        2.37600000000000
H           -0.92900000000000        2.92000000000000        1.19500000000000
C            2.29100000000000        3.70000000000000        0.84700000000000
H            3.29600000000000        3.39400000000000        0.57700000000000
C            1.39900000000000        4.69900000000000        0.12000000000000
H            0.39100000000000        4.92500000000000        0.49800000000000
H            1.75300000000000        5.20500000000000       -0.79000000000000
C            6.56100000000000        6.19200000000000        3.12900000000000
H            6.63200000000000        7.14400000000000        3.69700000000000
H            6.28800000000000        6.42000000000000        2.07600000000000
H            7.54500000000000        5.67800000000000        3.16300000000000
C            7.70200000000000        6.35600000000000        6.13800000000000
H            7.30200000000000        7.20900000000000        5.54800000000000
H            8.47400000000000        5.83200000000000        5.53500000000000
H            8.15200000000000        6.74600000000000        7.07600000000000
C            4.44400000000000       -2.27700000000000        4.47600000000000
H            4.91200000000000       -2.89700000000000        5.27000000000000
H            4.97500000000000       -2.45800000000000        3.51700000000000
H            3.37500000000000       -2.56400000000000        4.37800000000000
N            5.76200000000000       -0.21300000000000        5.04200000000000
H            6.65900000000000       -0.62700000000000        4.88700000000000
C            4.54700000000000       -0.83500000000000        4.84500000000000
C            5.50500000000000        1.05400000000000        5.48100000000000
H            6.28500000000000        1.77800000000000        5.71700000000000
N            4.19700000000000        1.26100000000000        5.57300000000000
C            3.59700000000000        0.06800000000000        5.17800000000000
H            2.51800000000000       -0.02100000000000        5.17300000000000
C            2.69400000000000        6.88400000000000        5.59500000000000
H            2.25000000000000        7.56200000000000        4.83500000000000
H            3.57000000000000        6.37100000000000        5.14400000000000
H            3.02300000000000        7.49300000000000        6.46400000000000
C            1.67500000000000        5.86500000000000        6.03800000000000
H            1.35100000000000        5.27000000000000        5.15800000000000
H            0.78800000000000        6.39300000000000        6.44700000000000
S            2.38100000000000        4.77000000000000        7.30100000000000
C            0.87400000000000        4.34600000000000        8.19400000000000
H            0.13900000000000        3.84400000000000        7.52900000000000
H            0.39800000000000        5.26400000000000        8.60100000000000
H            1.10600000000000        3.65500000000000        9.03200000000000
87
 energy: -124.573054962874 gnorm: 0.196407962575 xtb: 6.7.1 (edcfbbe)
Fe           3.29987944581401        2.86348708264780        6.30427231498072
N            4.24761481537609        2.63727619154006        8.05064957813396
N            4.79028155043282        4.01140672216144        5.65469679897520
N            2.38288568201554        3.08841738167711        4.55867662119761
N            1.80528502531924        1.73637575735536        6.95386890651159
C            3.85810319823932        1.86868914744453        9.11036471275024
C            4.81767507576474        1.97334618476871       10.19950953542966
C            5.78482949072019        2.81067306757510        9.78607338694783
C            5.41453174364198        3.24732051983022        8.44686609009811
C            5.79621547367961        4.54389867338951        6.40307435756385
C            6.56479525233042        5.47037955861232        5.62181375500090
C            6.06774737731198        5.41424945381282        4.36389170955576
C            4.95110804461721        4.50591016390352        4.39174242384545
C            2.91416350222979        3.59166681867586        3.38156468752324
C            1.97242952030606        3.47260092271561        2.28861309136933
C            0.83061177814219        2.95467603255856        2.82812197975689
C            1.11031434621640        2.66747124280394        4.22161510956321
C            0.61494457868315        1.46695859416617        6.32158971438934
C           -0.20250315914540        0.57103251193959        7.11499734335359
C            0.54981642415017        0.28211712353368        8.24319777038067
C            1.76308097804807        1.03989246508512        8.12236543139906
C            2.72211785356753        1.09001175895646        9.12975750784086
H            2.55609470412025        0.46983375653874       10.00527559323991
C            6.10047845679520        4.18059204199753        7.70264364007747
H            6.95115014861732        4.66824046679346        8.16962750892917
C            4.12197389101129        4.24642734597115        3.30859641616923
H            4.44064189245449        4.60056611916953        2.33230026331042
C            0.27942391740880        1.95368165199894        5.06490041618059
H           -0.72088027499118        1.73165598442262        4.70460182389137
C            4.63925986771857        1.27366828872149       11.50542705346278
H            4.59415626456296        0.23444697353379       11.15746186959260
H            3.63450543413585        1.62812004764270       11.76840750056293
H            5.27985315202669        1.31347703676507       12.40265614742177
C            7.06212169366812        3.24249762033032       10.43307026323444
H            6.90366579962395        4.32396175162500       10.52749867517258
H            7.74821907958512        3.03434600148287        9.60298333549830
H            7.51147376059934        2.87473347365400       11.37100361959372
C            0.17649841462204       -0.65678182780410        9.34984808792990
H            0.59039606012528       -0.92522162857288       10.34017226580247
H            0.09970076249331       -1.58108178830699        8.76073266978522
H           -0.81315240148256       -0.20900976933753        9.50510330409540
C           -1.57072763576182        0.05753635221220        6.81443096375225
H           -1.64343577148654       -0.92957615988048        6.32761463037390
C           -2.64935889397158        0.50348758970554        7.59348058336193
H           -2.65474475100726        1.50090832640701        8.03900124285574
H           -3.51940728254082       -0.12310910618058        7.80183284904424
C           -0.50926611095812        2.67047464087931        2.22730368154658
H           -1.13965472614794        3.18781575246903        2.96239210895832
H           -0.58675999499487        1.58433775606858        2.36910561095924
H           -0.87488765014901        2.92462724808232        1.21864576976727
C            2.26215655383318        3.78197195033532        0.86499856302257
H            3.25266597043687        3.42699625417804        0.56009219275358
C            1.43882100531948        4.66298429666971        0.14589261458462
H            0.43726701149821        4.91173399281200        0.50531327340328
H            1.75292573427902        5.16111368002919       -0.77455914632579
C            6.59286178767206        6.19744492988517        3.16694041093313
H            6.66701934777060        7.17349744616397        3.66432133641232
H            6.25414015969734        6.37638122274242        2.12962367642345
H            7.57834180431482        5.71472909539130        3.13285911359478
C            7.70119336168459        6.35818513248789        6.08758794590324
H            7.35476649283104        7.24868024002583        5.54645374050197
H            8.51217050174871        5.86906352378904        5.53161540193852
H            8.09683071174484        6.69455477832492        7.06368183428902
C            4.44598395681701       -2.27477856604907        4.47523851143645
H            4.90645033213649       -2.89419732331791        5.25814236284570
H            4.96729413026207       -2.46144524167048        3.52638282806611
H            3.39152820223129       -2.56027121217876        4.37685026054898
N            5.75715304315544       -0.21037078479099        5.04345387197306
H            6.65944517919871       -0.62464606763024        4.88736970660047
C            4.54816800496539       -0.83745262184706        4.85205424251452
C            5.49922768766336        1.05049000890774        5.47994636600564
H            6.27096916848475        1.76967988235806        5.71400438001589
N            4.20182412344328        1.25475334672896        5.57527042566261
C            3.59925976943559        0.07670487801036        5.18146653637442
H            2.52723044385189       -0.01500251969107        5.17290703509809
C            2.69648339821867        6.88845725033615        5.59348779337943
H            2.25808138303447        7.55727715556706        4.84143668993696
H            3.56195017502291        6.38166225034324        5.15054132537755
H            3.02448706225071        7.48786126498913        6.45248343287535
C            1.66709266520460        5.86975542624532        6.03048272142166
H            1.34995485429077        5.26887739021845        5.16695186569071
H            0.79114913327729        6.38439898795383        6.44992626079360
S            2.37445271544381        4.77420251424416        7.30426826322751
C            0.86076668633878        4.34513916015185        8.19568707023603
H            0.14526293344656        3.84562793464046        7.53177373647008
H            0.40413159014342        5.25781741288600        8.60014914769380
H            1.10922711531397        3.66460960921784        9.01946348718379
87
 energy: -124.646367890368 gnorm: 0.117683440249 xtb: 6.7.1 (edcfbbe)
Fe           3.29948200516197        2.86622343883816        6.30222140012855
N            4.25723461606407        2.63621570153328        8.05969913078473
N            4.78642012502808        4.00638775211641        5.65208366983922
N            2.37684981460331        3.08417439227221        4.53440895452957
N            1.79990115839406        1.73349707014265        6.95211559326354
C            3.86570524209361        1.86638235533336        9.10955449882179
C            4.82273467506759        1.97474020360074       10.20386748639753
C            5.78827361955021        2.80801824248295        9.78732555914171
C            5.41048217838866        3.24270507707460        8.44986231900382
C            5.78336985426812        4.54042508299360        6.40700652556009
C            6.55042621506770        5.46706745601084        5.63555380378893
C            6.04581878819218        5.41252428088112        4.35567754874093
C            4.94281267920551        4.50210689764569        4.39428797901016
C            2.91239550760903        3.57904686891164        3.38049945239589
C            1.96884243481949        3.46332039105120        2.27375683811401
C            0.83246855707049        2.95957613818652        2.82105058798407
C            1.11871078333655        2.66742164317385        4.21637626994189
C            0.61852502588608        1.47190658075288        6.32108872694376
C           -0.20130613192484        0.58634875375625        7.12011580833613
C            0.56345606743167        0.29850202645953        8.23428300431966
C            1.77538978261809        1.04140824239436        8.11813551170903
C            2.72766405413281        1.08688613594898        9.12782830673098
H            2.55065955078016        0.47442486052711       10.00068795618289
C            6.09746785418018        4.18097313104772        7.70657915725036
H            6.94924262639138        4.66617413696906        8.16259728763460
C            4.12431052164451        4.23830983006720        3.30630562923144
H            4.43714830606340        4.60672764821163        2.33842457001442
C            0.27616484549712        1.95963251570797        5.06617395352707
H           -0.71714256946798        1.72502479614445        4.70692588682174
C            4.60608748982335        1.25335251790522       11.49044377037269
H            4.57366687670180        0.20754999425857       11.19461806114608
H            3.62154575231752        1.59566149635503       11.80346567509983
H            5.29333973401320        1.34905381970103       12.34378202857685
C            7.06708349553687        3.26732780556427       10.40313960186355
H            6.94107725902595        4.34013776634385       10.53267972625938
H            7.79237837845073        3.06040085506203        9.61870951824728
H            7.44972978653816        2.85225350438905       11.34694548348325
C            0.13016312326104       -0.65652368837513        9.31475475914464
H            0.63119536660361       -0.86280208063277       10.28076233432144
H            0.06358242306014       -1.60637682081755        8.78383293512005
H           -0.85769255230894       -0.25909397219480        9.53364953792050
C           -1.58014046581798        0.05643620617028        6.90001155339209
H           -1.63900532440376       -0.90054061969633        6.35064202687362
C           -2.60298285965564        0.48453936216858        7.57510624902442
H           -2.62484786692684        1.46490306248380        8.04894365408129
H           -3.51102935513319       -0.09831984850564        7.74218242499195
C           -0.51861395254528        2.65682837084357        2.26044914704316
H           -1.18461622104582        3.16979881993569        2.95252624330407
H           -0.62547920067148        1.57805138219642        2.36362853961172
H           -0.80991608116537        2.93449011372733        1.23836847404628
C            2.23907382168098        3.84390085643754        0.87699427073167
H            3.22043948164354        3.47150663838676        0.54620049219222
C            1.47865979771482        4.63447984572026        0.18361976603735
H            0.48098536642443        4.91450609839139        0.52145096711212
H            1.75181808028115        5.10407627528957       -0.76252125781212
C            6.62429764495850        6.20125066143969        3.20987335502225
H            6.70422546199640        7.20110497883953        3.63606743266643
H            6.20526922651550        6.31919329184773        2.19271000630362
H            7.61246415002253        5.75179109075358        3.10758977897593
C            7.69733901945988        6.35824130663928        6.03270114963268
H            7.40708566434021        7.28531648561729        5.53936800015648
H            8.54807577261163        5.90457948029331        5.52387061699116
H            8.02396456844836        6.62843412897626        7.05528675753661
C            4.44798404834872       -2.27318788229807        4.47442801163457
H            4.90337340450284       -2.89333812463149        5.24898494242832
H            4.96231562861450       -2.46245523579742        3.53205662789447
H            3.40293522082263       -2.55546767731150        4.37532633912316
N            5.75346991334038       -0.20943216612019        5.04556031488785
H            6.65902280742952       -0.62275896484113        4.88858405648798
C            4.54959512735118       -0.84028540039474        4.85893082793289
C            5.49535886688338        1.04679233244355        5.47928490739439
H            6.25923561916881        1.76371137255408        5.71187062522795
N            4.20515228323333        1.24882621795891        5.57557780502342
C            3.60194087540333        0.08448653945204        5.18638009283653
H            2.53502873726933       -0.01108897960883        5.17281153055150
C            2.69737372402597        6.89341224788248        5.59088905474237
H            2.26403965969534        7.55633400625794        4.84418915128636
H            3.55576509520876        6.38907992619533        5.15587055582711
H            3.02479873337638        7.48357129464383        6.44456414536653
C            1.65931003440268        5.87504283900519        6.02367136522182
H            1.34899619977461        5.26721429772379        5.17450839765301
H            0.79285363612305        6.37820181041909        6.45380734082769
S            2.37207719570867        4.77716280222966        7.30686449507397
C            0.84805570299121        4.34475217135532        8.19697762652115
H            0.14915584331998        3.84685040942869        7.53191969761219
H            0.40757125267239        5.25399394185294        8.59999018465342
H            1.11385834142375        3.67192138584989        9.00860540817211
87
 energy: -124.682141305387 gnorm: 0.053100713667 xtb: 6.7.1 (edcfbbe)
Fe           3.30080533682710        2.86947936029733        6.30339577086676
N            4.26182799920058        2.63301223471002        8.06009901696562
N            4.78308055121654        4.00421917946016        5.65091831935365
N            2.37644684923073        3.07553942019601        4.52959643430886
N            1.80278239277745        1.73541590040012        6.95228338699043
C            3.87159689148248        1.86130613290934        9.10497366404726
C            4.82271474335278        1.96998740621236       10.20201311928973
C            5.79138343222492        2.80889327885358        9.78270430837748
C            5.40861944644423        3.24094148874712        8.44760177160419
C            5.77575147752023        4.54315569607690        6.40762249596560
C            6.54458567964904        5.46905308844846        5.63439072776388
C            6.04089194940134        5.41464210345298        4.35464545627007
C            4.93950119980370        4.50061351310748        4.39444684466929
C            2.91484421274091        3.56550714949202        3.38521700742224
C            1.96649989687597        3.45424511128857        2.28489075935937
C            0.82715543257882        2.95299342316057        2.82844153606330
C            1.12122549149488        2.66285378726761        4.22030713757734
C            0.62325454838342        1.48080312625575        6.32335576234108
C           -0.18758125725103        0.59645939244580        7.12493179751728
C            0.56381523630182        0.30567247736274        8.23471544912336
C            1.78316890682651        1.04004334744811        8.11678112862574
C            2.73445637161369        1.08246635108249        9.12436476429833
H            2.54667732773581        0.47813127642598        9.99851547797885
C            6.09320446617390        4.18250032628649        7.70662969782821
H            6.94827807859578        4.66435553226451        8.15546348305063
C            4.12487948794293        4.22789123538258        3.30577398786703
H            4.43008371191810        4.61375250860944        2.34353235294177
C            0.27476727067291        1.96356446626525        5.07037158279650
H           -0.71419436879027        1.71638193255756        4.71074602115255
C            4.58706889181256        1.23956071534484       11.47821873104099
H            4.55100709326309        0.17642287810048       11.23628165498285
H            3.60784872340069        1.55730473450070       11.84135608213323
H            5.31696863515665        1.38693612066165       12.28759930625230
C            7.06871345306510        3.28346903228836       10.38392346614722
H            6.98299049986434        4.35921000539278       10.53872556314893
H            7.84249775268954        3.09138378838004        9.63673514517089
H            7.38430594259808        2.82411261108986       11.33202795728301
C            0.10067553162201       -0.65376594620891        9.29133186420714
H            0.67713417589480       -0.79846413398421       10.22778992753021
H            0.02282603854091       -1.63151686832739        8.80878789772216
H           -0.90384906910668       -0.31522767899896        9.56096639997978
C           -1.54097559967919        0.03153246981047        6.93255924245210
H           -1.60576140824622       -0.90586239636973        6.37202350233854
C           -2.62246719624063        0.50138180801279        7.55915540417999
H           -2.60362040110398        1.44771178947703        8.09294203786204
H           -3.54508422366593       -0.06497469522590        7.67059051440794
C           -0.52444508872062        2.64619960613898        2.28164362145608
H           -1.23743646129483        3.14797627794410        2.94036950805160
H           -0.67168592585293        1.56811184319206        2.35779663051369
H           -0.73950486492705        2.94841729920927        1.24754331283655
C            2.26222814375826        3.87013765700318        0.91515724843052
H            3.22914067385374        3.51252129674403        0.55235738428596
C            1.46171923318764        4.62757017763605        0.16515599317198
H            0.49508078386925        4.95071798780201        0.53681100657505
H            1.73886238534029        5.05397857930539       -0.79165342446110
C            6.64263127737955        6.20173849948191        3.23674031141775
H            6.74522141526695        7.23017243012013        3.60074653239368
H            6.14633209455115        6.25666379198169        2.24678179736090
H            7.64852525310065        5.79480155178853        3.08137785609531
C            7.69361062015183        6.35425086322020        5.99779239468254
H            7.46841532893252        7.32265254063777        5.53377506264784
H            8.58544098700850        5.94369838862532        5.51353758836742
H            7.95010845180008        6.55608398765869        7.05863605207856
C            4.44979986610987       -2.27116688486610        4.47347299222681
H            4.90254023849488       -2.89730520362904        5.24207197843932
H            4.96045177825441       -2.46179078132966        3.53156514905968
H            3.40701089128410       -2.55114245371083        4.37198897410475
N            5.75265917055503       -0.21029984577580        5.04876791548663
H            6.65868882669679       -0.62138458060992        4.89010641985006
C            4.55031703348966       -0.84157901773565        4.86488234028268
C            5.49421225420150        1.04496622809590        5.48030521122947
H            6.25325148211218        1.76304388354805        5.71076394420127
N            4.20524348149114        1.24692981748399        5.57844125622916
C            3.60352517653902        0.08677420604884        5.19132868346483
H            2.53824544689060       -0.00822309915921        5.17256515702054
C            2.69477844309464        6.89714132151996        5.58935813616802
H            2.26806419623835        7.56119712167382        4.84269551176795
H            3.55329908787795        6.39385529977564        5.15856185490342
H            3.02560489877258        7.48383785980228        6.44154643618213
C            1.65460704236021        5.87945200635504        6.02130159439566
H            1.34505241790285        5.26381387185355        5.17987218636523
H            0.79014316082640        6.37457713613043        6.46010707679278
S            2.37057945601839        4.78127978447185        7.30727226358747
C            0.84190954131400        4.34630860639112        8.19525360852600
H            0.14884393834079        3.84654918246712        7.52838516687014
H            0.40735573432123        5.25421311378316        8.60226675542684
H            1.12077052659806        3.67516516851470        9.00080655225851
87
 energy: -124.695641750394 gnorm: 0.050406276865 xtb: 6.7.1 (edcfbbe)
Fe           3.30245023835261        2.87082201574598        6.30408360488787
N            4.26256495730593        2.62951377191171        8.05484590572465
N            4.78085032244921        4.01013300133887        5.64749635331351
N            2.37902080262451        3.06552938523027        4.52977239353557
N            1.80406818673829        1.73419671151400        6.95635995228354
C            3.87611851079553        1.85497952431141        9.09686243550463
C            4.82254540210507        1.96241131184882       10.19547090323401
C            5.79266478381678        2.81092697063815        9.77538379233692
C            5.40557112603297        3.24024403580446        8.44183589531902
C            5.77351903336543        4.55031397576399        6.40520508568778
C            6.54845569580572        5.47226561819753        5.62657532770327
C            6.04664093406212        5.41735589283628        4.34981014673012
C            4.93857844924016        4.50404829423802        4.38916893582284
C            2.91478354116829        3.55441405974856        3.38671140349182
C            1.95700557110708        3.45428154641434        2.29263924783361
C            0.81610337598044        2.94875062607651        2.83993331017872
C            1.12337263765115        2.65548687499465        4.22598168819418
C            0.62322650970785        1.48777556817664        6.32785269508466
C           -0.19077576854489        0.60839782538437        7.12874088671534
C            0.55408862918567        0.30231046403822        8.23481598837890
C            1.78262414705695        1.03509618847150        8.11995386071331
C            2.73827490224393        1.07668521554667        9.12126439908384
H            2.54553971831793        0.47929868581073        9.99801866985071
C            6.08904341330764        4.18539296878607        7.70333030523143
H            6.94666165027424        4.66351480881702        8.14912259138023
C            4.12285110519978        4.22091924060530        3.30285424494526
H            4.41958263026949        4.61931929133880        2.34408894738425
C            0.27313741742771        1.96476591172485        5.07566799793756
H           -0.71283780145589        1.70950004011561        4.71629255106971
C            4.58416733695880        1.23214291315724       11.46921936550170
H            4.54662190327996        0.15603573308147       11.27496215875875