87
 energy: -127.889565149035 gnorm: 0.285190859565 xtb: 6.7.1 (edcfbbe)
Fe          29.02700000000000       25.21800000000000       13.17400000000000
N           27.61900000000000       25.85300000000000       11.87300000000000
N           30.20200000000000       26.75300000000000       12.63500000000000
N           30.41200000000000       24.64500000000000       14.51400000000000
N           27.79900000000000       23.75700000000000       13.77600000000000
C           26.35400000000000       25.33400000000000       11.73400000000000
C           25.56800000000000       26.21400000000000       10.88000000000000
C           26.35300000000000       27.23800000000000       10.51700000000000
C           27.65800000000000       27.00700000000000       11.10600000000000
C           29.96200000000000       27.66000000000000       11.62500000000000
C           31.15400000000000       28.43700000000000       11.39900000000000
C           32.09100000000000       28.02900000000000       12.26100000000000
C           31.50200000000000       26.98300000000000       13.05500000000000
C           31.65800000000000       25.19100000000000       14.69000000000000
C           32.34100000000000       24.46700000000000       15.76000000000000
C           31.50900000000000       23.49600000000000       16.16600000000000
C           30.29600000000000       23.58100000000000       15.38500000000000
C           28.07800000000000       22.78000000000000       14.71300000000000
C           27.00200000000000       21.81700000000000       14.74900000000000
C           26.06700000000000       22.23200000000000       13.89100000000000
C           26.54900000000000       23.43500000000000       13.26200000000000
C           25.87300000000000       24.17200000000000       12.30300000000000
H           24.89800000000000       23.81100000000000       11.97700000000000
C           28.77200000000000       27.79300000000000       10.93500000000000
H           28.71200000000000       28.58900000000000       10.19200000000000
C           32.17100000000000       26.28600000000000       14.04300000000000
H           33.16700000000000       26.62700000000000       14.32500000000000
C           29.21300000000000       22.74100000000000       15.49200000000000
H           29.25700000000000       21.97300000000000       16.26500000000000
C           24.08599999999999       25.95600000000000       10.52900000000000
H           23.72000000000000       25.86000000000000       11.57300000000000
H           24.22700000000000       24.94000000000000       10.10200000000000
H           23.33400000000000       26.51700000000000        9.93400000000000
C           25.97900000000000       28.41700000000000        9.58700000000000
H           26.79100000000000       28.26500000000000        8.84500000000000
H           26.28300000000000       29.21700000000000       10.29500000000000
H           25.05300000000000       28.71600000000000        9.05100000000000
C           24.71800000000000       21.56300000000000       13.52300000000000
H           23.89300000000000       21.58500000000000       12.78000000000000
H           24.29600000000000       21.74299999999999       14.53500000000000
H           25.20800000000000       20.56600000000000       13.48800000000000
C           26.97400000000000       20.56200000000000       15.64800000000000
H           25.93200000000000       20.38900000000000       15.80500000000000
C           28.04500000000000       19.79600000000000       15.86000000000000
H           29.05300000000000       20.16900000000000       15.62700000000000
H           27.93300000000000       18.78200000000000       16.27100000000000
C           31.72600000000000       22.41600000000000       17.24600000000000
H           31.54900000000000       21.53000000000000       16.60000000000000
H           30.80100000000000       22.63300000000000       17.82100000000000
H           32.56200000000000       22.19300000000000       17.94200000000000
C           33.77800000000000       24.82300000000000       16.18700000000000
H           34.28000000000000       25.29600000000000       15.34300000000000
C           34.21200000000000       24.81500000000000       17.43100000000000
H           33.63600000000000       24.31000000000000       18.22000000000000
H           35.15600000000000       25.31300000000000       17.69600000000000
C           33.53900000000000       28.54900000000000       12.43200000000000
H           34.52000000000000       28.28400000000000       12.88100000000000
H           33.21700000000000       29.53600000000000       12.82700000000000
H           33.65000000000000       28.60000000000000       11.32800000000000
C           31.26800000000000       29.49900000000000       10.27200000000000
H           32.27400000000000       29.12700000000000        9.98200000000000
H           31.38600000000000       30.29500000000000       11.03800000000000
H           30.76300000000000       29.91000000000000        9.37200000000000
C           28.31500000000000       28.56200000000000       17.55200000000000
H           27.87800000000000       28.10200000000000       18.46400000000000
H           27.85100000000000       29.55900000000000       17.39300000000000
H           29.41100000000000       28.67200000000000       17.69400000000000
N           26.78800000000000       27.33500000000000       15.92400000000000
H           25.93500000000000       27.62700000000000       16.35500000000000
C           28.04300000000000       27.68200000000000       16.36800000000000
C           26.89200000000000       26.56700000000000       14.85500000000000
H           26.04900000000000       26.14400000000000       14.31000000000000
N           28.17300000000000       26.41700000000000       14.58400000000000
C           28.92800000000000       27.11000000000000       15.51400000000000
H           30.01000000000000       27.12700000000000       15.47500000000000
C           32.66400000000000       22.78500000000000        9.68700000000000
H           32.32900000000000       22.49200000000000        8.66900000000000
H           33.25800000000000       21.95400000000000       10.12400000000000
H           33.29000000000000       23.70000000000000        9.61100000000000
N           30.52000000000000       22.08200000000000       10.79400000000000
H           30.56100000000000       21.15000000000000       10.43300000000000
C           31.46000000000000       23.06200000000000       10.55300000000000
C           29.57100000000000       22.58100000000000       11.57300000000000
H           28.69700000000000       22.02800000000000       11.91400000000000
N           29.87700000000000       23.83599999999999       11.84800000000000
C           31.06800000000000       24.18000000000000       11.20000000000000
H           31.49900000000000       25.17000000000000       11.27000000000000
87
 energy: -128.001954599590 gnorm: 0.158193956337 xtb: 6.7.1 (edcfbbe)
Fe          29.01588151048743       25.21765770292242       13.17731037193655
N           27.60420696141028       25.86262715737728       11.87020282567406
N           30.20026589844234       26.73944979495818       12.63239761887772
N           30.42091964344392       24.63625153124433       14.51135170068331
N           27.79852315766770       23.75380386775107       13.77556938288482
C           26.34698580606759       25.34480278272762       11.72508776315000
C           25.55208865765490       26.21456767590115       10.86914941366198
C           26.34231074573311       27.23726165227617       10.49786019534837
C           27.64303021089503       27.00619863984387       11.10646293694384
C           29.95629915890803       27.64006228801934       11.62777587316062
C           31.13645328771144       28.41686221386522       11.38069003650153
C           32.08736674127355       28.00919361312451       12.26732432903712
C           31.48876366301946       26.97150666530843       13.05347491464405
C           31.65731301213366       25.18545128864854       14.70278518136289
C           32.36594979055088       24.46877873266196       15.75627053276224
C           31.52858343764646       23.49345927879822       16.17743598054382
C           30.31062384158259       23.59108647394707       15.39152333615262
C           28.08075929031678       22.78747834828775       14.70817928011552
C           27.00751349034782       21.82193162261711       14.75886878885231
C           26.06733789831513       22.24385187872993       13.86515261521501
C           26.56302414226302       23.44294096807717       13.25508417491255
C           25.87951475206881       24.17762496754021       12.30074685029294
H           24.90553142896204       23.81501169774037       11.98816124835213
C           28.76612006720362       27.78959858637643       10.93793762615478
H           28.71432186438855       28.58643440175492       10.20203966686790
C           32.16288857393298       26.28335401874602       14.04412746789431
H           33.15560440436563       26.62731178360456       14.31469284555279
C           29.21878228058491       22.74955733553914       15.49455578458922
H           29.25729306067592       21.98613950927868       16.26256727680801
C           24.09846957374383       25.92087338558652       10.55690050819229
H           23.67972237558121       25.83801516126142       11.56648626751518
H           24.18383186595083       24.92672306285940       10.10283287526471
H           23.40972718730498       26.52977313701968        9.94862316709895
C           26.02859710182352       28.42287501295571        9.60126924532546
H           26.79439850210202       28.30493379631833        8.82631641582578
H           26.28871274876737       29.25514837590591       10.26526455259661
H           25.07181463488386       28.65370221591013        9.10186019185207
C           24.74504858928048       21.53706014375435       13.56852400647629
H           23.97039149187363       21.63942929954922       12.78631827579017
H           24.25798010144342       21.69877713520187       14.53942686927594
H           25.15338416042726       20.52130064286187       13.50192745143715
C           26.97207607128868       20.57240101668634       15.59923110121036
H           25.93626628098369       20.36548399897780       15.81480755710713
C           28.03092228128781       19.80665079998385       15.85124608972231
H           29.03437877614474       20.14505467246332       15.61175837992115
H           27.93040573271298       18.81251651698508       16.28525144145690
C           31.68725164820034       22.41057117518604       17.22832791458364
H           31.54138882119765       21.50295613348901       16.62991656671271
H           30.80025699593034       22.59494394182666       17.84641766202482
H           32.55211244481203       22.24470400448458       17.88921026715901
C           33.74697778698307       24.84700123857928       16.18288070884841
H           34.28891646011937       25.29165356274432       15.35430624694778
C           34.20359322941461       24.81422239368443       17.42559385862715
H           33.64040603285616       24.32814743444214       18.21528157115237
H           35.14885766800968       25.28455291009220       17.69035372552559
C           33.50129828508104       28.57886307819815       12.39516128491297
H           34.43337137754893       28.23843113163708       12.88522757417871
H           33.25626449201792       29.56656860041390       12.80784540507714
H           33.70459859974290       28.65101906948189       11.31927025743544
C           31.31511957765126       29.49902135016657       10.31325385816038
H           32.30223568302408       29.18177872973684        9.95287941883863
H           31.42024832196805       30.34432494518071       11.00555553003938
H           30.73667363314921       29.83951627136829        9.43415378201843
C           28.30898577509194       28.56104659829266       17.55291186858604
H           27.88211546195179       28.11214493913539       18.45835916074581
H           27.85818992643706       29.54972749924189       17.40135835274456
H           29.39034796803005       28.67171668178415       17.69075542611160
N           26.78949292934793       27.34444088554334       15.93817887640004
H           25.92931480122365       27.63452558875667       16.36752291992952
C           28.04311071536668       27.69158497835412       16.37332191366738
C           26.90686218820915       26.56889546289216       14.85656949376765
H           26.07054980040281       26.14920794064942       14.31538979923011
N           28.18244524272737       26.40877916043178       14.57532763725885
C           28.91500805002565       27.10552833965000       15.50721411924235
H           29.99047533476772       27.12414312494949       15.47295241013655
C           32.66191818265712       22.78378174047143        9.68593265916719
H           32.33808169775386       22.49393408682509        8.67852641307937
H           33.25465825716356       21.96595827769563       10.11458103578823
H           33.28137594056584       23.68404342605200        9.61325092583953
N           30.52967091500120       22.08200536046583       10.78727594300909
H           30.56471604731825       21.14412572135566       10.42785460360709
C           31.46884256332950       23.05278259297004       10.54277596580100
C           29.57973006839488       22.59973598045632       11.57534768196416
H           28.71278649254996       22.04907835217840       11.91366006485981
N           29.87016229569763       23.85545172788819       11.84969329686617
C           31.05591568888791       24.16504055491951       11.20367040966975
H           31.48828834573779       25.14807015638015       11.27110297528407
87
 energy: -128.065229907060 gnorm: 0.062661383991 xtb: 6.7.1 (edcfbbe)
Fe          29.00904274816572       25.22110623347675       13.18123794631837
N           27.59032535641349       25.87215759138320       11.86928878508910
N           30.20291577810232       26.73029952645681       12.62471347272441
N           30.42959356417674       24.63004577740841       14.51336936784084
N           27.79901846799668       23.75034390084726       13.77303613906657
C           26.34073554125884       25.35526113411140       11.71880125092173
C           25.53670692169714       26.21548038732696       10.85984478529433
C           26.33325241723146       27.23907629301788       10.48175159812694
C           27.63090965830958       27.00336146771402       11.10808314600239
C           29.95717586777748       27.62339627100469       11.62179438614591
C           31.12606929932629       28.40920921455601       11.36282652787848
C           32.08778676563704       28.00134484613465       12.26892095562597
C           31.48302214047376       26.96299672690086       13.04469476001775
C           31.65851637117949       25.17723575290386       14.71157417317851
C           32.38105175504545       24.47049618597902       15.76042133420952
C           31.53686077153310       23.49007638441611       16.19359015802822
C           30.32213958607285       23.59877953338328       15.39449300502700
C           28.08473450578408       22.79296532365506       14.70012373484046
C           27.01464791084312       21.82278773520183       14.76218237976852
C           26.06570401621365       22.24834202798048       13.84604372770162
C           26.57461611508813       23.44440762934695       13.25029367291538
C           25.88508387830364       24.18341507944382       12.29969137350945
H           24.91210570127771       23.81943597410528       12.00064977281446
C           28.76065432862676       27.78493246076861       10.93784943422696
H           28.71447002770734       28.58456433255015       10.21213713796367
C           32.15783574053894       26.27758125502161       14.04113137059552
H           33.14535627472223       26.62698648754926       14.30446098164369
C           29.22372112988884       22.75760970634607       15.49436492333658
H           29.25529244163465       21.99788190101404       16.25902580301171
C           24.11129904130775       25.88891637218187       10.58034846211248
H           23.63940632073628       25.81488593551637       11.55873809848340
H           24.13793894873912       24.91041528522505       10.10371237571890
H           23.49126054839344       26.55068379668776        9.96003142511990
C           26.07506210265287       28.42480020637214        9.61459691408139
H           26.80090845533111       28.34731327152325        8.80731830224536
H           26.29635470043046       29.28986049841999       10.23685720696934
H           25.08669284345741       28.58277973832172        9.15592397064760
C           24.77644819282061       21.51450275013946       13.61411899605151
H           24.06223714252957       21.70621490103109       12.78986604218318
H           24.22611424253010       21.65614047112041       14.54566767860520
H           25.10502484897627       20.48081182491503       13.51795917146655
C           26.97050813543311       20.59853776879920       15.55878038392856
H           25.94756366741570       20.33578140125264       15.81933726756337
C           28.01436607258007       19.82246341539329       15.84407587450431
H           29.01933347655154       20.12130797498597       15.59067968881997
H           27.91813528775664       18.84625380356632       16.29919024012218
C           31.65268790957557       22.40656624641577       17.21151112073460
H           31.53223128117873       21.47589473198000       16.65844952671123
H           30.79908459430739       22.55683292403816       17.87138060372582
H           32.55067276786283       22.30480122329022       17.83341210807126
C           33.71644235730034       24.85672453591572       16.17676002565866
H           34.29728491646750       25.29693610221684       15.37328378534183
C           34.19584035637624       24.80672658956141       17.41617076695346
H           33.63857070332021       24.34878272305291       18.21465036059809
H           35.14264470113044       25.25489254703961       17.67824568264651
C           33.45964966882125       28.60757439319863       12.35965862842103
H           34.33167935739788       28.17813011465424       12.89289532363877
H           33.28811117635554       29.59659796026237       12.78799083560838
H           33.74846184344070       28.69804052647538       11.31228956402863
C           31.35967767761724       29.49593650835848       10.35647891457884
H           32.32858064159795       29.23246643081692        9.93118700979271
H           31.45357661434668       30.38771731698008       10.97727834181585
H           30.69970182367765       29.75402897648280        9.50473272706887
C           28.30517748022845       28.56058900922913       17.55295988361435
H           27.88297767125944       28.11862103612638       18.45379341755772
H           27.86183991240971       29.54448194478975       17.40803726068499
H           29.37710838347980       28.67253163674147       17.68930713285424
N           26.79123915176823       27.35149739998538       15.94821459047323
H           25.92511516655546       27.63875761756852       16.37438866953419
C           28.04489545917356       27.69883362038224       16.37599437737090
C           26.91943359531265       26.56965683920099       14.85939563246846
H           26.08839416086867       26.15366046782772       14.32095850427022
N           28.19032944867162       26.40021990465037       14.57034652701321
C           28.90441639012744       27.10020990126744       15.50080249763665
H           29.97575801952439       27.12398270643540       15.47397025338609
C           32.66026727531131       22.78419536319480        9.68584323923091
H           32.34539982679255       22.49484970697753        8.68416407504180
H           33.25373677772580       21.97396403712753       10.10774705965035
H           33.27588082665620       23.67507295720461        9.61546938062275
N           30.53427442604368       22.08346681699115       10.78418545137828
H           30.56259352817298       21.14108821687308       10.42779654259627
C           31.47449509875667       23.04649310246477       10.53509108929591
C           29.58529937059680       22.61735476806231       11.57653834443556
H           28.72547810127690       22.06791442661911       11.91357719626328
N           29.86835068451876       23.87216754373440       11.85018412746724
C           31.04351385263231       24.15417281960618       11.20508568180430
H           31.48412789269374       25.12932175074411       11.26817553750729
87
 energy: -128.089928512089 gnorm: 0.048752905607 xtb: 6.7.1 (edcfbbe)
Fe          29.00755118524694       25.22460750552068       13.18251651829436
N           27.58627180844913       25.87439032149400       11.87455543505317
N           30.20749311118477       26.72038294196681       12.61003401122981
N           30.43318928000963       24.62725441137926       14.50942101062526
N           27.80231532196676       23.74974755402627       13.76840020993776
C           26.34066643507096       25.35654239180638       11.72160028815709
C           25.53652486396335       26.20907648284194       10.85836512886318
C           26.33787506324190       27.23439398179626       10.47788562830117
C           27.63033657197618       26.99745163310999       11.11210137136653
C           29.96031784828289       27.61377962915182       11.60953872015329
C           31.12474480936313       28.41016009838672       11.35649930177993
C           32.08497998821601       28.00240077290169       12.26336941542470
C           31.48436527558604       26.95558426488081       13.03264963109640
C           31.65837368187785       25.17229546899857       14.70865368638732
C           32.37623522205072       24.46812210673781       15.76108041156688
C           31.52694047183566       23.48732908098720       16.19739085966144
C           30.32146396697971       23.60426641012049       15.39240308751976
C           28.09177695714506       22.79781289796611       14.69497998849349
C           27.02509102760656       21.82695545343870       14.76233784700123
C           26.06855492501171       22.24783175339295       13.84952339173960
C           26.57914054397377       23.44090866243973       13.24906009932704
C           25.88801336953761       24.18571778814801       12.30254208139270
H           24.91261442965314       23.82464365142222       12.01502530349879
C           28.75792904633411       27.77928183003318       10.93660408863019
H           28.71027605682931       28.58471739599362       10.22030044849454
C           32.15492641751632       26.27133998800077       14.03386081440451
H           33.13979618541354       26.62524730847670       14.29358565066019
C           29.22495109450762       22.76573388471521       15.49437250595743
H           29.25115995196952       22.01060947493581       16.26175313129468
C           24.11752690606172       25.87204169013674       10.58906583846343
H           23.59768077008735       25.79482455308804       11.54644062502261
H           24.08961372813604       24.89582303130418       10.10041634332159
H           23.56277193309110       26.58137012886439        9.96092136819870
C           26.10198840141194       28.42312942246154        9.62166294700578
H           26.80563508848418       28.38875777473605        8.78769536972210
H           26.30353652443337       29.32031104395222       10.20949658505446
H           25.09060879706789       28.51579076505429        9.20121800487524
C           24.79748220245935       21.50503773904522       13.64032916915858
H           24.14513517054642       21.77164293159335       12.78716241757328
H           24.19770184863985       21.61688891016064       14.54880962792839
H           25.05811459002810       20.44859203619973       13.53188418740594
C           26.97020878147908       20.60843640230354       15.53633788583172
H           25.96133290824316       20.30925972917046       15.81477865679147
C           28.00393754497854       19.82536848902766       15.83319675344293
H           29.01215426177106       20.09117402504301       15.55279898938748
H           27.89753627837040       18.87422158869211       16.33283522905301
C           31.63455926955689       22.40449027968381       17.20459667380216
H           31.52536363330982       21.44833873456740       16.68907438462350
H           30.80091429944866       22.51696672259623       17.90213916310238
H           32.56441534003864       22.36416938449619       17.78495545317955
C           33.70083055755586       24.86554462283536       16.18012536280699
H           34.30713445178494       25.30586946493106       15.39474672959497
C           34.18614422851102       24.80676376754508       17.41612866679011
H           33.62520543708927       24.36982836466854       18.22363003266460
H           35.15376826521523       25.21303930782224       17.66656694699343
C           33.43213148788807       28.62289610961594       12.34198949037685
H           34.23901474537666       28.11722124789103       12.90822835479409
H           33.31752026046087       29.62285086604200       12.76998559921037
H           33.79042509895852       28.73964245859808       11.31350813955988
C           31.37927059805581       29.49595725065585       10.38041354774018
H           32.34400364945654       29.28475822478219        9.90795130421675
H           31.48241081266990       30.42580392246670       10.94756479434203
H           30.65597715435273       29.68039735048402        9.56397015579107
C           28.30273862738994       28.56296228808375       17.55398867041631
H           27.87954628171453       28.12154138090396       18.45443803163706
H           27.86049678019757       29.54777898206167       17.41378173000768
H           29.37345286730666       28.67610825096282       17.69153567179337
N           26.79251435188379       27.35500087859029       15.95159359164915
H           25.92435518644115       27.64044700768245       16.37653412059269
C           28.04663099939691       27.70335410704481       16.37621224148429
C           26.92465844267071       26.56968596033327       14.86378972602552
H           26.09691470747071       26.15428342824352       14.32472989751691
N           28.19413065726214       26.39666697279844       14.57232930679434
C           28.90245508772752       27.09943656324618       15.50053995043195
H           29.97240850353825       27.12719203120958       15.47924189574597
C           32.66060455607893       22.78307254804497        9.68442369663673
H           32.35206164654787       22.49338639544717        8.68091680947519
H           33.25801347823762       21.97485357281935       10.10410606930075
H           33.27507133810447       23.67443010094856        9.61719859857050
N           30.53140111411284       22.08553628787475       10.78468663019959
H           30.55443284669497       21.14097066967564       10.43240914512293
C           31.47493037532901       23.04382486748822       10.53127768835017
C           29.58547799933032       22.62880530730551       11.57610844835581
H           28.72859234901664       22.08322413583042       11.91721345011845
N           29.87024543998879       23.88372002079060       11.84428606726107
C           31.04229315375222       24.15233083440881       11.20062776983513
H           31.49364327398718       25.12059392262037       11.25899592854035
87
 energy: -128.098862696619 gnorm: 0.037365317115 xtb: 6.7.1 (edcfbbe)
Fe          29.00892556221468       25.22611971512100       13.18060690962833
N           27.58910215574068       25.87001834703589       11.88283872490835
N           30.21472946371108       26.71067245518472       12.59148377833974
N           30.43252462268220       24.62652022776478       14.50180060526181
N           27.80540809613943       23.74702176073983       13.76255424799082
C           26.34367973809229       25.35254589965067       11.72893845799260
C           25.54292579322844       26.19856545005715       10.86052402304709
C           26.34880058461976       27.22484402752317       10.47891711724985
C           27.63542310247222       26.98856379138787       11.11703015091572
C           29.96516586550425       27.60923805472842       11.59558474138416
C           31.12758851137047       28.41682274013697       11.35366687744153
C           32.08263602962375       28.00904079697507       12.25612375359925
C           31.49036452946956       26.94822793454025       13.01794233452232
C           31.65643604635942       25.17090753162144       14.70365389331191
C           32.36341436913543       24.47093988434779       15.76561900852690
C           31.51087135392204       23.49028284890109       16.19989977132464
C           30.31570124708399       23.60932630124814       15.38988514734854
C           28.09842570269559       22.79757139779401       14.69023540481512
C           27.03567569006332       21.82625941935294       14.75996226519458
C           26.07226163658244       22.24142242871866       13.85950789691742
C           26.57799867854764       23.43535344423911       13.25179609865954
C           25.88720747313949       24.18605413275377       12.31090127234228
H           24.90667031200729       23.83285308608309       12.03343405436888
C           28.75802236723572       27.77349603696186       10.93485222693871
H           28.70184853099458       28.58530252414085       10.22698975104949
C           32.15494425430328       26.26454930361254       14.02251688762145
H           33.13865390699963       26.62085442027765       14.28128436858117
C           29.22390363473841       22.77029667189679       15.49506426806547
H           29.24622382230458       22.02058865557350       16.26770744048013
C           24.12189701282314       25.87160437185228       10.58320556886696
H           23.56905171588017       25.79490255919443       11.52416248069826