81
 energy: -118.299116156649 gnorm: 0.249059527292 xtb: 6.7.1 (edcfbbe)
Fe          -3.07400000000000       11.19200000000000       48.37599999999999
N           -4.25900000000000       11.26400000000000       50.01799999999999
N           -2.63600000000000        9.26300000000000       48.81399999999999
N           -1.85500000000000       11.04800000000000       46.73800000000000
N           -3.47100000000000       13.10000000000000       47.93900000000000
C           -5.13300000000000       12.27200000000000       50.32800000000000
C           -5.89500000000000       11.88200000000000       51.50599999999999
C           -5.47400000000000       10.68200000000000       51.87800000000000
C           -4.43700000000000       10.26700000000000       50.94499999999999
C           -2.96800000000000        8.59800000000000       49.96700000000000
C           -2.40000000000000        7.26000000000000       49.91300000000000
C           -1.75700000000000        7.12700000000000       48.75099999999999
C           -1.89300000000000        8.39200000000000       48.04100000000000
C           -1.26400000000000        9.90900000000000       46.23900000000000
C           -0.55800000000000       10.24600000000000       45.02000000000000
C           -0.71700000000000       11.56500000000000       44.82800000000000
C           -1.53700000000000       12.09200000000000       45.90300000000000
C           -2.78600000000000       13.87200000000000       47.02600000000000
C           -3.18900000000000       15.25300000000000       47.21399999999999
C           -4.23100000000000       15.25400000000000       48.30600000000000
C           -4.35300000000000       13.88600000000000       48.68899999999999
C           -5.22400000000000       13.44200000000000       49.65300000000000
H           -6.06500000000000       14.09100000000000       49.89700000000000
C           -3.73700000000000        9.10000000000000       50.98500000000000
H           -3.79300000000000        8.51600000000000       51.90300000000000
C           -1.36700000000000        8.65400000000000       46.80700000000000
H           -1.00100000000000        7.80700000000000       46.22599999999999
C           -1.90000000000000       13.41100000000000       46.09000000000000
H           -1.44000000000000       14.15100000000000       45.43400000000000
C           -5.96900000000000        9.84700000000000       53.08200000000000
H           -6.97000000000000       10.21100000000000       53.39900000000000
H           -5.26100000000000        9.95600000000000       53.93100000000000
H           -6.05000000000000        8.77800000000000       52.79000000000000
C           -6.96700000000000       12.74600000000000       52.19899999999999
H           -7.96100000000000       12.53400000000000       51.75100000000000
H           -6.73000000000000       13.82200000000000       52.05799999999999
H           -7.00200000000000       12.50400000000000       53.28300000000000
C           -2.53100000000000        6.22700000000000       51.03999999999999
H           -3.38500000000000        6.50000000000000       51.69599999999999
H           -1.60100000000000        6.21400000000000       51.64699999999999
H           -2.71600000000000        5.22100000000000       50.60700000000000
C           -0.97800000000000        5.93200000000000       48.18900000000000
H           -0.55800000000000        6.01400000000000       47.17600000000000
C           -0.76000000000000        4.78400000000000       48.82699999999999
H           -1.14900000000000        4.62800000000000       49.84400000000000
H           -0.18800000000000        3.97700000000000       48.34499999999999
C            0.23800000000000        9.22800000000000       44.16199999999999
H           -0.29700000000000        9.05200000000000       43.20399999999999
H            0.32500000000000        8.26400000000000       44.70799999999999
H            1.24900000000000        9.63200000000000       43.94199999999999
C           -0.15700000000000       12.46200000000000       43.71000000000000
H           -0.23800000000000       13.55700000000000       43.76899999999999
C            0.43000000000000       11.92200000000000       42.66200000000000
H            0.52500000000000       10.82900000000000       42.57699999999999
H            0.83300000000000       12.55700000000000       41.85900000000000
C           -2.68500000000000       16.49900000000000       46.46800000000000
H           -2.89700000000000       16.39300000000000       45.38300000000000
H           -1.58800000000000       16.60500000000000       46.61200000000000
H           -3.20700000000000       17.40200000000000       46.85000000000000
C           -4.98100000000000       16.46500000000000       48.92800000000000
H           -5.91400000000000       16.65600000000000       48.35699999999999
H           -4.33800000000000       17.37000000000000       48.88100000000000
H           -5.24400000000000       16.24100000000000       49.98400000000000
C           -6.45100000000000        8.80500000000000       44.53300000000000
H           -6.61600000000000        9.41000000000000       43.61600000000000
H           -7.42200000000000        8.37900000000000       44.86399999999999
H           -5.73700000000000        7.98600000000000       44.29999999999999
N           -6.55900000000000       10.77500000000000       46.08899999999999
H           -7.45900000000000       11.08000000000000       45.77800000000000
C           -5.89100000000000        9.67000000000000       45.60400000000000
C           -5.81700000000000       11.35000000000000       47.01900000000000
H           -6.10700000000000       12.24100000000000       47.57500000000000
N           -4.68800000000000       10.66100000000000       47.14600000000000
C           -4.72700000000000        9.59500000000000       46.28999999999999
H           -3.91800000000000        8.87700000000000       46.24800000000000
C           -1.45100000000000       13.32800000000000       50.56999999999999
H           -2.49900000000000       13.68200000000000       50.47100000000000
H           -0.78000000000000       14.14300000000000       50.22399999999999
H           -1.25600000000000       13.12900000000000       51.64500000000000
S           -1.16600000000000       11.81900000000000       49.58900000000000
H           -1.47500000000000       12.37600000000000       48.42700000000000
81
 energy: -118.353535145785 gnorm: 0.106422962803 xtb: 6.7.1 (edcfbbe)
Fe          -3.08621899317049       11.16460611137442       48.37044239611080
N           -4.27011091685142       11.25667325073204       50.00937412788951
N           -2.63272094895753        9.24858390997125       48.80963888109141
N           -1.86773258059954       11.04972566068754       46.72914472171843
N           -3.47153694034610       13.09577697416065       47.95833662334557
C           -5.14201436877271       12.25946635207272       50.32284842299036
C           -5.90629300081364       11.89128353665439       51.50708217540026
C           -5.46823792902939       10.67584364518804       51.89209577932479
C           -4.43409697338912       10.27895694417241       50.94712864175022
C           -2.94896297533540        8.58952623928954       49.96079147781737
C           -2.39211187963604        7.24831111543449       49.92568808607731
C           -1.74907924727852        7.10758173011172       48.73676052162988
C           -1.90128657899742        8.38311709662124       48.04200539701254
C           -1.28402727861381        9.92208202730457       46.22123897746661
C           -0.55756728340764       10.24812796154942       45.01055195804615
C           -0.70707861988729       11.59084778900738       44.81807925707135
C           -1.53453491527255       12.09261141276976       45.90696209667637
C           -2.80825513465536       13.89014843337909       47.05730684093112
C           -3.21851695435044       15.26680111371735       47.23988874457897
C           -4.20732130299545       15.26272246296475       48.26426705752059
C           -4.34389043508170       13.89697565557920       48.66299879784113
C           -5.22497357408273       13.44997151264390       49.64452931060744
H           -6.04114205387576       14.11270971636931       49.91416942405907
C           -3.72936917443425        9.09651342054325       50.98413358255776
H           -3.81272838525089        8.50424958601999       51.88891848167244
C           -1.37241784937198        8.66295440016870       46.80010475980539
H           -0.97815887784778        7.82447627665273       46.23596902406361
C           -1.90915266739212       13.41672663497601       46.10475482330482
H           -1.46314342760497       14.14966829666641       45.43997722813292
C           -5.95981003329646        9.85394666827429       53.06727033249340
H           -6.94719455162793       10.20375894605199       53.38810600650212
H           -5.26925208472034        9.95020029110691       53.91312884859735
H           -6.04234838658702        8.79738772373372       52.79346978122594
C           -6.95836154515570       12.74106028547696       52.18596359041402
H           -7.94657100897035       12.53914194396206       51.75532604082684
H           -6.73436290700365       13.80451051661339       52.06099136465638
H           -6.99719190675154       12.51264090194718       53.25644276159617
C           -2.53855341915794        6.24036034659371       51.03803730082262
H           -3.37423475123581        6.49996711227067       51.69283975648754
H           -1.61958968814666        6.21077773824314       51.63633103474483
H           -2.73197852441430        5.24612802370816       50.62455588696728
C           -0.99268042912101        5.94459436955722       48.19731770393801
H           -0.57956373371949        6.04286656368793       47.19418983310258
C           -0.76066530188422        4.79501721886479       48.82565169257302
H           -1.11764163453621        4.61423405690180       49.82789532633307
H           -0.19925337712482        3.99656252583410       48.35048529765467
C            0.22247818281099        9.23839124649323       44.18234928946825
H           -0.29182888531797        9.05008916446935       43.23008930604559
H            0.32054770541859        8.28400659471922       44.70680187269030
H            1.22943128527315        9.61528080891247       43.96663353192046
C           -0.16112700166160       12.44198644065685       43.72383611156673
H           -0.25283908292026       13.52409360408270       43.80000140571671
C            0.43036378389173       11.92641120305443       42.65499574448577
H            0.52714806487470       10.86044071152084       42.53725458827407
H            0.82945189879049       12.55467712426583       41.86648753850015
C           -2.70059481204878       16.47397775595290       46.48583994318479
H           -2.89679228288749       16.38545901751468       45.40879213159548
H           -1.61615243624253       16.59495092546980       46.61574556507493
H           -3.19662396714856       17.38101110008645       46.84488319127099
C           -4.95360933694765       16.43585055360684       48.89575259742021
H           -5.88844228042829       16.64545604359948       48.35776222414927
H           -4.34383582435571       17.34557723231698       48.87528139341953
H           -5.21934429155421       16.23305237325152       49.94252883077450
C           -6.45585128515465        8.80517222979443       44.52961193731244
H           -6.62028337639495        9.39418017344374       43.61969720258588
H           -7.41235279093599        8.37555560453797       44.84823063332569
H           -5.75415990775746        7.99791372329691       44.30348526895332
N           -6.56286930013773       10.76720394058924       46.07946496469910
H           -7.46657157912999       11.07772860141485       45.76784296648071
C           -5.89752918178246        9.66639720958690       45.60050824511083
C           -5.80339483490586       11.34028003790806       47.02153905580462
H           -6.08712138595912       12.22335456254467       47.56974178353409
N           -4.68617271210869       10.65723599138528       47.17151969638817
C           -4.72943306878921        9.60909768341174       46.29770691285426
H           -3.92589607350783        8.89720918467832       46.25086853205501
C           -1.45549971146315       13.34495461168044       50.58004914714219
H           -2.49388139309525       13.67109606698725       50.46822874208324
H           -0.78283261828124       14.13499164040734       50.23195096932787
H           -1.25564813537460       13.12747866106114       51.63219094696972
S           -1.14144443108077       11.83213403247657       49.61743011105163
H           -1.43035438293206       12.38810964521111       48.44370744333327
81
 energy: -118.370503234466 gnorm: 0.032776037680 xtb: 6.7.1 (edcfbbe)
Fe          -3.10269247473579       11.14373762696536       48.36276165140428
N           -4.28248323475999       11.24710696564273       49.99442754087126
N           -2.63800304218565        9.23856394876552       48.80106315089341
N           -1.88905417934911       11.05198035661373       46.72004344694917
N           -3.47744207088872       13.09307722532996       47.97097174555102
C           -5.14879627563761       12.24697704055453       50.31092248659925
C           -5.91030434803225       11.89606746355703       51.49843173292523
C           -5.45878899713263       10.67364113238804       51.89470403780952
C           -4.43518333864989       10.28498641345806       50.93937711510936
C           -2.94151100868298        8.58466075319329       49.95177340092177
C           -2.38927126608634        7.24608838989548       49.93502072000950
C           -1.74721068789813        7.09846730068619       48.72841977393122
C           -1.91345190648015        8.37829637764293       48.04110610467882
C           -1.30890244470503        9.93347754843958       46.21003088318587
C           -0.56988434017045       10.24844034351748       45.00834456840894
C           -0.70679807446468       11.60744955022892       44.81452941637676
C           -1.54149637125960       12.09245458302622       45.91093190995191
C           -2.82385467681598       13.89562380496006       47.07834098499236
C           -3.24579557242318       15.27071596978804       47.25783539725543
C           -4.18980492704784       15.26639369296205       48.23028855214405
C           -4.33762962018811       13.89800290890566       48.65107262203288
C           -5.21934488353940       13.45730484247071       49.64329876979505
H           -6.00374921731935       14.14076685822083       49.94558452095384
C           -3.73269809725275        9.09171786626374       50.97501065749034
H           -3.84262210562903        8.49109133198453       51.86743732346745
C           -1.37709702236785        8.67373126977702       46.79831256696306
H           -0.94331177519750        7.84671020867028       46.25177823406894
C           -1.92258357745530       13.41788683431062       46.11763995955905
H           -1.49363341838933       14.14957538532025       45.44638041509078
C           -5.94381696824740        9.86296413719878       53.05140030754082
H           -6.92482690301981       10.20609383675308       53.37291311368276
H           -5.26321486775652        9.94628623602682       53.89886127206405
H           -6.02767021841107        8.81222425299817       52.78535990567207
C           -6.94781049870284       12.73538748838888       52.16863419612629
H           -7.93551694978860       12.54216393654174       51.74853030452017
H           -6.73158332364877       13.79370541359811       52.05345293163412
H           -6.98822153947164       12.51372528212339       53.23297047523576
C           -2.54439708072027        6.25322792559372       51.03473273071192
H           -3.36712805809364        6.51473740149879       51.69172486851280
H           -1.63149587560224        6.20623422005611       51.62984331654684
H           -2.74676166309145        5.26426236606915       50.63199727699919
C           -1.01071937943747        5.96682802023263       48.20800505030768
H           -0.61157459716354        6.07875917970259       47.20684105878301
C           -0.76085835508455        4.81189050198660       48.82519603819952
H           -1.09026648552304        4.60224463099174       49.82227156636591
H           -0.20557475194156        4.02328621427924       48.34497899024940
C            0.20362546194284        9.25203437541461       44.20459540985920
H           -0.29531797164169        9.05332665202931       43.25356313355074
H            0.30417047868124        8.30537255180616       44.72611650419776
H            1.20853160444833        9.61754181483020       43.99275541093906
C           -0.16759474939401       12.41801369833697       43.74631354619343
H           -0.26847324651010       13.49197407272242       43.84222558556589
C            0.42640170486788       11.93570325607473       42.65376408208802
H            0.53165468239142       10.88434705662049       42.49356109178044
H            0.81821775194596       12.57329046737712       41.88093804811414
C           -2.71617303308153       16.44995325348201       46.50280557116631
H           -2.90615112675570       16.35795537098632       45.43213654453920
H           -1.63809341531908       16.56451202529324       46.63115671974865
H           -3.19589592668792       17.36287956383196       46.84801321887021
C           -4.92778292031284       16.41375833178230       48.85916484964225
H           -5.86408500100000       16.62401877685182       48.33649538135811
H           -4.33055886392755       17.32322669093008       48.84913965193229
H           -5.18180208148286       16.20424690430396       49.89967146029866
C           -6.45663244824698        8.80396907015454       44.52707611679025
H           -6.62241914710870        9.38432268008250       43.62096709196570
H           -7.40664931426085        8.37275284645841       44.83761848880317
H           -5.76258822396428        8.00161647282865       44.30538626016798
N           -6.56286774877806       10.76236165958012       46.07515807506936
H           -7.46674955876904       11.07959716899837       45.76310963493163
C           -5.89917036104391        9.66321706813583       45.60013819951861
C           -5.79308259318500       11.32842649497793       47.02963911376439
H           -6.07125612635237       12.20780277507958       47.57225881682081
N           -4.68174574552047       10.65281148313415       47.18944541568108
C           -4.73169933591779        9.61405487896178       46.30787954282309
H           -3.93072489853636        8.90697387017951       46.25071175506291
C           -1.45700387137342       13.35734343135637       50.59497640330802
H           -2.49153531214344       13.65649873301251       50.46543957661821
H           -0.78706686699729       14.13649664085746       50.24754944043135
H           -1.25981259442278       13.13265720936820       51.63554087781942
S           -1.10757715688355       11.83916434601703       49.64597665051194
H           -1.34225557421095       12.39976327056457       48.45715923752473
81
 energy: -118.376140931696 gnorm: 0.021274227403 xtb: 6.7.1 (edcfbbe)
Fe          -3.10418035362878       11.13944049438613       48.36374914021984
N           -4.29305001223327       11.23980419488426       49.97805811166577
N           -2.65137609404421        9.23613761300328       48.79547851609382
N           -1.91224712242547       11.05120708003492       46.71592050693767
N           -3.47911405183941       13.08821027602411       47.97638065130126
C           -5.15272800224290       12.24146334468219       50.30011870681047
C           -5.90820284899785       11.89624329176160       51.48787226758919
C           -5.45418382943450       10.67494903428578       51.88642326533174
C           -4.44202296674799       10.28277744592178       50.92684403692959
C           -2.95097322417481        8.58374580459219       49.94711978139190
C           -2.39637869286354        7.25105138042097       49.93931736388306
C           -1.75484697019996        7.10144274905644       48.73103177247896
C           -1.92504936919582        8.37746268693119       48.04039343309504
C           -1.33164372132241        9.93372501719279       46.20953149322759
C           -0.58973486071490       10.24417238702023       45.01439864273542
C           -0.72094896358174       11.60375518068201       44.81636748110042
C           -1.55728892002160       12.08764677824523       45.90984932048160
C           -2.82667497533958       13.88366079042443       47.07901070441227
C           -3.24435582797498       15.26050230923327       47.24984600690618
C           -4.19681200509411       15.25945381664453       48.22280237755073
C           -4.34088526671059       13.89044888091399       48.65273436539591
C           -5.21478739418822       13.46142103243340       49.64886184776459
H           -5.96708616338451       14.16812251965143       49.98617003277669
C           -3.74753212833352        9.08688625259193       50.96507252088919
H           -3.88014678126168        8.47628056131863       51.84756068968263
C           -1.38207779036134        8.67727336857977       46.80257704030090
H           -0.90665028580310        7.86154083459631       46.27119113502594
C           -1.93467317712014       13.41128167176994       46.11674626423936
H           -1.51962756463367       14.14669295083429       45.44178978051957
C           -5.92912221303792        9.86486749468916       53.04323666383385
H           -6.90875371910449       10.20877924794635       53.36735723796282
H           -5.24415057086576        9.94423444289591       53.88805257191195
H           -6.01232151542426        8.81445973398501       52.77384415559153
C           -6.94346606016715       12.73658226840667       52.15429048116413
H           -7.93169053139305       12.54577050557175       51.73318827281431
H           -6.72579832934788       13.79518326199228       52.03995899135026
H           -6.98285511098444       12.51422585516775       53.21840639406263
C           -2.55788627609525        6.26345223297126       51.04013054894688
H           -3.36862846549401        6.54251725661069       51.70623896408311
H           -1.63990735226224        6.19649742638545       51.62729045821680
H           -2.78723073579489        5.27793768703374       50.64125419505298
C           -1.02096417980439        5.97844479582929       48.20725140057266
H           -0.64097569964788        6.10311790368257       47.20013152721305
C           -0.74737988926994        4.82132999361035       48.81296700517795
H           -1.03759777734185        4.59524862087675       49.82170461584316
H           -0.19413397497583        4.04458029910732       48.31302615610579
C            0.19106946510403        9.25036318463854       44.22607451348314
H           -0.29833768217211        9.04722018290163       43.27113363361774
H            0.28595647870305        8.30830419380076       44.75694373881565
H            1.19744168325215        9.61856325628538       44.02750119134423
C           -0.17659210907519       12.41373055730680       43.75750592031931
H           -0.27705485653524       13.48538096016199       43.88091128698047
C            0.41818140606640       11.96423073862215       42.64831089591365
H            0.52007649260657       10.91687094162157       42.43489516984305
H            0.80683453168586       12.62915719351203       41.89626794672214
C           -2.71442097898473       16.43347913589822       46.49804516899652
H           -2.90826231442062       16.33172131543067       45.43059554613325
H           -1.63785755818229       16.53524088371613       46.63568088089325
H           -3.19200915868631       17.34752782005783       46.84327944481844
C           -4.92270559816908       16.40919175172987       48.83759417990047
H           -5.85723728177249       16.61169888721673       48.31227956862596
H           -4.31785730817472       17.31227972891734       48.81532087975859
H           -5.16191861374064       16.19415823866905       49.87785031465548
C           -6.45410924957446        8.80244172852616       44.52822328977297
H           -6.62053849083055        9.38103872934782       43.62070931504360
H           -7.40528740859216        8.36915558570988       44.83428634743704
H           -5.76141245061242        7.99865214774953       44.30629891020707
N           -6.55823731471282       10.75972267289225       46.07992731717069
H           -7.45971808734264       11.08216013869215       45.76599809022655
C           -5.89559140687246        9.66014228809407       45.60383995806647
C           -5.78745707260969       11.31955451531756       47.04004807910994
H           -6.06205047340339       12.19950735977577       47.58267268227355
N           -4.67784731518062       10.64217771028003       47.20214455716685
C           -4.72975668493004        9.60816813971328       46.31465950712720
H           -3.92857019051101        8.90276344410237       46.24941342674457
C           -1.45623802017129       13.36200311164916       50.61276429234411
H           -2.49478001595656       13.64029770704650       50.46117579231081
H           -0.79005808855906       14.14755606215754       50.27259073459596
H           -1.27276851041375       13.14155056748663       51.65688457027250
S           -1.07144436083392       11.83922748047646       49.67751534825032
H           -1.22629969151183       12.40173286561592       48.47111060441726
81
 energy: -118.380171547977 gnorm: 0.018479316217 xtb: 6.7.1 (edcfbbe)
Fe          -3.11799755235200       11.12822424556789       48.35930110283989
N           -4.29816224172553       11.23498268643042       49.96311819006250
N           -2.66546429896064        9.23629783633902       48.79479687316969
N           -1.93066924580675       11.05331848055517       46.72532056664587
N           -3.47432335815693       13.07653676526932       47.98860326788085
C           -5.15011602699926       12.23991133264729       50.29267300771060
C           -5.90382200246593       11.89852988432653       51.47738187766067
C           -5.45242896549063       10.67721527997020       51.87533578991314
C           -4.45295086567461       10.27927906729834       50.91193632532526
C           -2.96916717897672        8.58015336965938       49.94337956937898
C           -2.40703484186740        7.25507925425417       49.94362993991095
C           -1.76151688999572        7.10765125453280       48.73795360230585
C           -1.93296976662883        8.37937706987171       48.04582664875172
C           -1.35050603739996        9.93518196715825       46.21931242448057
C           -0.61469160816834       10.23996553041684       45.02433979775653
C           -0.74387175965965       11.59717638873375       44.82137925553788
C           -1.57720437602388       12.08171737601636       45.91260079430499
C           -2.82852927274429       13.86423833050320       47.08319674819236
C           -3.24463123674560       15.24138271420594       47.24007457673196
C           -4.19779946755942       15.24905916032385       48.21586776255928
C           -4.33581225177296       13.88201406212898       48.66034231576310
C           -5.19855186927084       13.47185264565528       49.66393180893141
H           -5.91922860844244       14.19429436467623       50.02830263277863
C           -3.77556488716234        9.07734274868979       50.95235781262920
H           -3.93106818277526        8.46013926367822       51.82469166293043
C           -1.37984851170327        8.68334337522820       46.81669206063567
H           -0.87238573292756        7.88263964064822       46.29724680650163
C           -1.95128686167417       13.40272087271806       46.11471476248145
H           -1.55378207834802       14.14373425916627       45.43578119826820
C           -5.91416954366911        9.86538794329475       53.03527900569957
H           -6.89026074388993       10.20907827122120       53.37056626105877
H           -5.21759518957208        9.94124075153302       53.87181432916029
H           -5.99813443245657        8.81524275896977       52.76143743589201
C           -6.93968924803315       12.74110739590220       52.13851685038470
H           -7.92598197480530       12.55374078400338       51.70989235618644
H           -6.71820449253582       13.79992135645124       52.02530583854240
H           -6.98409468131189       12.51699995575562       53.20234786834047
C           -2.56600671259839        6.26495248707955       51.04132310452694
H           -3.36255276243414        6.55807093753415       51.72149386579608
H           -1.64301975157482        6.17972902605943       51.61828246643439
H           -2.81128215586776        5.28395780416223       50.63771696291525
C           -1.02907953982434        5.99025732548430       48.20728416245839
H           -0.68351416887935        6.11533659124126       47.18701821288266
C           -0.73003302122828        4.83854433655583       48.80896140378632
H           -1.00445883987039        4.59947253662561       49.81952532486061
H           -0.18416518221197        4.06987557821607       48.28626150306449
C            0.17647217570032        9.25622101711384       44.23886542244877
H           -0.30474923395891        9.04421599537001       43.28272432200369
H            0.27840961401220        8.31694548613235       44.77578346351844
H            1.17649319583675        9.64106560014701       44.04300049187274
C           -0.19404936529862       12.41204874973008       43.77055417130370
H           -0.27937360541053       13.48222909152541       43.92423900761206
C            0.39578731743072       11.99289917035809       42.64870942994919
H            0.51558757201280       10.95308049847971       42.39830217345305
H            0.79002599670250       12.68938143667945       41.92497228533789