81
 energy: -118.391683196598 gnorm: 0.000047851738 xtb: 6.7.1 (edcfbbe)
Fe          -3.01529339755574       11.17976271493024       48.38592644457337
N           -4.21116475792825       11.28058302891470       49.99106074923098
N           -2.65454033716657        9.25201175579231       48.76395718352143
N           -1.81755780991910       11.09842381139591       46.77852254083077
N           -3.39626059291059       13.11643736688183       47.99944567512003
C           -4.91407302641413       12.35803370226335       50.42905617237032
C           -5.65527330055131       12.03350138082941       51.62726346589756
C           -5.38607526923202       10.72870747854117       51.89945806506137
C           -4.48799902204481       10.27405714775263       50.86064352402647
C           -3.15342000249443        8.51508074167048       49.79042219996774
C           -2.66727036651442        7.15906648388642       49.73314996858043
C           -1.84889355005503        7.09076121937302       48.63842352645418
C           -1.86309465580875        8.41599631913934       48.04715818516795
C           -1.12165413542018       10.01614096559382       46.33794545080917
C           -0.36874896314228       10.33861149333153       45.15311806849407
C           -0.63052275932108       11.65453982623283       44.87793393539420
C           -1.53519017197560       12.10711844264559       45.91688066336015
C           -2.92319799053529       13.84548614564870       46.95455246032751
C           -3.45703516362012       15.18849998998015       46.98532695742097
C           -4.27383142823359       15.25065979078241       48.07151117987929
C           -4.22684127059825       13.94481955384143       48.68862861499935
C           -4.93454061720659       13.60357012293989       49.82724976955696
H           -5.54949068506736       14.36670138277360       50.27964575666829
C           -4.00034855515901        8.98562525562713       50.77779950870139
H           -4.30396595831894        8.29152798781715       51.54636187828242
C           -1.13619284540981        8.76322209827311       46.92538393737569
H           -0.53346037386840        7.99485654707475       46.46606360717808
C           -2.05175668359031       13.38749205745334       45.98471231185690
H           -1.76387300978179       14.08379092388765       45.21224144486798
C           -5.87924733007906        9.87615312776369       53.01759926611252
H           -6.52683576086638       10.44407027771354       53.68124549433414
H           -5.04392357093536        9.48915484199226       53.60150854284529
H           -6.44352282208086        9.02665019823488       52.63179551837855
C           -6.52090902045367       12.99529056968402       52.36716533110303
H           -7.32515648452440       13.36059051813672       51.72760323450108
H           -5.94022970824818       13.85497909085038       52.70296526090706
H           -6.96648391250554       12.52235624525861       53.23879059667154
C           -3.06385800959444        6.06607591790603       50.66283316875776
H           -4.11765413043314        6.14676834160122       50.92569769795928
H           -2.48135548242199        6.10949349969321       51.58455787014080
H           -2.89437510998273        5.09837150311218       50.19493705330603
C           -1.11775083031293        5.95999689901295       48.11071869867231
H           -1.02051637722694        5.92643220961366       47.03146648019253
C           -0.56620432383295        4.99270016504466       48.83620690294641
H           -0.58841341297698        5.00041894269888       49.91185163311762
H           -0.04496436285280        4.16999137402228       48.37532037624302
C            0.55731054115447        9.41097768423665       44.44748783842361
H            0.01004696848540        8.75389580150750       43.76919117291266
H            1.09461680534853        8.78804335874737       45.16094666335076
H            1.28131185068451        9.97795216036958       43.86581342718566
C           -0.11893987253736       12.48582960090923       43.81103460664289
H            0.02979183882172       13.53015392466965       44.06095656019021
C            0.16546188205254       12.07297570764021       42.58013241419667
H           -0.00655691004042       11.05973082219752       42.26159336237210
H            0.55858893996382       12.74661813099287       41.83676583878761
C           -3.13183819710193       16.24593676066900       45.98724586548528
H           -3.41336102852146       15.92507316694096       44.98405110684227
H           -2.06199295540078       16.45673772152442       45.98606606863939
H           -3.66146134227970       17.16822132352341       46.21352491915465
C           -5.08104441533124       16.39420910792581       48.58392623632237
H           -6.14066243795457       16.13762706012045       48.60806461118249
H           -4.95589198149200       17.26940328351463       47.95123502709998
H           -4.77517561534708       16.65765204781106       49.59701966974416
C           -6.39795253522597        8.80330463611638       44.65874303628215
H           -6.72121320540672        9.40740524107137       43.81103416873352
H           -7.25755279271398        8.24216098198160       45.02512629450521
H           -5.64357582622731        8.10119860819614       44.31801595485643
N           -6.56010904931916       10.63705002510516       46.35665972115567
H           -7.52018812429916       10.87011806341728       46.16291427632670
C           -5.83118485229610        9.65976116605666       45.73096283154379
C           -5.75707820439172       11.22457100115740       47.27174868621778
H           -6.06233775768790       12.02633936215276       47.91180998794859
N           -4.56546401720624       10.67899271814521       47.26343945653957
C           -4.59575533963532        9.70398189898212       46.31046746875486
H           -3.73314909764496        9.10448102832782       46.10691447822258
C           -1.60393907900122       12.96622552191850       50.97297700196434
H           -2.32767177737308       13.65967344364314       50.55926770367571
H           -0.73721696695413       13.48660766932240       51.36917900391408
H           -2.07004825398640       12.36925000054301       51.74983912161471
S           -1.06192258863183       11.80050212587001       49.67497144339347
H           -0.63587725333531       12.74375938705666       48.83076760365724
