78
 energy: -115.974753281529 gnorm: 0.274556601344 xtb: 6.7.1 (edcfbbe)
Fe          14.41400000000000       29.39500000000000        4.99600000000000
N           14.73800000000000       30.72500000000000        6.45800000000000
N           13.65100000000000       28.12900000000000        6.32600000000000
N           14.19900000000000       28.02100000000000        3.52700000000000
N           15.32800000000000       30.62200000000000        3.69300000000000
C           15.24400000000000       32.02000000000000        6.35000000000000
C           15.15500000000000       32.66000000000000        7.64100000000000
C           14.62400000000000       31.81100000000000        8.49900000000000
C           14.40800000000000       30.55600000000000        7.79200000000000
C           13.45400000000000       28.28000000000000        7.68800000000000
C           12.82200000000000       27.14099999999999        8.28500000000000
C           12.57500000000000       26.29600000000000        7.29400000000000
C           13.15100000000000       26.85900000000000        6.08600000000000
C           13.72400000000000       26.73700000000000        3.65900000000000
C           13.87800000000000       26.02600000000000        2.41600000000000
C           14.55600000000000       26.81900000000000        1.57900000000000
C           14.76400000000000       28.09600000000000        2.27300000000000
C           15.63500000000000       30.42100000000000        2.35300000000000
C           16.30000000000000       31.55000000000000        1.78200000000000
C           16.41400000000000       32.46500000000000        2.75800000000000
C           15.80400000000000       31.91200000000000        3.93600000000000
C           15.75200000000000       32.52900000000000        5.18500000000000
H           16.16500000000000       33.53600000000000        5.24100000000000
C           13.85900000000000       29.42600000000000        8.32200000000000
H           13.72300000000000       29.43500000000000        9.40300000000000
C           13.08000000000000       26.30500000000000        4.80900000000000
H           12.44200000000000       25.42800000000000        4.70100000000000
C           15.32700000000000       29.22400000000000        1.72400000000000
H           15.56100000000000       29.17100000000000        0.66100000000000
C           14.27300000000000       32.01800000000000        9.97700000000000
H           14.53700000000000       33.05400000000000       10.27900000000000
H           14.84800000000000       31.30300000000000       10.60300000000000
H           13.18300000000000       31.86499999999999       10.12900000000000
C           15.52900000000000       34.15500000000000        7.87200000000000
H           15.33100000000000       34.73400000000000        6.94500000000000
H           16.60800000000000       34.23700000000000        8.12500000000000
H           14.91300000000000       34.57300000000000        8.69600000000000
C           12.39100000000000       27.04000000000000        9.78600000000000
H           11.65600000000000       27.84100000000000       10.01600000000000
H           13.27900000000000       27.16700000000000       10.44100000000000
H           11.91800000000000       26.05300000000000        9.97500000000000
C           11.93500000000000       24.90700000000000        7.30600000000000
H           11.01700000000000       24.76100000000000        6.72000000000000
C           12.37500000000000       23.84900000000000        7.95500000000000
H           13.28800000000000       23.90800000000000        8.56600000000000
H           11.83500000000000       22.89300000000000        7.89500000000000
C           13.44500000000000       24.56000000000000        2.23000000000000
H           12.48100000000000       24.38900000000000        2.75500000000000
H           14.21400000000000       23.88400000000000        2.66000000000000
H           13.31100000000000       24.34300000000000        1.14900000000000
C           15.10500000000000       26.68500000000000        0.13700000000000
H           15.43900000000000       27.57200000000000       -0.42100000000000
C           15.18200000000000       25.50000000000000       -0.45000000000000
H           14.85600000000000       24.59200000000000        0.08000000000000
H           15.57200000000000       25.40900000000000       -1.47400000000000
C           16.77600000000000       31.71100000000000        0.32400000000000
H           15.94500000000000       31.45400000000000       -0.36800000000000
H           17.63000000000000       31.02800000000000        0.13000000000000
H           17.08300000000000       32.76300000000000        0.14300000000000
C           17.14900000000000       33.83100000000000        2.72400000000000
H           16.41100000000000       34.64500000000000        2.56100000000000
H           17.88600000000000       33.84000000000000        1.89200000000000
H           17.66700000000000       34.00300000000000        3.69200000000000
O           16.38300000000000       28.26100000000000        5.25500000000000
H           16.30800000000000       27.47500000000000        4.71300000000000
H           17.08200000000000       28.49100000000000        5.75300000000000
C            9.43300000000000       30.62800000000000        2.56600000000000
H            9.33100000000000       31.63100000000000        2.10000000000000
H            8.50800000000000       30.40100000000000        3.13700000000000
H            9.58000000000000       29.87200000000000        1.76500000000000
N           10.74500000000000       31.47000000000000        4.60400000000000
H           10.05500000000000       32.14300000000000        4.87000000000000
C           10.63700000000000       30.62300000000000        3.50900000000000
C           11.89800000000000       31.24200000000000        5.23000000000000
H           12.25800000000000       31.79700000000000        6.09500000000000
N           12.49300000000000       30.25100000000000        4.61800000000000
C           11.75700000000000       29.85300000000000        3.50900000000000
H           12.10000000000000       29.07300000000000        2.84200000000000
78
 energy: -116.025374389057 gnorm: 0.114427364572 xtb: 6.7.1 (edcfbbe)
Fe          14.42906687473174       29.39335714308167        5.00205470780969
N           14.74247249340717       30.72748680190004        6.46765511221862
N           13.64420210125140       28.11003737294959        6.33270029242049
N           14.23779537445546       28.01115400057601        3.53472482576800
N           15.33171898918328       30.64170928768489        3.68715897193333
C           15.23850755808632       32.01002575337453        6.35206205521050
C           15.15143616154271       32.68350308756804        7.63097482916502
C           14.62758927530274       31.80871834128808        8.51186681407578
C           14.39696515631399       30.57078930745819        7.78637874029313
C           13.46278019440709       28.28195218642608        7.68506474875664
C           12.81451582171346       27.14232313638576        8.28716057904827
C           12.57569194302742       26.27115672739408        7.27621186663577
C           13.11236810645975       26.87132561158926        6.06327067465634
C           13.70300941327772       26.75338249693512        3.64713828122846
C           13.88530754774942       26.02048931086768        2.41240118902620
C           14.56152684175292       26.83932848906268        1.55619015599660
C           14.75030683589326       28.10249282414370        2.26685529588110
C           15.62380567370713       30.42168955315390        2.35925342643589
C           16.29722465788333       31.55401051926231        1.77871101966392
C           16.42545223603447       32.47318896120473        2.77138560770498
C           15.81274111406062       31.90723612975941        3.94726756815691
C           15.75121108939891       32.53072176800771        5.18554778673200
H           16.16066278239251       33.53423109193623        5.24019998692803
C           13.85486769104938       29.43238493732147        8.33701354781626
H           13.70977475497194       29.44424144672404        9.41207531392608
C           13.06360529137946       26.30237730225966        4.79821746378420
H           12.47110490158759       25.39759197933304        4.70626941089152
C           15.32240984103500       29.23148322486499        1.71735196671951
H           15.57592025346793       29.17850280353411        0.66505402115025
C           14.28015767211334       32.01618038693287        9.96548135625340
H           14.53439958243425       33.03476574450359       10.27511088155326
H           14.83628597628377       31.31350711535621       10.59462365828010
H           13.20650550269427       31.86205039782965       10.12678532565622
C           15.52477412084726       34.13940743702377        7.86370181791510
H           15.33341389898355       34.72442751028693        6.95945330688005
H           16.58674832819908       34.23123094496000        8.11945196946534
H           14.92899994087031       34.56053358279658        8.67988274863669
C           12.40065744060704       27.04338784856625        9.75442947345900
H           11.67469193323591       27.82816790387277       10.00055109358471
H           13.26536182453465       27.16341693442038       10.41714043833069
H           11.93520457382522       26.07278553356607        9.95589012594741
C           11.93809773090650       24.92120219685666        7.30174473883846
H           11.02994601961975       24.79343891410503        6.71211526629540
C           12.37898783949589       23.86180298028287        7.95995053560511
H           13.28015142966463       23.90305143044855        8.56171695292345
H           11.85473236564846       22.91201972818526        7.90351030271873
C           13.44545619405088       24.58105133256075        2.23439175566102
H           12.49819894545862       24.39634456738078        2.75160548350586
H           14.19845335480119       23.89963680288237        2.64980951487093
H           13.30052982364622       24.34824097855937        1.17608213867786
C           15.08102677634508       26.66792560079960        0.16310245471991
H           15.41493478068990       27.55495030534624       -0.37379442063297
C           15.18039073888623       25.49336881594682       -0.44526663701999
H           14.88265685585557       24.58437662901424        0.05509268616746
H           15.56551248493111       25.40818456656603       -1.45678974504583
C           16.76470059382964       31.70004930305981        0.34339001077832
H           15.95606432654839       31.45388399745288       -0.35397096419471
H           17.61237927226330       31.03619411255205        0.13645055984817
H           17.07470990562876       32.73276303859784        0.15209455871276
C           17.13480817811303       33.81521318946660        2.72601331265122
H           16.41876557521522       34.63012161475561        2.56571856280523
H           17.86752149186439       33.83560361869372        1.91249057637680
H           17.65827306971409       33.99644919728014        3.66996251406631
O           16.36521835732487       28.26537007166810        5.24996496601016
H           16.32242667831349       27.47250586927358        4.71735617603310
H           17.11548975684943       28.48968564560620        5.76840177128812
C            9.44246299991807       30.63445168174619        2.57949395132036
H            9.33116319379265       31.61784132374509        2.10861787020285
H            8.52184107682477       30.40454954667261        3.12680915782070
H            9.58316827192570       29.88821233305810        1.79218643650753
N           10.73160847716309       31.47183370214355        4.58960558014806
H           10.04185378705392       32.15076022810483        4.86112974628494
C           10.62407573177207       30.62315636189575        3.51101816683550
C           11.89779617471448       31.22042701464413        5.21459985357126
H           12.25155800344212       31.76723822718841        6.07492440350319
N           12.52787082151895       30.25042134797139        4.59863188107852
C           11.75659675667265       29.86419271309307        3.52353734905476
H           12.09233038938401       29.08972807623364        2.86058407601596
78
 energy: -116.040635890525 gnorm: 0.027846457067 xtb: 6.7.1 (edcfbbe)
Fe          14.43343273554916       29.39425696216632        4.99753621350941
N           14.74161982136879       30.72590991352862        6.47419199965826
N           13.62288433034896       28.10435658774311        6.33075115209445
N           14.24309638979646       28.01352908917471        3.52844045843682
N           15.34185403012246       30.65508551656252        3.68696118851096
C           15.22851779888501       31.99546684839300        6.35345079542672
C           15.14308175025434       32.69444023112480        7.62108294700910
C           14.62662947907184       31.80376968995676        8.51504183463024
C           14.38784792793822       30.57758554580196        7.77982301180237
C           13.46486216378491       28.28725718437265        7.67295904091493
C           12.81271634137513       27.14386392744901        8.27825145955486
C           12.57257779460224       26.26242150272254        7.25757208427261
C           13.08581102568231       26.88679284455564        6.04427316580245
C           13.69367341905113       26.76858480664711        3.63982511828968
C           13.88008657566563       26.02312963564158        2.41248690294961
C           14.55443403500870       26.85655349200893        1.54367144771161
C           14.73935071683122       28.10847222885505        2.26404042538581
C           15.61384829251299       30.42262524749260        2.37132048957666
C           16.29155956218296       31.55816923770220        1.78160944487995
C           16.43439666434701       32.47622550920270        2.78292934221636
C           15.82068886676630       31.89959149338151        3.95876183572262
C           15.74825985797563       32.53137469876078        5.18854824824890
H           16.15242560548882       33.53286190190445        5.24415544596171
C           13.84673026991558       29.43571451704450        8.34709629558446
H           13.68674090642739       29.45156395252052        9.41624519127237
C           13.06744138363001       26.29360894901922        4.79158873002929
H           12.52277941646971       25.35871485125499        4.71388425863558
C           15.32545591769540       29.23795059938732        1.71555806938970
H           15.59617001792572       29.19054811772565        0.67130330642103
C           14.28875545667317       32.01287472550896        9.95253644952924
H           14.53875703015551       33.02226597203317       10.26594191080041
H           14.83418662548327       31.31600939949103       10.58528026355622
H           13.22365062873155       31.85631330825183       10.12104918243709
C           15.52001841528807       34.11965258592161        7.85370979300645
H           15.33508991358544       34.71519036656949        6.96420233061144
H           16.57455008009262       34.21426734564140        8.11084739202592
H           14.93892254222444       34.54245972792422        8.66988132181777
C           12.41454558888739       27.04118652936085        9.71573144508513
H           11.69531498402790       27.82093420661602        9.97006142527490
H           13.26999202878667       27.15830644477838       10.37960016638937
H           11.95236169542363       26.07860151511256        9.92107870623982
C           11.94262771236537       24.94399568973304        7.29329535386762
H           11.04577253054789       24.82977272620437        6.69262152730424
C           12.38394475958460       23.88599707496376        7.96081904228117
H           13.27600206220521       23.91523233591544        8.56080355817457
H           11.86691421016651       22.94065824253864        7.91770492492925
C           13.44222448331379       24.60551077097526        2.23683158124810
H           12.50819910809946       24.41778829910447        2.76040914716440
H           14.19046670276670       23.92081916807064        2.63983486925884
H           13.28876207735539       24.36654930226486        1.18950723445707
C           15.05440431254616       26.64797881900289        0.20223132579915
H           15.37713179776615       27.53881086154789       -0.32231036299640
C           15.17728163010172       25.48351811363743       -0.43145822524182
H           14.90707432620171       24.55909915233013        0.03699431791224
H           15.55802959500375       25.41678827123354       -1.43692234376058
C           16.75068213927287       31.68872670471935        0.36474865472315
H           15.95245106310897       31.44348280796746       -0.33257426128093
H           17.59352147545222       31.03019375224661        0.15613674879626
H           17.06557604329087       32.71024410678065        0.16515252690843
C           17.12378189415547       33.79905931727647        2.73005627572883
H           16.41420725116266       34.61103750191640        2.57181902812033
H           17.84988878453941       33.82453792068188        1.92179959739713
H           17.65232145182601       33.98998012055368        3.66039689991575
O           16.35815389883862       28.28355816663467        5.26229610501055
H           16.35900366160600       27.48128431481740        4.73746703726148
H           17.14129413127890       28.48301806865692        5.77587444521501
C            9.45248398144826       30.63668830656640        2.58940731129067
H            9.33759952078406       31.61192039929885        2.11984142567338
H            8.53361594462776       30.40764786190616        3.12618935045064
H            9.59108169976971       29.89482763488067        1.81072069724918
N           10.72612234816378       31.47174759990048        4.57943607501644
H           10.03896451409403       32.15456271895331        4.85651687025249
C           10.62069222165956       30.62575220919484        3.50701382092175
C           11.90067860329922       31.20670589830902        5.19976555206524
H           12.24756553969077       31.74164240613049        6.06088257876980
N           12.54595717897422       30.24431355252744        4.58896318336617
C           11.75979790206636       29.87293990018448        3.53438138086995
H           12.08360535683190       29.09812269306366        2.87306645520812
78
 energy: -116.044377051742 gnorm: 0.021668522376 xtb: 6.7.1 (edcfbbe)
Fe          14.43529347529154       29.39577015486132        4.99381811954770
N           14.73446182964668       30.72384102015643        6.47473384595374
N           13.60900753564183       28.11232768332147        6.31907013068750
N           14.24258313205959       28.02035864245576        3.52560807307020
N           15.34130545051388       30.65669941854964        3.69383023240524
C           15.21863914601614       31.98905113482801        6.35288155453779
C           15.13419615682111       32.69140352692494        7.61636047106676
C           14.61932027554403       31.80007609646034        8.51179125845140
C           14.37506422021105       30.57818979164601        7.77642165203973
C           13.45455920606794       28.29703470375400        7.65640562158216
C           12.81419363623069       27.14756900567407        8.25943221638618
C           12.56930375504150       26.26970199937312        7.23915645700373
C           13.07613074060513       26.89937254231931        6.02991715171155
C           13.69191600625705       26.77865044141609        3.63939044275343
C           13.87215446422595       26.03018918122175        2.41951309160927
C           14.54475916060226       26.86139046644457        1.54649325748718
C           14.73101883660441       28.11482515193931        2.26162424849397
C           15.60770073595686       30.42158854325779        2.38287391007340
C           16.28677252536676       31.55656768397427        1.79231961776059
C           16.43616395173318       32.47215355426123        2.79203998585614
C           15.82324635392103       31.89445788182394        3.96849292253049
C           15.74515267980545       32.53152537822191        5.19356590643524
H           16.14383930752787       33.53385388917351        5.25109616028750
C           13.82810582467314       29.43960681749114        8.34474216902361
H           13.65480785354699       29.45592430677776        9.41131513433347
C           13.07630284909910       26.28984421135119        4.78745246141073
H           12.58344669266589       25.32118716277993        4.72275687214416
C           15.32550550067796       29.24290158549762        1.71667657736231
H           15.61628388361761       29.20004800163866        0.67757899378985
C           14.29318978926608       32.00766491720865        9.94972955855435
H           14.54732644802140       33.01685432156417       10.26132597164926
H           14.84147692364148       31.30903233648304       10.57943824738063
H           13.22862290720240       31.85053007618585       10.12461008416156
C           15.52043227787541       34.11081235444621        7.84797620955599
H           15.33594527505499       34.71305776294329        6.96161874905476
H           16.57776336082795       34.19524919591711        8.10058122410666
H           14.94644902292794       34.53316940415572        8.67030720020903
C           12.42706902400628       27.03545193803966        9.69188630772977
H           11.70976686006935       27.81625959669224        9.95079324574098
H           13.28925905173799       27.14909073881870       10.34784321210182
H           11.96727019005539       26.06991645148000        9.88787619997503
C           11.94101131962829       24.95783794422384        7.27795653563228
H           11.05334800419052       24.84512742045264        6.66336429767530
C           12.37943122490346       23.91072163493068        7.96408801608438
H           13.27058191409817       23.94745453820422        8.56604472608642
H           11.86772374870385       22.96272000266514        7.93269663880716
C           13.42516705928858       24.62135145307630        2.24171434357802
H           12.50053433488137       24.43655833395274        2.78375849514726
H           14.18048194704302       23.93248291358288        2.62646325871427
H           13.25071870836375       24.39032478583563        1.19539692494903
C           15.03170896028477       26.63389733165901        0.21160729919936
H           15.33987871306458       27.52826877355302       -0.31437316857929
C           15.17737726625971       25.47294018619420       -0.42717332213186
H           14.95362303365462       24.52691205652242        0.03269184016922
H           15.55957173935699       25.42661712681607       -1.43237988077458
C           16.73921631481123       31.67456175685279        0.37713927208461
H           15.93694032062142       31.42465953742020       -0.31437069811942
H           17.57830672109510       31.00848333082173        0.17503653664341
H           17.05849930275982       32.69319938211913        0.16911323841571
C           17.11753058016791       33.79526755675171        2.73495203346223
H           16.40069807536880       34.60234581735794        2.58014901857312
H           17.83738398670138       33.82122793325185        1.92061417883955
H           17.65217207523641       33.99127613383701        3.66165722623151
O           16.36889316061088       28.29990409848572        5.29200402412437
H           16.40947111802339       27.49832601165726        4.76293301190277
H           17.16598511368601       28.49335313986511        5.79013439568886
C            9.45704858874488       30.63719320650450        2.59486892162832
H            9.34123344566482       31.61353129632538        2.12640701837090
H            8.53849764952607       30.40789257894984        3.13317601554271
H            9.59649275182354       29.89442911273950        1.81700945084303
N           10.73484239685333       31.47074159665706        4.58002669671617
H           10.05056716535628       32.15515598490106        4.86053643909168
C           10.62569477362823       30.62498790808216        3.50792682138352
C           11.91115446782851       31.20110415312681        5.19498313952809
H           12.25496001333577       31.72425411838168        6.06308863743276
N           12.55711528390741       30.24307793639760        4.57816631654638
C           11.76601344167220       29.87430259873052        3.52959746655562
H           12.07731896219510       29.09731123758480        2.86465008794209
78
 energy: -116.047002765862 gnorm: 0.017210502101 xtb: 6.7.1 (edcfbbe)
Fe          14.43452051734790       29.39912774807061        4.98993656212066
N           14.71933600770817       30.72322500014674        6.47262994417225
N           13.59421134131873       28.12724067124827        6.30035543897585
N           14.24845042562390       28.02759898546676        3.52522599508632
N           15.34041335986193       30.65221494317700        3.70682526833680
C           15.20515434256708       31.98498234358097        6.35190848627973
C           15.12244197574130       32.68675799177836        7.61308381502840
C           14.60691427581687       31.79805391738945        8.50780036818484
C           14.35609906184803       30.57960354943726        7.77313597930784
C           13.43982745240535       28.30979174226010        7.63505285366764
C           12.81318808174903       27.15358742305132        8.23469710151526
C           12.56610239091993       26.28066209974124        7.21639024100020
C           13.07170729062014       26.91241146762384        6.01351285080986
C           13.69743747987121       26.78711738479425        3.64045973057726
C           13.86529230998691       26.03904209420407        2.42587900107265
C           14.53533118274186       26.86477225306912        1.55017978517283
C           14.72926394933745       28.11905126183295        2.25983579953476
C           15.60443095445885       30.41672151454443        2.39810139130816
C           16.28159378522493       31.55200921672413        1.80663474419756
C           16.43563299369600       32.46556513140980        2.80228540298030
C           15.82319470850017       31.88900310957860        3.97981206373409
C           15.73968004380854       32.53257985748395        5.19950631130908
H           16.13420777214310       33.53533481275397        5.25954039192606
C           13.80088842330159       29.44553625884820        8.33849189962579
H           13.61208402656073       29.46004919385733        9.40190869858137
C           13.09646309894675       26.28327352892703        4.78428112499390
H           12.64735986101220       25.29717940096102        4.73063494256191
C           15.33157679927119       29.24426460276436        1.71965863268183
H           15.63912468345996       29.20828452102540        0.68528347964898
C           14.29667527547895       32.00124197554538        9.95036687791667
H           14.55756695451832       33.00993289375165       10.26109063651335
H           14.85267301945905       31.29876799810134       10.57119673451823
H           13.23304913061231       31.84447771163211       10.13726731813672
C           15.52343715495505       34.10301756760394        7.84474057722631
H           15.33567466295437       34.71027117691520        6.96125911296213
H           16.58578499829612       34.17326967931586        8.08601395764576
H           14.96078792903748       34.52728441376161        8.67519572957939
C           12.44049972897961       27.02690749721929        9.66911351908744
H           11.72629892633131       27.80683231191153        9.94182948408910
H           13.31313069206319       27.13284807238896       10.31355031540106
H           11.98387572091718       26.05734376147977        9.85414812667315
C           11.93899046893885       24.96951213756580        7.25437554326859
H           11.06390629868180       24.85388015993088        6.62148453215478
C           12.37143100962230       23.94011650884776        7.96970011370378
H           13.25374779380226       23.99881845685717        8.58600912678207
H           11.86594253517382       22.98777440166214        7.95618054570341
C           13.40520739744534       24.63768814484420        2.23798390415277
H           12.49071694825158       24.45372502890534        2.80012496072306
H           14.16548079488742       23.93847407133967        2.59716953883636
H           13.21180638897809       24.42777366958244        1.18890860627351
C           15.01388382168273       26.62010555353838        0.21543306020163
H           15.28068546670251       27.51728432692643       -0.33202634653675
C           15.19089867361105       25.45629358998348       -0.40932533385916
H           14.98464113990530       24.50087224657507        0.03950217673198
H           15.55173351743375       25.42792809248376       -1.42412864729877
C           16.72614620344712       31.65391039894814        0.38864371248930
H           15.91608676037695       31.39833892224083       -0.29323717560875
H           17.55947888403882       30.97689463410865        0.19302418655276
H           17.05077503696466       32.66839558924340        0.16626062410317
C           17.10892594111221       33.79358047661432        2.74122256873176
H           16.38165432570822       34.59418048474549        2.59376830103329
H           17.81989793215790       33.82369631238802        1.91786858768409
H           17.65150751898845       33.99392387928363        3.66355086363781
O           16.37733529221850       28.31269470768358        5.34973416672804
H           16.48129845367870       27.53113312228254        4.79072289081006
H           17.20104050921531       28.51907783019445        5.80027092223833
C            9.46159140610219       30.63806320742250        2.60076298929217