78
 energy: -116.058025504216 gnorm: 0.000040609907 xtb: 6.7.1 (edcfbbe)
Fe          14.47851621295197       29.34440822830316        5.04000824013665
N           14.65555466450110       30.70725382022913        6.48044562656398
N           13.65102751158732       28.06498330934495        6.33037895431597
N           14.36149871838217       27.95419048510185        3.58389635616505
N           15.36253962239832       30.60335067253012        3.74517328326427
C           15.16287497276457       31.96139525185901        6.36652601879670
C           15.11557099189295       32.65175202050123        7.63802841202479
C           14.56790276446696       31.77971249076735        8.52464625066535
C           14.28328662034811       30.57111505732770        7.78035011875630
C           13.40156456796785       28.28526819151173        7.64887971982217
C           12.78287186312499       27.13392068981187        8.25522200439087
C           12.66042023033375       26.19709533779894        7.26406551428235
C           13.20435580096057       26.81018186900918        6.06656155893015
C           13.80876729005774       26.71308593715853        3.68781842150718
C           13.87828507095746       26.01496699324043        2.43113408617486
C           14.49104432675792       26.86698844582514        1.54927561566631
C           14.76919464254076       28.07893623362015        2.29317288463521
C           15.64282967637800       30.36999488819954        2.43355158206569
C           16.24618506146920       31.53435947950429        1.82509580007325
C           16.31318593004089       32.48196782167398        2.79897215609286
C           15.75670816261981       31.88156193402634        3.99019071579759
C           15.66714886566931       32.52458040519486        5.20964031992965
H           16.02769196221103       33.54027575276493        5.26456347155393
C           13.69972017737384       29.45022317497899        8.33524942419094
H           13.46501730948499       29.48248654078015        9.38839180627798
C           13.27578057727278       26.17158926438510        4.84430831948369
H           12.89582895096443       25.16319368412638        4.78669352021968
C           15.38546112316816       29.19392233102306        1.75322113319180
H           15.67369571026033       29.15108983507962        0.71411722151107
C           14.28982002317222       31.95783718534272        9.97805361695449
H           14.60047724521562       32.94432266274099       10.31325334678287
H           14.82728504812335       31.21176301618958       10.56335650483492
H           13.22470338871791       31.84572101129059       10.18392221804296
C           15.59856677551817       34.04446141538034        7.85735691001504
H           15.06332270035698       34.74239838015298        7.21302313618028
H           16.66174590719461       34.12090897629029        7.62874356667673
H           15.44844295501554       34.34808783889194        8.89049604901414
C           12.32060579371807       27.05215728302669        9.66836074947789
H           11.90229262320932       28.00334610371258        9.99475606389683
H           13.14867691269731       26.80277169934141       10.33360999662328
H           11.55701478515215       26.28319976072178        9.76758050914754
C           12.09013466597334       24.86962765168741        7.32593136633417
H           11.58383491005717       24.53487620083716        6.42767076708602
C           12.14838406815197       24.05277190262268        8.37283285780262
H           12.67926052978041       24.31138953332261        9.27216599647821
H           11.68764338547979       23.07894453583087        8.35382213639429
C           13.31645955378745       24.66122284027099        2.17044262463867
H           12.37316134976070       24.52832313376268        2.69799971431022
H           14.00320395794815       23.88236351006633        2.50641903390613
H           13.14135319850688       24.52848678164437        1.10473723200152
C           14.79770253460734       26.66981834235822        0.14982579131244
H           14.73969133449484       27.55563555579549       -0.47238626950988
C           15.14533500959850       25.51458329101496       -0.40791728639831
H           15.26588157227311       24.61355181507125        0.16775403976901
H           15.34767391792505       25.43692367987271       -1.46331074084799
C           16.68034626058094       31.60954885157569        0.40129001884686
H           15.83108003969478       31.46509632076708       -0.26731462932713
H           17.41721840850304       30.83626811454840        0.18243843178491
H           17.12536097609240       32.57729003360539        0.18361874399077
C           16.84324597602331       33.87282348299209        2.72809827633817
H           16.06548565146269       34.59213241657432        2.98519397202747
H           17.20268170953497       34.09999103444296        1.72743258531561
H           17.66923418703139       34.00432502717120        3.42755197852264
O           16.57236862368217       28.50664833402554        5.46039436521837
H           16.50627529643304       27.64688734809469        5.03094044736848
H           17.09451289621028       29.07313265069422        4.88184409861554
C            9.98101242746772       31.18415757388071        2.30809404011417
H            9.68586181488976       32.22444725496411        2.44469842010342
H            9.08214349559658       30.56835175897841        2.33637414125794
H           10.44394671474748       31.07890761780703        1.33199755525198
N           10.63089795561469       30.79724637952080        4.69546318890897
H            9.75327321849309       31.09506782518229        5.08880399189838
C           10.94046682928038       30.76540735323323        3.36098829924554
C           11.71165149785387       30.35581548762298        5.37774794329308
H           11.75692466999242       30.27345222207996        6.44433220252299
N           12.68591931345844       30.04684971917830        4.55658369025872
C           12.22129174914945       30.29649439841097        3.29890497848161
H           12.83459676285015       30.12331454176428        2.43944479252580
