78
 energy: -116.058037754932 gnorm: 0.000073734127 xtb: 6.7.1 (edcfbbe)
Fe          28.19565567088767       93.97789659230725       53.02581151211312
N           29.14879543846910       95.62540638262578       52.43466253547826
N           29.25808082276264       93.94921498321966       54.71304627213912
N           27.18145450216120       92.34643504036312       53.63194322762450
N           27.07561813185070       94.03423268414143       51.35408443487495
C           28.97278898448043       96.30462873769964       51.27200938943343
C           29.86830469187231       97.43949673264507       51.20001759136413
C           30.59069884653828       97.42824481074301       52.35104359760579
C           30.12696821829635       96.28553111528849       53.10882438621825
C           30.21716743750962       94.83741499015261       55.08724770911416
C           30.78094195720732       94.47916680450757       56.36417362622635
C           30.14274363671294       93.33338831464641       56.75764967088996
C           29.18684989596215       93.02931145258707       55.70879269321563
C           27.40883642674150       91.62341854027783       54.76412271043584
C           26.52783020924275       90.48725017847318       54.83183880292627
C           25.75263386418953       90.53184161969629       53.70215765800712
C           26.18228088001495       91.70571035877194       52.96940644302638
C           26.09331288909118       93.16296168598504       50.99429913562178
C           25.55192116509554       93.50966592406508       49.69962484147465
C           26.23878586197804       94.60667518924087       49.28023947838143
C           27.18726825850862       94.91735375234973       50.32557916344376
C           28.06828601358271       95.98060658898405       50.27846711395483
H           28.04534983309281       96.60738904900566       49.40026982474618
C           30.62975295833559       95.93034144861527       54.34415177294897
H           31.40945150466126       96.55049440277908       54.75983489745704
C           28.34792294217955       91.93291967345520       55.73199627740053
H           28.43059076752342       91.26068976089591       56.57213854321891
C           25.66571095160061       92.08116376782242       51.74179476047462
H           24.88431087374478       91.46747842645016       51.32049216922369
C           31.65260166261091       98.36767508430901       52.81064881315394
H           31.35923287318348       98.84765861814496       53.74439174495642
H           31.83089117786396       99.14266792150568       52.06927633751338
H           32.58919204484884       97.83661313020023       52.98358368714810
C           29.92656553457751       98.39380989592019       50.05679201213273
H           28.96488380224478       98.88947460639335       49.92268390346957
H           30.16871908839737       97.87020591225290       49.13159936640960
H           30.68290230544497       99.15607336914400       50.22706931608748
C           31.80011244956020       95.27300084451593       57.10471446413232
H           31.62242244463213       96.33967009993302       56.97775583401771
H           32.80658523071786       95.05240917879615       56.74423880714196
H           31.75701379487244       95.03689965396605       58.16598157425919
C           30.31190980313631       92.56332072805414       57.96966069507914
H           29.41557728603549       92.08917815157993       58.35238419406450
C           31.45634292852466       92.39546085936207       58.62466785923338
H           32.38635116960601       92.80251987385559       58.26795161999817
H           31.50585349816620       91.81880336721096       59.53344722387031
C           26.45436645275874       89.52498718457481       55.96536162922895
H           26.58890144690410       90.03837393911051       56.91626482141379
H           27.23178410888298       88.76394213352013       55.88049681905291
H           25.48610469105942       89.02842553737237       55.97187197341169
C           24.69176890266735       89.64280926546412       53.28330199852756
H           23.87847333176853       90.10827223110269       52.73796441742726
C           24.64957328928534       88.33310860612505       53.50560125158454
H           25.45018029509079       87.80970468341519       53.99832209831670
H           23.81803661494021       87.73244081486754       53.17600250884026
C           24.45608935625526       92.76303445779459       49.01924270099746
H           23.55313192693885       92.76350683000443       49.63057782242152
H           24.74676553430844       91.72618918946205       48.84794444286415
H           24.21871910597207       93.21465153591274       48.05921988985331
C           26.09580998970043       95.38426056267015       48.01712680499539
H           25.31889790824907       94.95918110339423       47.38639860341610
H           27.03178102397703       95.38130009967405       47.45820847970317
H           25.83436621224879       96.42072136440865       48.23211079744101
O           26.52649484933107       95.21156223404599       54.00675944872415
H           26.02261174117215       95.45601152213774       53.22279630021838
H           26.03791234285884       94.50929613878610       54.44987060973953
C           30.79805649370179       90.04475953613770       50.05385872760237
H           31.40655060339343       89.31868166743068       50.59280341122196
H           31.34424384573083       90.35222754757658       49.16211212565798
H           29.87364705494524       89.56513709841671       49.74790987849848
N           31.46538254389610       92.01147607067222       51.45329636889524
H           32.45740941223286       91.89103704412784       51.33076860448509
C           30.48948723716522       91.21529870113608       50.91351207753803
C           30.85386848001224       92.97635562076947       52.17660416161726
H           31.37155160256140       93.74451614145883       52.71361637175917
N           29.55086694314889       92.83951593837014       52.12709192670813
C           29.30899627611264       91.74873123693325       51.34498977273753
H           28.30969965402447       91.42171366018361       51.14642546340746
