78
 energy: -116.058077394914 gnorm: 0.000084497359 xtb: 6.7.1 (edcfbbe)
Fe          27.74026398103921       91.17056240939529       52.10772861338734
N           28.69430725798048       92.83523196590365       51.49799794894161
N           28.85118155132618       91.16774045778196       53.79076654128572
N           26.75898191575380       89.55829286034535       52.74894108827316
N           26.61396923685583       91.22118721927902       50.46625464020490
C           28.50932656795171       93.49796204769171       50.32525643866278
C           29.41240181566777       94.62156099215794       50.22478293038362
C           30.15310473282747       94.62173933511109       51.36622110660676
C           29.69509276903881       93.49475487285669       52.14675081783796
C           29.83250791875000       92.05139029429318       54.13137832733546
C           30.43987876236904       91.68493197742789       55.38310583853817
C           29.81197842390941       90.53776541662477       55.79496613767046
C           28.81670081615407       90.24116744271072       54.78465081656893
C           26.99379808309589       88.85860379252952       53.89215239659138
C           26.09595573403348       87.73561101786355       54.00059903914547
C           25.30444024517673       87.76847148720664       52.88426165663592
C           25.73939263106885       88.92326832979448       52.12097293681416
C           25.61894269779361       90.35837132194791       50.13696988349124
C           25.04077903045654       90.70573323617886       48.85590638341195
C           25.71626336065999       91.80058294518805       48.41863995339195
C           26.69577846772393       92.10704951188131       49.43977257257232
C           27.57883898242469       93.16606992449013       49.35835207457941
H           27.53717010324291       93.78482791807514       48.47517082900495
C           30.22309009711890       93.14458643361469       53.37445950458210
H           31.02205893585173       93.75790967363655       53.76231681979694
C           27.96137070916379       89.15774548671159       54.83424684311126
H           28.05624036450573       88.48863308603535       55.67556082851309
C           25.20312386542210       89.28364612496257       50.89871764890010
H           24.40221588723092       88.67653883350987       50.50494402100593
C           31.23163762439163       95.55817013905778       51.79275432967511
H           31.38929061337004       96.33173910819160       51.04535347476892
H           32.17146250911588       95.02390062776175       51.93604611422258
H           30.97133810558014       96.04078575248816       52.73524088940086
C           29.46282436384417       95.55805363091480       49.06677252312593
H           28.50063859054253       96.05263078827051       48.93179089558316
H           29.69650698972810       95.01881955227496       48.14856052498156
H           30.22180008962940       96.32172791310680       49.21832056068965
C           31.49076253869874       92.46922912615052       56.08917803758351
H           31.32293418335288       93.53830266403904       55.96638639744064
H           32.48261003477913       92.23659271968212       55.69736447609932
H           31.47913723235255       92.23513473259699       57.15176967511506
C           30.02671848764482       89.76013410145508       56.99484368465864
H           29.14574493248778       89.28093848585138       57.40585223494691
C           31.19458979738033       89.58939049567783       57.60606185482194
H           32.11065204661539       90.00017453683284       57.21884625194519
H           31.27788922566709       89.00536041499697       58.50757830339475
C           26.02784097676875       86.79998992678306       55.15673504324434
H           26.17140806793875       87.33497177379422       56.09435809860759
H           26.80104945384074       86.03325397368918       55.08379035799388
H           25.05735621450901       86.30870888681690       55.18206508513085
C           24.22334953165851       86.88726891638414       52.50160436235222
H           23.40418395722968       87.35633738387762       51.96899592735434
C           24.17040239976001       85.58154303776757       52.74399531195041
H           24.97574939666232       85.05544207486834       53.22638663881843
H           23.32468493551411       84.98604676779939       52.44215995154794
C           23.92227103235832       89.96304257580272       48.20946077040050
H           23.03738794433155       89.97622481110866       48.84596249297277
H           24.19985506078489       88.92263670657177       48.03799704723261
H           23.66235483755334       90.41014116366553       47.25308667310890
C           25.53911977231649       92.58163879591389       47.16183350709368
H           24.74644528149859       92.15674807894526       46.55099802861550
H           26.45973001495961       92.58242692450807       46.57765305075656
H           25.28072494694040       93.61655590496746       47.38718434340917
O           26.30435273174560       92.56930791366125       53.22326956259962
H           26.60501914327126       93.41556813645968       52.87443165075786
H           26.65825997671477       92.48930642275731       54.11575829525619
C           30.34725290302019       87.22841570711131       49.15245726468230
H           30.97466756195609       86.51936058495524       49.69234097713553
H           30.87450147108308       87.52970545470633       48.24730107163506
H           29.42491852022582       86.73133411961014       48.86900568332985
N           31.00899815997058       89.22309422420635       50.51451579125503
H           32.00071448064659       89.11297378933152       50.38060476525403
C           30.03577092080610       88.40759993031641       49.99921717041645
C           30.39509326487645       90.19069821808166       51.23187488567135
H           30.91118446996995       90.97188198385093       51.75049991017008
N           29.09359804544297       90.03781087287693       51.20183669578238
C           28.85438262013938       88.93286451004927       50.43845904544981
H           27.85567959574654       88.59207922418663       50.25859567431588
