78
 energy: -115.954634959367 gnorm: 0.212186342808 xtb: 6.7.1 (edcfbbe)
Fe          29.68000000000000        7.59800000000000        2.74800000000000
N           29.48300000000000        8.68000000000000        4.39900000000000
N           27.53700000000000        7.45400000000000        2.78400000000000
N           29.64200000000000        6.09700000000000        1.32300000000000
N           31.57800000000000        7.43700000000000        2.99200000000000
C           30.54700000000000        9.22300000000000        5.06600000000000
C           30.09800000000000       10.06500000000000        6.11900000000000
C           28.74600000000000       10.04500000000000        6.07100000000000
C           28.36600000000000        9.20000000000000        4.99700000000000
C           26.69200000000000        8.05100000000000        3.65100000000000
C           25.31700000000000        7.70500000000000        3.37000000000000
C           25.35100000000000        6.83100000000000        2.31000000000000
C           26.79700000000000        6.70600000000000        1.93800000000000
C           28.59800000000000        5.60800000000000        0.64400000000000
C           29.09900000000000        4.79200000000000       -0.38200000000000
C           30.46300000000000        4.74600000000000       -0.27900000000000
C           30.78400000000000        5.57400000000000        0.79600000000000
C           32.42800000000000        6.65200000000000        2.29500000000000
C           33.82600000000000        6.77600000000000        2.82400000000000
C           33.79800000000000        7.67900000000000        3.87900000000000
C           32.34300000000000        8.06800000000000        3.94500000000000
C           31.85600000000000        8.96600000000000        4.87100000000000
H           32.57700000000000        9.50400000000000        5.48600000000000
C           27.06200000000000        8.92200000000000        4.67300000000000
H           26.27300000000000        9.40900000000000        5.24600000000000
C           27.26100000000000        5.90700000000000        0.89800000000000
H           26.51700000000000        5.47900000000000        0.22600000000000
C           32.07600000000000        5.81100000000000        1.22500000000000
H           32.88400000000000        5.30800000000000        0.69300000000000
C           27.79400000000000       10.75900000000000        6.97200000000000
H           28.36400000000000       11.34000000000000        7.72800000000000
H           27.14900000000000       10.02200000000000        7.49600000000000
H           27.16700000000000       11.45800000000000        6.37800000000000
C           30.98200000000000       10.84300000000000        7.09000000000000
H           31.85000000000000       11.26800000000000        6.54200000000000
H           31.35600000000000       10.16300000000000        7.88500000000000
H           30.40100000000000       11.67400000000000        7.54400000000000
C           24.07600000000000        8.14500000000000        4.13200000000000
H           23.58600000000000        8.98300000000000        3.59100000000000
H           24.36200000000000        8.49000000000000        5.14800000000000
H           23.36100000000000        7.29800000000000        4.20600000000000
C           24.26700000000000        6.19500000000000        1.53500000000000
H           24.50700000000000        5.33500000000000        0.89300000000000
C           22.97800000000000        6.60100000000000        1.55800000000000
H           22.67300000000000        7.45600000000000        2.18000000000000
H           22.21800000000000        6.08200000000000        0.95500000000000
C           28.22900000000000        4.09100000000000       -1.37200000000000
H           28.06600000000000        4.74800000000000       -2.25300000000000
H           27.24600000000000        3.85800000000000       -0.90900000000000
H           28.72200000000000        3.15400000000000       -1.70800000000000
C           31.48000000000000        4.07400000000000       -1.11500000000000
H           32.52300000000000        4.07800000000000       -0.76800000000000
C           31.24500000000000        3.45100000000000       -2.27300000000000
H           30.22600000000000        3.40400000000000       -2.68500000000000
H           32.06700000000000        2.97700000000000       -2.82900000000000
C           34.98800000000000        6.01900000000000        2.24200000000000
H           35.11200000000000        6.29400000000000        1.17300000000000
H           34.79800000000000        4.92700000000000        2.31300000000000
H           35.91799999999999        6.27900000000000        2.79100000000000
C           34.93800000000000        8.15600000000000        4.78000000000000
H           35.29299999999999        9.15000000000000        4.43400000000000
H           35.78200000000000        7.43500000000000        4.73100000000000
H           34.57600000000000        8.24700000000000        5.82600000000000
O           29.44000000000000        6.27900000000000        3.85800000000000
H           28.49500000000000        6.12700000000000        3.88700000000000
H           30.05900000000000        5.83000000000000        4.31200000000000
C           28.80900000000000       10.51700000000000       -1.89600000000000
H           29.68900000000000       10.72000000000000       -2.54400000000000
H           28.22200000000000       11.45300000000000       -1.78200000000000
H           28.18400000000000        9.73200000000000       -2.37300000000000
N           30.07300000000000       10.82600000000000        0.23900000000000
H           30.40300000000000       11.74100000000000        0.00800000000000
C           29.27000000000000       10.05100000000000       -0.56800000000000
C           30.32500000000000       10.15900000000000        1.35000000000000
H           30.95400000000000       10.52300000000000        2.16200000000000
N           29.67600000000000        8.98000000000000        1.28900000000000
C           29.06800000000000        8.88000000000000        0.07600000000000
H           28.54400000000000        7.98000000000000       -0.22100000000000
78
 energy: -116.005451543300 gnorm: 0.091073920716 xtb: 6.7.1 (edcfbbe)
Fe          29.65834248086678        7.58758851795014        2.75014308519253
N           29.49390823865208        8.73098468059490        4.37331377665537
N           27.52889534798407        7.45707107485348        2.77139850590382
N           29.66471552327144        6.12449102381521        1.33039919219736
N           31.59608176242415        7.44593830336934        2.99533718455055
C           30.54971968031159        9.24333647181041        5.06618848295093
C           30.09744104905990       10.08927029790795        6.13001964766929
C           28.74185052949192       10.06226707440907        6.08256715444712
C           28.37259990329127        9.21194468360498        4.98886263701776
C           26.67965091681760        8.05997897016037        3.63842437814191
C           25.31120425208344        7.69608451275742        3.35581475380369
C           25.35164345913705        6.83980513924350        2.28004724316396
C           26.78311264990666        6.70346540804050        1.93147140000826
C           28.61180535686603        5.62922671116337        0.63944480928891
C           29.09705859340026        4.77779549294721       -0.39801573374938
C           30.46882341468407        4.74115270547022       -0.29997593600046
C           30.79677399903960        5.59250287643708        0.79852285672443
C           32.44471632498044        6.65699596825676        2.29732320864805
C           33.81752159062369        6.77810664549181        2.81608376665268
C           33.77907349468992        7.66765201817981        3.85390811028041
C           32.36318829095038        8.07424044260139        3.93557823252156
C           31.87742506161310        8.96948574929649        4.86476622579028
H           32.59066412024514        9.48693739128488        5.49139503039706
C           27.06318047511196        8.91941244602630        4.66167154695279
H           26.28221379875471        9.39660660576160        5.24073161060680
C           27.26711854352478        5.91165185926800        0.90075547440941
H           26.53002457435010        5.47240716487199        0.23904996284258
C           32.08743597507741        5.82710016129751        1.23983932593908
H           32.88530463685213        5.31778617262495        0.71608880017002
C           27.78677065250015       10.76457368490416        6.97908614061233
H           28.33967366201168       11.33829381767579        7.72787402287511
H           27.14624430532880       10.04079229556917        7.49431424480684
H           27.16200041825538       11.45108233235503        6.39684047499066
C           30.97963604304372       10.84229249942711        7.08509750702427
H           31.83853603099923       11.26646277972517        6.55479334839984
H           31.35058766476359       10.17733899947312        7.87388015413487
H           30.41823855719874       11.66089064376426        7.54342968592408
C           24.09523530288741        8.13976727714062        4.12544024597487
H           23.59896766602833        8.97000996214556        3.60517771405821
H           24.35883536415211        8.48089265423013        5.13172138424395
H           23.38108694313743        7.31302995119947        4.21022848760756
C           24.26669959713600        6.20319660017413        1.54336301495994
H           24.51896288449194        5.35402781890902        0.90953141256386
C           22.98882509729569        6.59553693891968        1.56400830588530
H           22.66947460537336        7.44361602531547        2.15401853583615
H           22.23575865305889        6.09077263535636        0.96793068710265
C           28.21835896591686        4.08259275385231       -1.37603749866725
H           28.05813422917302        4.72655084167253       -2.25084138171254
H           27.24899970530099        3.85509794185747       -0.92439518538953
H           28.68319024915154        3.14932543403601       -1.69939961334612
C           31.46681304403757        4.06436690487911       -1.12015757832863
H           32.49553481815266        4.08244005185008       -0.76244952295861
C           31.24690047078445        3.44768468232394       -2.27821885361594
H           30.26065573380709        3.40575809243483       -2.71431511070740
H           32.05618096940582        2.97991808448410       -2.82517824990774
C           34.97890342428783        6.02641347037337        2.24602903010775
H           35.11444529975335        6.28714780571213        1.18937671040803
H           34.80654789621265        4.94531865633045        2.31160923818966
H           35.90201240190532        6.27126186492201        2.78122199467161
C           34.90223909325030        8.14483311015863        4.75270073458885
H           35.27496613818867        9.12802159612558        4.43357976742209
H           35.74877481239717        7.44799095943079        4.72551553087844
H           34.57359431059656        8.23860117150987        5.79495844554120
O           29.42973879395004        6.22764453561590        3.89883625127918
H           28.48202023113441        6.06502173584812        3.93737935820498
H           30.08236337985418        5.75287186994664        4.38188460882876
C           28.81254054544391       10.52145686955893       -1.90444156329582
H           29.67237406189846       10.72385187221415       -2.55334955796413
H           28.22649507008928       11.44163466046900       -1.79971287858665
H           28.19250872149051        9.75042355971602       -2.36841818221583
N           30.06983952538450       10.83222399346668        0.22839153944071
H           30.40192683203837       11.75198345478267       -0.00207216571755
C           29.27670104414174       10.05749024929470       -0.57651755852081
C           30.31663080086297       10.15067792388258        1.35472512763624
H           30.93353751078851       10.50855896305356        2.16025958160705
N           29.70844866855577        8.97429003510394        1.30794128617066
C           29.07455520037959        8.89466667773826        0.10183589350999
H           28.54704055994160        8.00501669157462       -0.19263029772788
78
 energy: -116.026029019247 gnorm: 0.043051031683 xtb: 6.7.1 (edcfbbe)
Fe          29.63426489669205        7.56796699261895        2.75073561073487
N           29.50750095602146        8.77632653227900        4.34484384505105
N           27.53066958393958        7.45802660002885        2.75928866348764
N           29.68359661201319        6.15782928343357        1.32772217269933
N           31.61203455850730        7.45233764643000        2.99674985315465
C           30.55477416773848        9.27186624176172        5.05367469554430
C           30.09688384981071       10.11248687383804        6.13290041635584
C           28.73943907932545       10.07859114712608        6.08569289082781
C           28.38319085724008        9.23106413826593        4.96898149028979
C           26.67695032101093        8.06872669174580        3.62465457432314
C           25.31355263872140        7.69537784419147        3.34099216294971
C           25.36104960226971        6.84917862741377        2.25522864159371
C           26.77559350315605        6.70840833030133        1.91998466358969
C           28.62443280601963        5.65243546810195        0.63546661964928
C           29.09443787506727        4.77335580284813       -0.40761821347276
C           30.46859920994333        4.74501175675315       -0.31774462556395
C           30.80429944787497        5.61525147205084        0.79323108396558
C           32.45888868268116        6.66052276099430        2.29487873337743
C           33.81093331154084        6.78010899258013        2.80492861891016
C           33.76328719284487        7.66651960430204        3.83363212976106
C           32.37828707682745        8.08250342039557        3.92702127741692
C           31.89226052997379        8.98029394663969        4.85485596444931
H           32.60125139079557        9.46911073932805        5.50367653452199
C           27.07311954415878        8.92284348909799        4.64393779668803
H           26.29796977308875        9.38315970144695        5.23819638681992
C           27.27889078053034        5.91736893773686        0.89928604656160
H           26.54926129373749        5.45652930705504        0.24967158130876
C           32.09426665610465        5.84026828680152        1.24391230966226
H           32.88740789894590        5.31845377097444        0.73327981736851
C           27.77734516262283       10.76958012417042        6.98376216488367
H           28.31534995662247       11.34069984045746        7.73302015050150
H           27.13834244647808       10.05155848971608        7.49245632346423
H           27.14888237194560       11.44883821563297        6.41162596439918
C           30.97701386037847       10.84546634843446        7.08252361295141
H           31.83273201777835       11.26826943827713        6.56281099636928
H           31.34710342203320       10.18338594628871        7.86451681102191
H           30.42976388848768       11.65694828524711        7.55193387138209
C           24.11460462630407        8.13551760035752        4.11584432919100
H           23.61379683827795        8.96348103875454        3.61075243282200
H           24.37741208872409        8.46997559902048        5.11561421823215
H           23.40186455403681        7.31783974022132        4.20873204010478
C           24.27522603702824        6.21527896304030        1.54437364634752
H           24.53930341803117        5.36664127665720        0.92493030487262
C           23.00066776555674        6.59827338996570        1.55946829997523
H           22.66191526323729        7.43975718301731        2.13050108377539
H           22.24967663805559        6.08477215877821        0.98429175385898
C           28.20759966825203        4.07459051274913       -1.37462808993838
H           28.04914623188439        4.70398083120085       -2.25148430072115
H           27.24226314176601        3.85711358187141       -0.92993069833330
H           28.65355830274967        3.13921983320627       -1.69095158404494
C           31.45143702940323        4.06418928772112       -1.12464867551188
H           32.46657036555995        4.08243612714903       -0.74623831399882
C           31.24759462343930        3.45065636313592       -2.28799175096111
H           30.28347678120021        3.40594816338693       -2.75017373857950
H           32.05283240194014        2.97741845521839       -2.81976207212353
C           34.97399739245685        6.03109547507476        2.24769200567535
H           35.11598307134045        6.28439953908320        1.19779202846410
H           34.80852269190100        4.95634298795101        2.31365858335444
H           35.88849586007503        6.27188799411674        2.78153930442905
C           34.87300101784924        8.13642407147698        4.72747821382338
H           35.24540999118062        9.11496383695103        4.41713034063545
H           35.71468748442320        7.44568528199813        4.70529737924978
H           34.54763188200036        8.22466784530440        5.76311856070231
O           29.42184129408421        6.16499803567353        3.96280875143203
H           28.47766250288664        5.97495166788933        4.01770968648366
H           30.08302800814087        5.67759120833240        4.45794261941701
C           28.81548804244305       10.52170999429439       -1.90764757954445
H           29.66241334718960       10.72532181818007       -2.55949350818854
H           28.22978832008072       11.43396509888309       -1.81060591676810
H           28.19800831034244        9.75793287110477       -2.36448048198587
N           30.07175483852431       10.83777874266215        0.22653717343761
H           30.40679827148732       11.75949722072477       -0.00250867611848
C           29.28359975266831       10.06090405014948       -0.57687796241587
C           30.31190461779940       10.14467677146775        1.36333894875472
H           30.91930852519355       10.49975143853937        2.16736409010203
N           29.71682802217821        8.97984586594871        1.33383914451103
C           29.07971202085856        8.90729340590045        0.12639753734606
H           28.54156173652109        8.02955357807622       -0.16544076476270
78
 energy: -116.035742942293 gnorm: 0.037808363638 xtb: 6.7.1 (edcfbbe)
Fe          29.61247907170022        7.54700574114326        2.75919747145149
N           29.51535571439896        8.80740429476647        4.32591832774013
N           27.54086400665238        7.46238892141845        2.74579421008667
N           29.69033379976172        6.18094243785302        1.32205172884648
N           31.61522567330006        7.45751600603119        2.99085492095331
C           30.55891965617790        9.29973989046802        5.03779120844466
C           30.09545244073654       10.13584856619324        6.12538983488037
C           28.73777139468113       10.09783855733915        6.07826117559636
C           28.39068581518458        9.25355528157994        4.94906336558731
C           26.68523767786573        8.07828636741871        3.60948090181837
C           25.32460630376485        7.70670476871515        3.32443028831318
C           25.37292980593897        6.86501340881963        2.23476376964385
C           26.77788557931270        6.71779368628679        1.90699088540265
C           28.62945617290064        5.66890887149283        0.63122432483259
C           29.08876512280079        4.77951255798190       -0.41483961728544
C           30.46149735489989        4.75483081794900       -0.33279585388716
C           30.80419608705581        5.63412567512272        0.78200451953636
C           32.46106425906451        6.66460436487239        2.28610843670594
C           33.80653335858519        6.78144580693706        2.79120373619975
C           33.75428810628461        7.67040882233920        3.81839029826308
C           32.38018270307363        8.09138702452515        3.91635544583381
C           31.89720114561722        8.99312898631696        4.84471865850934
H           32.60805611289040        9.45577341985656        5.51247093051256
C           27.08484106044657        8.93158082308387        4.62682169293775
H           26.31128601268349        9.37546281985977        5.23516378979770
C           27.28809896530107        5.92118992958968        0.89454527885913
H           26.56404479229000        5.43838771394923        0.25543392038308
C           32.09351479344478        5.84770678176684        1.23616838773250
H           32.88843947772952        5.31439818904036        0.74000828338682
C           27.76693795982274       10.77413248410359        6.98266028252888
H           28.29404542555254       11.34604102312862        7.73932103165704
H           27.13078928641726       10.05014150883807        7.48682623834548
H           27.12916555668873       11.45113246660994        6.41820680370198
C           30.97753239797181       10.85331921341378        7.08249109539525
H           31.83575462042063       11.27801764811969        6.56900656852807
H           31.34593006910236       10.18139481796782        7.85717409316681
H           30.43759768192809       11.66148629886224        7.56691960239236
C           24.13343085100308        8.13585713092169        4.10816900805581
H           23.62623966616555        8.96606369607408        3.61515971208150
H           24.40708058694510        8.46137440176866        5.10735125555882
H           23.42353967012341        7.31639209198385        4.20238487361303
C           24.28551579346244        6.22248360010037        1.54151195036994
H           24.55952938331636        5.37039834722907        0.93243624386635
C           23.00736986925534        6.59191900392070        1.55820779025893
H           22.65676121758265        7.45009847375499        2.09878857117637
H           22.26086191697224        6.06531083625753        0.99071764602923
C           28.19437251637394        4.06865058989114       -1.36862022926507
H           28.03877356423806        4.68011407764308       -2.25846027793874
H           27.22587341066926        3.86574547931525       -0.92324423334847
H           28.62667995562136        3.12070459691331       -1.67031487370794
C           31.43816242633769        4.06235369401994       -1.12945451637257
H           32.44443714597909        4.07277808111105       -0.73039938945022
C           31.25155273048163        3.45047199918348       -2.29809991366237
H           30.30418476099743        3.42383210768256       -2.80097792213290
H           32.06454587505389        2.97082244096322       -2.81244741892182
C           34.97379575331623        6.03310609255704        2.24590730340257
H           35.12327738125349        6.28223314194314        1.19692519242263
H           34.80917550600903        4.95926329508911        2.31554156414361
H           35.88245857882733        6.27646886362305        2.78656197075764
C           34.85716825850344        8.13369065302030        4.70930976981224
H           35.22332952334337        9.11331266072322        4.40148210594543
H           35.69443205472467        7.44111841399656        4.68302289045447
H           34.52226191244359        8.21305171961120        5.74085035162884
O           29.41757854387474        6.10249884421430        4.03274708284709
H           28.48201709097236        5.87614501240916        4.10787474793571
H           30.07712437190885        5.60266760046711        4.52953078704624
C           28.82060029577084       10.51914407623100       -1.90275956303627
H           29.66281371753415       10.72237910466348       -2.56049912988525
H           28.23320481912559       11.43065580534308       -1.81209353301697
H           28.20182223170355        9.75481902683378       -2.35622753625564
N           30.07836035054012       10.84026147170308        0.23540005506661
H           30.41816861056799       11.76088897471012        0.00706879810485
C           29.28818610121606       10.06243425426741       -0.56771021007411
C           30.30684527060454       10.14493077871730        1.37938662053058
H           30.90752976503270       10.50223645770923        2.18743456093077
N           29.71128995535271        8.98354584111008        1.35455011277278
C           29.07383762180638        8.91641693750889        0.14600826700365
H           28.51884548254125        8.04980433105385       -0.14259652154597
78
 energy: -116.042736831570 gnorm: 0.032405561660 xtb: 6.7.1 (edcfbbe)
Fe          29.59204093930273        7.53351363536308        2.76783132620416
N           29.51903799688843        8.82631385065568        4.31591666373020
N           27.55750412423677        7.46820373655490        2.73224302057310
N           29.68882552714737        6.19035832513286        1.32138646889787
N           31.61072739844209        7.46212701703694        2.98068066715000
C           30.56217048513681        9.32129399031291        5.02559528756144
C           30.09415290649807       10.15942166729331        6.11375005778202
C           28.73696417597283       10.11976194494169        6.06647472732497
C           28.39572704690997        9.27384949855465        4.93447941167139
C           26.70023976954457        8.08774983547975        3.59398010398667
C           25.34039032907352        7.72390608325000        3.30679988517000
C           25.38563534959302        6.88381032881763        2.21648923388777
C           26.78621627825309        6.72794207973051        1.89503026800978
C           28.62932974059655        5.67654997872307        0.62848773372993
C           29.08211666744695        4.78887499286657       -0.42209783106552
C           30.45223922808501        4.76838315208675       -0.34743614489267
C           30.79991110055350        5.64622209766713        0.77207095199774
C           32.45565306097674        6.66779628910672        2.27579271771051
C           33.80113136095112        6.78418008957279        2.77707635348182
C           33.74753858878486        7.67607938103451        3.80403762013670
C           32.37420726362064        8.09755079084988        3.90523199702810
C           31.89720090085996        9.00193912866921        4.83672011322129
H           32.61230382177512        9.44731578275405        5.51163420343034
C           27.09600784932016        8.94160561736552        4.61188926029536
H           26.32159462345377        9.37429054914904        5.22696233185381
C           27.29320363740758        5.92220874810159        0.88932001719632
H           26.57300232673226        5.42448207358691        0.25827520918060
C           32.08879542372925        5.85050412714323        1.22538361620938
H           32.88824493633064        5.31332166610028        0.73983225068240
C           27.75717099991514       10.78012522652210        6.97623599341269
H           28.27437203435970       11.35341784228569        7.74103116763860
H           27.12786848959610       10.04395879023931        7.47559151608849
H           27.10768727097187       11.45450530262709        6.41903346771252
C           30.97907623626678       10.86376262048558        7.08120514655778
H           31.84074724546774       11.29244510120229        6.57432981245134
H           31.34440309329632       10.17697561447300        7.84646962177735
H           30.44307408346429       11.66726296612862        7.58080737306860
C           24.15282745386401        8.14090991916845        4.09998153638461
H           23.63783672862127        8.97516988856721        3.62143143534625
H           24.43756098482341        8.45430818359344        5.10122927810287
H           23.44761828379279        7.31587483629769        4.18954062975481
C           24.29854307936204        6.23407236372003        1.53029259167954
H           24.57711409098262        5.36622558936092        0.94396445163867
C           23.01843891333474        6.59696186811329        1.54041176595984
H           22.65497354321501        7.45608187004669        2.07143000132732
H           22.27221413907646        6.03520161474217        1.00158807252060
C           28.18582516520598        4.06259325453803       -1.36419511361015
H           28.03140793457512        4.65308512098378       -2.26962748573145
H           27.21315007523031        3.87261854332411       -0.91716813027193
H           28.61619135171457        3.10540368578462       -1.64741241555024
C           31.42605399582814        4.06630826113455       -1.13922418181033
H           32.42293234008698        4.04652195916529       -0.71452245463640
C           31.25207575047238        3.46467726016881       -2.31492754391927
H           30.31554587493917        3.44172328159539       -2.83942253911097
H           32.06986649699240        2.95921280560848       -2.80290895165663
C           34.97292916817727        6.03542059896360        2.24273282481884
H           35.13314278971870        6.27968966113639        1.19336094366786
H           34.80948924340210        4.96077781904001        2.31666917188730
H           35.87665013785503        6.28288076689151        2.79176693063357
C           34.84788008562131        8.13503273187526        4.69462590880735
H           35.20814481851842        9.11830478722014        4.39218908408821
H           35.68413761107909        7.44224135439897        4.66193106407726
H           34.50589654234341        8.20387302197073        5.72493650995467
O           29.41524281716549        6.03640133469827        4.11179321831348
H           28.49517804735082        5.75844724114306        4.20976426096856
H           30.06624033356119        5.51670914600069        4.60042696924808
C           28.82709260483975       10.51837913569838       -1.89457225176621