87
 energy: -128.398750835641 gnorm: 0.232909980847 xtb: 6.7.1 (edcfbbe)
Fe          19.51000000000000       -0.27000000000000       28.21100000000000
N           17.80200000000000       -0.93500000000000       28.95400000000000
N           20.39600000000000       -0.19000000000000       30.02900000000000
N           21.23500000000000        0.50600000000000       27.47500000000000
N           18.72700000000000       -0.31700000000000       26.36800000000000
C           16.73900000000000       -1.44500000000000       28.26300000000000
C           15.83200000000000       -2.10300000000000       29.16800000000000
C           16.34800000000000       -1.96000000000000       30.40200000000000
C           17.58600000000000       -1.22400000000000       30.27900000000000
C           19.69400000000000       -0.48700000000000       31.17400000000000
C           20.51300000000000       -0.23300000000000       32.28600000000000
C           21.70200000000000        0.15400000000000       31.85300000000000
C           21.64700000000000        0.19400000000000       30.40200000000000
C           22.42900000000000        0.68800000000000       28.15000000000000
C           23.45300000000000        1.06200000000000       27.18500000000000
C           22.86600000000000        1.13600000000000       25.97400000000000
C           21.46400000000000        0.79400000000000       26.14400000000000
C           19.24900000000000        0.27000000000000       25.25000000000000
C           18.22500000000000        0.29000000000000       24.21600000000000
C           17.13900000000000       -0.30800000000000       24.69600000000000
C           17.43700000000000       -0.67900000000000       26.05400000000000
C           16.57300000000000       -1.32800000000000       26.91900000000000
H           15.68300000000000       -1.78400000000000       26.48500000000000
C           18.41100000000000       -0.91000000000000       31.30500000000000
H           18.01400000000000       -1.00400000000000       32.31600000000000
C           22.61900000000000        0.52400000000000       29.50000000000000
H           23.62900000000000        0.66900000000000       29.88400000000000
C           20.53100000000000        0.74300000000000       25.14300000000000
H           20.83800000000000        1.11500000000000       24.16600000000000
C           15.81400000000000       -2.46400000000000       31.75800000000000
H           14.86200000000000       -3.01400000000000       31.60000000000000
H           15.62400000000000       -1.60100000000000       32.43100000000000
H           16.55400000000000       -3.15100000000000       32.22100000000000
C           14.52000000000000       -2.79200000000000       28.70400000000000
H           14.76100000000000       -3.60200000000000       27.98200000000000
H           13.86200000000000       -2.04900000000000       28.20499999999999
H           13.99800000000000       -3.23400000000000       29.58000000000000
C           20.09500000000000       -0.44400000000000       33.74800000000000
H           19.35800000000000       -1.27300000000000       33.80700000000000
H           19.62700000000000        0.48300000000000       34.14200000000000
H           20.98500000000000       -0.70900000000000       34.35800000000000
C           22.83800000000000        0.36300000000000       32.87500000000000
H           22.65500000000000        0.84300000000000       33.84700000000000
C           24.07300000000000       -0.05100000000000       32.56700000000000
H           24.27500000000000       -0.53300000000000       31.59900000000000
H           24.90100000000000        0.08600000000000       33.27800000000000
C           24.91500000000000        1.34600000000000       27.57500000000000
H           25.45800000000000        0.38500000000000       27.70200000000000
H           24.94600000000000        1.90700000000000       28.53300000000000
H           25.40900000000000        1.93600000000000       26.77400000000000
C           23.42600000000000        1.50000000000000       24.56300000000000
H           22.76400000000000        1.99200000000000       23.83599999999999
C           24.66300000000000        1.25200000000000       24.17800000000000
H           25.37300000000000        0.76200000000000       24.86100000000000
H           25.00100000000000        1.53200000000000       23.16900000000000
C           18.41700000000000        0.86200000000000       22.79000000000000
H           19.10100000000000        0.20200000000000       22.21500000000000
H           18.86200000000000        1.87800000000000       22.85000000000000
H           17.43700000000000        0.90700000000000       22.26899999999999
C           15.77100000000000       -0.54600000000000       24.00100000000000
H           15.78900000000000       -1.52200000000000       23.47100000000000
H           15.58000000000000        0.26200000000000       23.26300000000000
H           14.96200000000000       -0.56500000000000       24.76200000000000
C           19.29600000000000        5.27800000000000       29.27500000000000
H           18.65400000000000        5.66700000000000       30.09400000000000
H           19.13100000000000        5.89300000000000       28.36500000000000
H           20.36000000000000        5.34200000000000       29.58900000000000
N           17.68200000000000        3.45800000000000       28.59400000000000
H           16.90000000000000        4.07300000000000       28.49700000000000
C           18.93700000000000        3.85300000000000       28.99400000000000
C           17.67800000000000        2.15500000000000       28.36300000000000
H           16.81000000000000        1.58800000000000       28.02900000000000
N           18.89200000000000        1.68700000000000       28.60700000000000
C           19.70500000000000        2.73500000000000       28.96600000000000
H           20.75800000000000        2.58600000000000       29.16900000000000
C           19.54100000000000       -5.83900000000000       27.56800000000000
H           20.41200000000000       -6.46100000000000       27.86799999999999
H           19.21100000000000       -6.14700000000000       26.55300000000000
H           18.71800000000000       -5.99500000000000       28.29800000000000
N           20.94600000000000       -3.90900000000000       26.74800000000000
H           21.50400000000000       -4.47900000000000       26.14600000000000
C           19.94000000000000       -4.39000000000000       27.55500000000000
C           21.05700000000000       -2.59500000000000       26.89200000000000
H           21.78400000000000       -1.97300000000000       26.37200000000000
N           20.14500000000000       -2.20000000000000       27.76000000000000
C           19.43300000000000       -3.30700000000000       28.19200000000000
H           18.63200000000000       -3.21300000000000       28.91400000000000
87
 energy: -128.444966721594 gnorm: 0.095240141909 xtb: 6.7.1 (edcfbbe)
Fe          19.52783830793162       -0.25794509307118       28.21098275205326
N           17.81207212531114       -0.96009549021653       28.95105978627514
N           20.38643683964895       -0.20122405540629       30.03994897457022
N           21.24767617956117        0.48764582807258       27.46148025386891
N           18.69909489714167       -0.27282970624449       26.37768616539051
C           16.74340000224464       -1.45921488827510       28.26472597871470
C           15.81405324768645       -2.10786423635778       29.16479613683714
C           16.32597416658752       -1.96037876250267       30.41050057447723
C           17.56765213478766       -1.23325156405230       30.26677967292036
C           19.68897644473893       -0.46486078923481       31.18486409154008
C           20.51556122738609       -0.23270937072051       32.31892034557902
C           21.73096264285124        0.15515646069691       31.87026911096068
C           21.64295740334419        0.17767818741196       30.41242551272905
C           22.43337800801204        0.67321448707858       28.12744274862468
C           23.46273074268671        1.06890615352830       27.17732138033545
C           22.86959120833176        1.14941266819883       25.95230016847182
C           21.47338290480302        0.79127321153407       26.14550735691315
C           19.23052029574056        0.28419003416414       25.25110999986137
C           18.23225075644985        0.29032914536542       24.19433852568773
C           17.12722665162198       -0.31343070579656       24.68744146964308
C           17.43358304910677       -0.67598829677011       26.04956048945638
C           16.56939277194996       -1.33323480107227       26.90900420395367
H           15.67442697874655       -1.76917935058979       26.48088710254899
C           18.39535203556029       -0.90562028040431       31.30704072604978
H           18.00897023278663       -1.02491162157100       32.31121294376886
C           22.62123062224087        0.52059442622740       29.49448234416209
H           23.62116569970897        0.69129432342953       29.87952549360570
C           20.52724296363888        0.74742717463141       25.13995520098658
H           20.83492511284172        1.10685910569122       24.16464858439241
C           15.81030471673403       -2.46016820649516       31.74102636733146
H           14.87309659005598       -3.00648422665418       31.60424050233976
H           15.62792665965581       -1.61811274727647       32.41755776416996
H           16.53925316353949       -3.13257570821088       32.20820122428579
C           14.53678011795710       -2.78652737561346       28.71136283438952
H           14.76151022576184       -3.58670915048533       27.99687775977175
H           13.87815346973075       -2.06238924873376       28.21933181968916
H           14.00814660641398       -3.22187280072423       29.56424144889550
C           20.09762892744603       -0.44517716776897       33.75014860062998
H           19.37271102672019       -1.26114242897326       33.81734929095585
H           19.63629463051748        0.46724641182716       34.14379115515899
H           20.96813751797484       -0.70369365492970       34.35722296766832
C           22.85712728092461        0.38425172106805       32.82148998291245
H           22.63861170654661        0.83252308500560       33.79194372851728
C           24.08387183557544       -0.04286821011084       32.55529992373549
H           24.29669225927914       -0.53591625866091       31.61633086272194
H           24.89439575561534        0.07520006278448       33.26692230767945
C           24.89792105213163        1.34383941115704       27.56705357608573
H           25.44592032190232        0.40222573953449       27.69855297188506
H           24.94202322422411        1.89670442387820       28.51125360864705
H           25.39651595568245        1.93032153489883       26.79005587371295
C           23.42580840589209        1.49983226210753       24.60147582342494
H           22.75185494416905        1.97707740171946       23.88979910329886
C           24.66300530882836        1.24998303928102       24.19673184681689
H           25.37687385203044        0.75798676066908       24.84454802770214
H           24.99649758026402        1.52260481665372       23.19838699181822
C           18.42334523072192        0.85679863180876       22.80354427260639
H           19.09467234549452        0.21349551261648       22.22449477838887
H           18.85562295176950        1.86133416826999       22.84989154352215
H           17.46221824615526        0.90700581215774       22.28285463532543
C           15.78945704816580       -0.54573058835360       24.00959355949754
H           15.79229479697132       -1.50621024841647       23.48160800867359
H           15.58604209140513        0.24542854685309       23.28107880579735
H           14.98128553713200       -0.55987473319928       24.74672047631697
C           19.28971825267945        5.27711772077166       29.27569622165988
H           18.66369675906130        5.67186598192220       30.08418830981360
H           19.13770045274284        5.89451654203182       28.38328168490428
H           20.33743497755992        5.34098435392570       29.58030831245626
N           17.67959125012616        3.47465259234739       28.59721916010525
H           16.89117767739035        4.09037072367819       28.50274090646370
C           18.93703778814826        3.86065064105944       28.98375876128793
C           17.69061673584491        2.15436839808728       28.36398458054594
H           16.83318732496434        1.58945587821468       28.03920807484474
N           18.89747398152581        1.67640729828656       28.57626734342587
C           19.68946602513721        2.72431847625717       28.96101878683477
H           20.73258122746931        2.57790317315202       29.17228110957466
C           19.54794337059087       -5.83587678039187       27.56689485198032
H           20.39838054785052       -6.46108805471405       27.86258161466237
H           19.21366406294851       -6.14978623726777       26.57170780739076
H           18.73487757226125       -5.98943539923343       28.28107897770276
N           20.94674146231928       -3.92458171220853       26.74525820454622
H           21.51037173807847       -4.49256631783274       26.13733764219852
C           19.93953007757086       -4.39689348721548       27.54688421226399
C           21.04166010789320       -2.59538280691044       26.90869578122318
H           21.75739354183236       -1.97586261752141       26.39329660243536
N           20.14404151986912       -2.19031549758634       27.78056279927499
C           19.44577360780546       -3.30179405796077       28.18699459324808
H           18.65291290149384       -3.21567759232023       28.90455312240567
87
 energy: -128.456754082625 gnorm: 0.016129475848 xtb: 6.7.1 (edcfbbe)
Fe          19.53537203036837       -0.24816120241043       28.21184822497160
N           17.81324362487127       -0.97444191081269       28.95319800755644
N           20.37105620938318       -0.20386878119953       30.04618705002297
N           21.25166651556048        0.46727179733669       27.45231599326182
N           18.68019297442614       -0.23875015032590       26.38603325212182
C           16.74805524919565       -1.46837269608819       28.26438219228068
C           15.80571293961695       -2.11153023168959       29.15920158561804
C           16.31185157967773       -1.95945090537343       30.41387946307233
C           17.55841858089488       -1.24343644795110       30.25970386287355
C           19.68429853311199       -0.44758547099628       31.19185651071546
C           20.51703284777090       -0.22554654436606       32.33711442750121
C           21.74807961758891        0.14820111358344       31.87031826466669
C           21.63358318577506        0.16104252375296       30.41188138868782
C           22.42978328366839        0.65369183177133       28.11329638416130
C           23.46385721676896        1.06170010682107       27.17915379628627
C           22.86866931719224        1.14815488089139       25.94401784972446
C           21.47430042047775        0.78627704782382       26.14993415001902
C           19.21436113980450        0.30481326501887       25.25889582031012
C           18.23849042702538        0.29342202014482       24.18539317102364
C           17.12393719379810       -0.31384059976472       24.68436368133055
C           17.42926924624211       -0.65792758619704       26.05322805793965
C           16.56243083427751       -1.32545223790931       26.90337215418215
H           15.66221946703047       -1.74430586708937       26.47767098373959
C           18.38686895757377       -0.90954997355939       31.30875449261475
H           18.00626910631642       -1.05339063795471       32.30786138815470
C           22.61382865222199        0.51494349947487       29.48957987910076
H           23.60285077082278        0.72084840109450       29.87806637139744
C           20.52045659664459        0.75476625389226       25.14167779703696
H           20.82958074312802        1.09690665241370       24.16418586379803
C           15.80095019111634       -2.45318409724502       31.72442969404469
H           14.87126428731946       -2.99998718229073       31.59928471992504
H           15.62426801889549       -1.62260649082363       32.40653856856922
H           16.52874227395603       -3.11785319483656       32.18977270601307
C           14.55035620831770       -2.78022246324064       28.71629791484650
H           14.76865803917405       -3.57610874351936       28.00548118080123
H           13.88840398605909       -2.06636739609276       28.22718504807476
H           14.02081172049563       -3.21172958969670       29.56085313633915
C           20.10590693680133       -0.43903402877819       33.75329973353369
H           19.38791714808952       -1.25062957950602       33.82805662943996
H           19.64208975558488        0.46173149250411       34.15449090559463
H           20.96466020455120       -0.69288431764796       34.36590042934397
C           22.86822662333376        0.37161092220195       32.76323281696621
H           22.62490971492780        0.83894324953917       33.71280910868815
C           24.10516884785800       -0.04608940014507       32.53232071505329
H           24.34466760706628       -0.54326980010444       31.61114131309534
H           24.90026579223336        0.08469653946265       33.24612833640801
C           24.87883315046326        1.34309656422442       27.56025693892626
H           25.43149168909396        0.41159246765607       27.69260133536531
H           24.92676840589109        1.89199444286836       28.49869111979849
H           25.37635692816287        1.92973239833386       26.79280332435085
C           23.42149513120476        1.49130356324903       24.64967440026653
H           22.73784190301773        1.96707554436782       23.95465341854720
C           24.65859501284222        1.24536681560250       24.22626990497528
H           25.38346487427678        0.74678319201327       24.84306598596530
H           24.98425844652381        1.52177527914819       23.23562835021952
C           18.43233811798400        0.85040109366327       22.81701628706433
H           19.10103804260377        0.21875741380319       22.23359209958202
H           18.85916199303701        1.85003632264706       22.85854786374724
H           17.48058594845636        0.90406081688440       22.29408869624709
C           15.81090956960270       -0.54753427060550       24.01395842035702
H           15.80296875614381       -1.50277957406208       23.48868987076645
H           15.60316008446959        0.23556999550328       23.28807338163595
H           15.00242808854909       -0.55541536231338       24.74033783525361
C           19.28644239328519        5.27339138795211       29.27734612489453
H           18.66653728641214        5.66749292828063       30.08086702000582
H           19.13999346425751        5.89674069814404       28.39617446699692
H           20.32663663005467        5.33617711137887       29.57657584912483
N           17.67597065893323        3.48277038107661       28.59662542031810
H           16.88253305871400        4.09668380327279       28.50789598363414
C           18.93736860356885        3.86231117451093       28.97265347690143
C           17.70027071022285        2.15288249079639       28.35519583598414
H           16.84878594388577        1.58719781279371       28.03976431743485
N           18.89946177904698        1.66739461290458       28.55427374731459
C           19.68014826402643        2.71622887595393       28.94458880711608
H           20.71643361650615        2.57384538268326       29.17028933090682
C           19.55313838547960       -5.83359802121783       27.56645167903000
H           20.39435740269736       -6.45948704090306       27.85925385453299
H           19.21551608070312       -6.15273233445029       26.58142264056283
H           18.74540278465087       -5.98214809673665       28.27454016760262
N           20.94916650677656       -3.92991696235773       26.74050693506304
H           21.51677854964276       -4.49152361516213       26.12653042642188
C           19.94283495979292       -4.40111072699232       27.54085996583439
C           21.03137591375306       -2.59260242406231       26.92407708943444
H           21.73751052934730       -1.97087145616539       26.41317683051652
N           20.13904684641275       -2.18599656468075       27.79388031547877
C           19.46027161002930       -3.30267422142522       28.18991784961244
H           18.67231726246370       -3.23271596869075       28.90758761130243
87
 energy: -128.459328057455 gnorm: 0.012166539628 xtb: 6.7.1 (edcfbbe)
Fe          19.52939065450694       -0.24756122570727       28.21610993667770
N           17.80814888481429       -0.97702680512789       28.95777501512097
N           20.35615685339609       -0.21505966771672       30.04857208925583
N           21.24284645543587        0.45207751702973       27.45360242331838
N           18.66929946776004       -0.21546224204881       26.39569386077813
C           16.74488494058744       -1.46422598136084       28.26415892561329
C           15.80160945422626       -2.10747642955399       29.15560248745672
C           16.30314631548453       -1.95628084287995       30.41195525859309
C           17.55299209331780       -1.24677861028018       30.26233614461789
C           19.67721376491694       -0.45023992198566       31.19913452872265
C           20.51964819488815       -0.22850021945395       32.34033818506278
C           21.75205572323027        0.12963329282244       31.85619545732426
C           21.62251082284938        0.13967361706291       30.40413876427596
C           22.41922122545978        0.63637383678452       28.11477123693096
C           23.45407127773099        1.04646239590806       27.19049974934943
C           22.86104776064942        1.13614241332599       25.95487226856322
C           21.46648773627244        0.77894865839779       26.15608177265711
C           19.20715620573239        0.32032071120614       25.26847035824316
C           18.24119309647443        0.30031603275291       24.19013535907178
C           17.12553345309411       -0.30622112489435       24.68698578357833
C           17.42249361752404       -0.63795534084256       26.06047412581574
C           16.55282638681780       -1.30856598402832       26.90466084766469
H           15.64616969174586       -1.71326574522175       26.47859578914758
C           18.38029045112754       -0.91821198159771       31.31504516564566
H           18.00194646103548       -1.08294850422507       32.31239483577594
C           22.60121300219457        0.50288825552485       29.48889013580698
H           23.58238255114799        0.73823154435135       29.88176414632287
C           20.51515237632441        0.75849844863441       25.14656403656124
H           20.82622107811101        1.09158751565699       24.16672042276414
C           15.78513142438868       -2.44955742972565       31.71797168454401
H           14.85442288201090       -2.99552303503632       31.59124656749626
H           15.60858275261179       -1.61943842052213       32.40161087822978
H           16.51308977969805       -3.11511755252453       32.18307048656109
C           14.54895573534159       -2.77885881538823       28.71393338313495
H           14.76959134556729       -3.57487001669687       28.00299277174766
H           13.88370428575939       -2.06665214956883       28.22541856695145
H           14.02218983930402       -3.21053283642372       29.56104932986994
C           20.11851458780351       -0.43012044453354       33.76197924554732
H           19.40394987121742       -1.24543748601102       33.84820617276770
H           19.65063522380453        0.47000614477102       34.16344449134143
H           20.98069923158505       -0.67478112247995       34.37615635257524
C           22.89356534370098        0.37556403562100       32.71455742846582
H           22.64701774280385        0.85134607397159       33.65794329770570
C           24.13786103895130       -0.02995636779135       32.49155631478913
H           24.39062784560228       -0.56695195397433       31.59201013736463
H           24.92324105350664        0.10715146889162       33.21512580222849
C           24.86530992768144        1.34120450388987       27.56457805507741
H           25.42914484891605        0.41508824197934       27.69224668740300
H           24.91139999704429        1.89110486355172       28.50300935070920
H           25.35048796798544        1.93436065171575       26.79320049015822
C           23.42157965971600        1.48851112927355       24.67261821279951
H           22.73597779276050        1.97055396499550       23.98463774278493
C           24.65983402245464        1.24623796687704       24.24981095311791
H           25.38354550695323        0.72602934987919       24.85311778865417
H           24.98491310016147        1.53476371825913       23.26383935039580
C           18.44702747651469        0.85045402103387       22.82177744480354
H           19.12056204513608        0.21837145683858       22.24267437640321
H           18.87499040236803        1.85061027904692       22.86475751415199
H           17.49845512222585        0.90369674400466       22.29170411778695
C           15.82050459190611       -0.54992178635062       24.00908239955891
H           15.81742769461078       -1.50984281905395       23.49117331480253
H           15.61767855959394        0.22817348882107       23.27542286204954
H           15.00745113719142       -0.55247317687760       24.73163633595452
C           19.28378302121114        5.26822073962803       29.27841910820344
H           18.66326465828613        5.65625395164745       30.08495580913869
H           19.13919528136195        5.90168901007491       28.40305756691169
H           20.32442724194753        5.32770777284092       29.57888382548451
N           17.67172266625449        3.48136318332591       28.58844149422934
H           16.87605323402654        4.09357939486318       28.50735652136917
C           18.93503990345090        3.85923627143948       28.96269563264741
C           17.69941075986948        2.15108224430258       28.34115183437920
H           16.84770225076851        1.58262858336518       28.03133148929619
N           18.89906954345162        1.66552908306607       28.53392131628120
C           19.67778826144085        2.71372906795582       28.92774475230951
H           20.71259115599781        2.57326939103677       29.16124043023837
C           19.56158642462621       -5.83555370316402       27.56597959972516
H           20.40215732454890       -6.46372540716011       27.85761106436708
H           19.21940594761997       -6.15686110199056       26.58254626914613
H           18.75447125303235       -5.98006274516235       28.27651935108756
N           20.95136771824119       -3.92330280182006       26.73732239520471
H           21.51916229635519       -4.47681456467718       26.11592662283017
C           19.95044098355172       -4.40323917718309       27.54051456060993
C           21.02656260333833       -2.58587262381500       26.93269223499415
H           21.72531324859468       -1.95575774057892       26.42288105473553
N           20.13845990043145       -2.18901475331973       27.80990369925815
C           19.46793624618129       -3.31142244796644       28.20039603321264
H           18.68470824167910       -3.25822792970474       28.92540831569135
87
 energy: -128.461187916772 gnorm: 0.010157831433 xtb: 6.7.1 (edcfbbe)
Fe          19.51887098553830       -0.24410132579061       28.22164162596373
N           17.80178285786114       -0.97646196595498       28.96507580449236
N           20.33406196821888       -0.22606365282948       30.05170114386131
N           21.22870343290985        0.43645614847216       27.45852920037224
N           18.66059894865850       -0.19720515960280       26.40697102687215
C           16.73919566924549       -1.45387151574306       28.26602539953695
C           15.79475362277809       -2.09839132094043       29.15263890207177
C           16.29191182292189       -1.95239748449258       30.41027062963862
C           17.54697972415106       -1.25060363682658       30.26842370669021
C           19.66832508603720       -0.45709972144952       31.21077987342801
C           20.52462076125146       -0.23452300282902       32.34410657927780
C           21.75631138019675        0.10060304141597       31.83856198387682
C           21.60574662912143        0.11433855862662       30.39494068073012
C           22.40474017162451        0.61760328379474       28.12050179463731
C           23.44017662668646        1.02734221918660       27.20641164603787
C           22.85081522412024        1.12022114384694       25.97045687193660
C           21.45659490296374        0.76761395651172       26.16441304752493
C           19.20183836640756        0.33308051181010       25.28032432271357
C           18.24532711737798        0.30736436192570       24.19799338880493
C           17.12774963743579       -0.29536449291098       24.69118219033856
C           17.41447572816778       -0.61527427164361       26.06991629681095
C           16.53876839110075       -1.28195833714654       26.90943622293912
H           15.62433342396528       -1.66935745192447       26.48408161486113
C           18.37337634386522       -0.93336904569607       31.32586081470799
H           17.99662627885899       -1.12072069824430       32.32035758947160
C           22.58398842758909        0.48889265504238       29.49117149891183
H           23.55625204932487        0.74345792982618       29.88871653429918
C           20.51075842193721        0.75927435952913       25.15262070681939
H           20.82231280456346        1.08740010354066       24.17180014978775
C           15.76114799054402       -2.44545594584599       31.71191146681219
H           14.82793499986456       -2.98689076389156       31.57809666616025