78
 energy: -116.058078024359 gnorm: 0.000049466700 xtb: 6.7.1 (edcfbbe)
Fe          27.77674640848794       90.89753410722710       51.96063359472593
N           28.73082394081328       92.56448968881946       51.35532807164603
N           28.90711247343804       90.87437869746101       53.63019604786874
N           26.79750779814917       89.28240323373112       52.59668280313328
N           26.63005836843529       90.97005924497712       50.33372291143076
C           28.53390758435900       93.23999944521390       50.19181468667127
C           29.44315571643486       94.35844353468363       50.08961722327806
C           30.19994725415758       94.34222315667121       51.22035492306986
C           29.74466026288241       93.21122609049692       51.99661085570266
C           29.89552520944124       91.75117964378992       53.96808474983150
C           30.51251833340854       91.37315449465395       55.21166695149195
C           29.88337399356142       90.22572106540488       55.62092824705052
C           28.87806112477540       89.94045352804892       54.61728663843898
C           27.04278418394571       88.57085992202359       53.73028215470673
C           26.14382697287754       87.44852480946685       53.83686447201735
C           25.34065548758869       87.49420998252994       52.72936238985508
C           25.76969388247138       88.65610448295813       51.97342574167498
C           25.62858042662884       90.11365296143389       50.00717367433015
C           25.03487704342575       90.47758335280284       48.73790747952138
C           25.70736748969930       91.57603251604290       48.30499483467108
C           26.70117335869883       91.86764235337635       49.31659680710208
C           27.58772420932533       92.92376743052665       49.23489614266814
H           27.53667782240688       93.55253881694009       48.35931147117311
C           30.28469159471241       92.84762779190582       53.21513371884480
H           31.09177348845828       93.45294823794528       53.59875738959482
C           28.02013903875572       88.85904580098897       54.66561446059779
H           28.12116031638497       88.18236200950311       55.50013672286603
C           25.21985191028578       89.03108003334644       50.76163348577459
H           24.41290608744193       88.43014626852593       50.37072016594286
C           31.29110451491229       95.26681714620145       51.64054008176574
H           31.04434935867058       95.74755829833732       52.58764637624289
H           31.44864324898228       96.04230396411907       50.89510415814635
H           32.22727072553506       94.72331028591087       51.77238411300615
C           29.48374302669979       95.30602588997051       48.94026495024184
H           28.52473626759973       95.81212242943420       48.82685803637734
H           29.69581346817193       94.77373435394726       48.01282808849695
H           30.25330143863083       96.06011475991308       49.08633558784106
C           31.57247922264614       92.14820279100188       55.91439107716528
H           31.41008437902554       93.21875808342857       55.79751368224041
H           32.56047084734726       91.91158195687008       55.51528831952769
H           31.56626201408439       91.90933701056562       56.97598895803993
C           30.10486744359840       89.43919198333140       56.81372428650826
H           29.22558497074715       88.95968449242851       57.22795414044948
C           31.27671724469075       89.26108430512132       57.41518648026813
H           32.19108818637037       89.67183868158705       57.02399860751263
H           31.36497293477787       88.67073794944700       58.31210413703132
C           26.08617351203401       86.50143601693183       54.98419800967913
H           26.23947895775767       87.02696217098450       55.92562032521369
H           26.85791437599705       85.73482129790099       54.89602483711586
H           25.11551674733026       86.01078501115664       55.01425432577548
C           24.25398907762073       86.61885593522710       52.34910880926697
H           23.43018573783900       87.09473171568901       51.82986358255823
C           24.20100133528776       85.31083623663125       52.57886633958404
H           25.01014191358066       84.77841720851555       53.04778084074034
H           23.35085225595463       84.72006447773400       52.28020150230126
C           23.90625653134416       89.74531884204141       48.09717471545083
H           23.02883041735360       89.75531739289985       48.74399049460761
H           24.17803458861598       88.70569861680606       47.91224735620737
H           23.63694458048225       90.20277970432616       47.14832823022560
C           25.51576497218522       92.37251813757680       47.06004119500253
H           24.71464752265299       91.95635385682328       46.45423644120507
H           26.42888605264813       92.37886286819712       46.46426662295229
H           25.26209581902959       93.40507125232052       47.30110298038925
O           26.36016023697290       92.29357862997907       53.10441410594800
H           26.64280479752844       93.13922350476673       52.73942020873497
H           26.74073094721246       92.22471291040326       53.98681759636837
C           30.32970508517218       86.98334013474050       48.92260595840546
H           30.95581273925412       86.26146444183841       49.44681645077889
H           30.85220653975022       87.29424647165594       48.01796797791716
H           29.40140158261134       86.49754260724431       48.63907863158139
N           31.01709737379347       88.95569799890261       50.30430107025445
H           32.00660954310142       88.84304241434441       50.15688211111237
C           30.03392585977100       88.15196553122739       49.78940080441809
C           30.41641058923971       89.91590219683521       51.04249304528143
H           30.94229448346155       90.68745906508990       51.56566908513094
N           29.11392844171290       89.76935339494860       51.02605382618631
C           28.86038965393147       88.67630332670774       50.25024465252783
H           27.85803665482945       88.34253954643297       50.07767797055502
