78
 energy: -115.970359918263 gnorm: 0.275299623474 xtb: 6.7.1 (edcfbbe)
Fe          27.83300000000000       90.90300000000001       52.00000000000000
N           28.71800000000000       92.55099999999999       51.44499999999999
N           28.98000000000000       90.87200000000000       53.64099999999999
N           26.77199999999999       89.33799999999999       52.65299999999999
N           26.56300000000000       91.09399999999999       50.42300000000000
C           28.48800000000000       93.29799999999999       50.31000000000000
C           29.30200000000000       94.48600000000000       50.24300000000000
C           30.07100000000000       94.45600000000000       51.35500000000000
C           29.67899999999999       93.30199999999999       52.11999999999999
C           29.95100000000000       91.77700000000000       54.03099999999999
C           30.52200000000000       91.35499999999999       55.26500000000000
C           30.08100000000000       90.10699999999999       55.53100000000000
C           28.99600000000000       89.87000000000000       54.59599999999999
C           27.03800000000000       88.58600000000000       53.77900000000000
C           26.10500000000000       87.49500000000000       53.91300000000000
C           25.22200000000000       87.63099999999999       52.89200000000000
C           25.67200000000000       88.71200000000000       52.06500000000000
C           25.67900000000000       90.11100000000000       50.02600000000000
C           25.21400000000000       90.37300000000000       48.68200000000000
C           25.94200000000000       91.41799999999999       48.21200000000000
C           26.84400000000000       91.80800000000001       49.26100000000000
C           27.71100000000000       92.91200000000001       49.23000000000000
H           27.77600000000000       93.49399999999999       48.31099999999999
C           30.19100000000000       92.98599999999999       53.36900000000000
H           30.81900000000000       93.72499999999999       53.86600000000000
C           28.11400000000000       88.79399999999998       54.61099999999999
H           28.29600000000000       88.03000000000000       55.36700000000000
C           25.16600000000000       89.11900000000000       50.83700000000000
H           24.27500000000000       88.60399999999998       50.47800000000000
C           31.03600000000000       95.53300000000000       51.84900000000000
H           30.54900000000000       96.12699999999998       52.65199999999999
H           31.30300000000000       96.21100000000000       51.01000000000000
H           31.95200000000000       95.05699999999999       52.25899999999999
C           29.31600000000000       95.49199999999999       49.10700000000000
H           28.27900000000000       95.65800000000000       48.74500000000000
H           29.93200000000000       95.10299999999999       48.26800000000000
H           29.73100000000000       96.45800000000000       49.46600000000000
C           31.73500000000000       92.09099999999999       55.87500000000000
H           31.61400000000000       93.18600000000001       55.73400000000000
H           32.66700000000000       91.76299999999999       55.36700000000000
H           31.79800000000000       91.87300000000000       56.96200000000000
C           30.34700000000000       89.29299999999999       56.65900000000000
H           29.51800000000000       88.69199999999999       57.05800000000000
C           31.61200000000000       89.15800000000000       57.36300000000000
H           32.49700000000000       89.72199999999999       57.03400000000000
H           31.69800000000000       88.48999999999999       58.23300000000000
C           25.99600000000000       86.59399999999998       55.14500000000000
H           26.28500000000000       87.16800000000001       56.05099999999999
H           26.67899999999999       85.72499999999999       55.03600000000000
H           24.94900000000000       86.24100000000000       55.26100000000000
C           23.98100000000000       86.93400000000000       52.64200000000000
H           23.11000000000000       87.50199999999998       52.28400000000000
C           23.81300000000000       85.55799999999999       52.82900000000000
H           24.64800000000000       84.93699999999998       53.18500000000000
H           22.84400000000000       85.08100000000000       52.62199999999999
C           24.20900000000000       89.48999999999999       47.95400000000000
H           23.20799999999999       89.60199999999999       48.42400000000000
H           24.52300000000000       88.42700000000001       48.02500000000000
H           24.14300000000000       89.79599999999999       46.88799999999999
C           25.93700000000000       91.97799999999999       46.77799999999999
H           24.93800000000000       91.81500000000000       46.31999999999999
H           26.70300000000000       91.45399999999998       46.16800000000000
H           26.15000000000000       93.06800000000000       46.80000000000000
O           26.62500000000000       92.11299999999999       52.99200000000000
H           26.00200000000000       92.45000000000000       52.34800000000000
H           26.64600000000000       92.31200000000000       53.85799999999999
C           30.15900000000000       87.31499999999998       48.38999999999999
H           30.45300000000000       86.31799999999998       48.78299999999999
H           30.98800000000000       87.71500000000000       47.76800000000000
H           29.24100000000000       87.20300000000000       47.77400000000000
N           30.86400000000000       88.56100000000001       50.47700000000000
H           31.79100000000000       88.18800000000000       50.47199999999999
C           29.89200000000000       88.23900000000000       49.52700000000000
C           30.39300000000000       89.40900000000001       51.36100000000000
H           30.97200000000000       89.79900000000001       52.19799999999999
N           29.10100000000000       89.70800000000000       51.06500000000000
C           28.85500000000000       88.96200000000000       49.95300000000000
H           27.86500000000000       89.01700000000000       49.52000000000000
78
 energy: -116.027474885355 gnorm: 0.108901455007 xtb: 6.7.1 (edcfbbe)
Fe          27.85134250917935       90.90018380935518       52.00283600422370
N           28.73814369377511       92.56207200459990       51.43000859864832
N           28.98388863104523       90.86341648056465       53.65116960122811
N           26.78460287024536       89.32189565156530       52.64688025983826
N           26.61139395773794       91.05121473579800       50.39066954339305
C           28.50666437469461       93.28198520239960       50.28875816966926
C           29.30956911953725       94.48306727032976       50.24027156800897
C           30.05892520607323       94.47496793799836       51.37362838161167
C           29.67685002245396       93.30050562702402       52.12102320770822
C           29.92508178116416       91.78536727668634       54.03990543921542
C           30.56972192911728       91.35386356279869       55.24302398162815
C           30.07564511849871       90.11359094049551       55.55635587086510
C           29.01204015983278       89.86388796692718       54.58840572454516
C           27.05595394089124       88.57887979178855       53.76564425784974
C           26.09392059943270       87.51226343292586       53.92836746101451
C           25.21154585262707       87.63290882407429       52.89009976991765
C           25.67247628182215       88.73643207202441       52.07603090914559
C           25.65682160534038       90.13075715333527       50.03437095497443
C           25.22020553989024       90.35874641813356       48.67498051566435
C           25.95243175647708       91.40494565813812       48.19718964207784
C           26.82366202927076       91.82120203741782       49.26555106051975
C           27.69637285999800       92.90353904884344       49.23207109853474
H           27.76081660008427       93.48380860671715       48.31984340386440
C           30.18060857134753       92.97825433671601       53.36673785319771
H           30.82751870334787       93.70381054651256       53.84869668835746
C           28.13181021420257       88.79075947550901       54.60855325713196
H           28.29388609449246       88.04193840120422       55.37629984544159
C           25.15346643048634       89.13220751436315       50.85293103601632
H           24.28970047541166       88.58990816393789       50.48003016005902
C           31.02926990200024       95.52482747078081       51.84975880720339
H           30.56061199949914       96.12055258906319       52.64264411391238
H           31.30211256260619       96.19492468470180       51.02795732541781
H           31.93913736281733       95.06613007026435       52.25106424501298
C           29.31331407307094       95.48235737070576       49.11719454329911
H           28.29573534759480       95.65626025995121       48.75011535564570
H           29.92287064825183       95.11348350567988       48.28228203628235
H           29.72343433662292       96.43914674641843       49.45710666090076
C           31.72953246534095       92.08961920817124       55.87297934941751
H           31.61738565816406       93.16980914298057       55.73824457580140
H           32.65631383348074       91.77123413127832       55.38226196507301
H           31.79477721285662       91.87379089334596       56.94416337800947
C           30.37394636781881       89.28685275867223       56.68788921515304
H           29.54909142458338       88.68295962139686       57.06392670045702
C           31.56976599475601       89.16707087698782       57.33988623243335
H           32.45716619735585       89.70495825529622       57.02478736465320
H           31.67378191753605       88.51141310700996       58.19904482629052
C           25.99875063352475       86.60686281515957       55.13236082860481
H           26.28143272533478       87.15760498782814       56.03649067999223
H           26.66610844526999       85.74110222489102       55.03519744666906
H           24.97058915605588       86.24633949891026       55.25168601255233
C           23.98344648792814       86.90590557618636       52.63866247824683
H           23.13025077081924       87.48246562817617       52.28007001943362
C           23.81615639082362       85.58292208783269       52.83230646787023
H           24.63328126444497       84.95667572827729       53.17201136379204
H           22.86566643360768       85.09990852370368       52.62948354870855
C           24.21393492975208       89.49887348435715       47.95977811343645
H           23.22125244037518       89.60015534389532       48.41607723381635
H           24.51447361496853       88.44660180583796       48.02101770230099
H           24.14359454366060       89.78691988414496       46.90617643338876
C           25.93535746822495       91.97393108074452       46.79505313495149
H           24.95565413076516       91.81803668945362       46.33051691351464
H           26.69131744166053       91.46856662999518       46.18146058057322
H           26.14707912186580       93.04806932496300       46.80077604037194
O           26.59963396191377       92.11296057372601       52.98551404319812
H           25.97163787718102       92.47382394631830       52.36009644205863
H           26.62017944594924       92.33937363139010       53.89739639999220
C           30.16166825424879       87.31632128864415       48.39899149087672
H           30.45113246679369       86.32674176216973       48.77252428374955
H           30.97416465992973       87.70372217329162       47.77250198413888
H           29.26029185080107       87.20839887457821       47.78775060061966
N           30.87628197207447       88.55130720130381       50.46823833397246
H           31.80850271350795       88.17814530888957       50.46904624463934
C           29.90192942761109       88.23988027089470       49.53300420779833
C           30.38293010214512       89.41379995583819       51.35519350743217
H           30.94863010512920       89.80279194588935       52.18606278986274
N           29.11329972451403       89.70435829253199       51.05991859306214
C           28.83869900937311       88.96912138295070       49.94785261185117
H           27.85635819691259       89.01954143633805       49.51614250921071
78
 energy: -116.041840825580 gnorm: 0.041441445267 xtb: 6.7.1 (edcfbbe)
Fe          27.85680402484969       90.89829872034878       52.00070518618464
N           28.75888634146205       92.56788164349288       51.41465169977689
N           28.98242575933890       90.85541024253519       53.65536590116263
N           26.80135435570253       89.30775892367186       52.64554603878812
N           26.63424619833529       91.02424579508191       50.37040593409471
C           28.53127025018706       93.26205715654595       50.26724772041569
C           29.32132525428801       94.47519353111872       50.23460139045724
C           30.04609203569811       94.49001902345897       51.38746644216231
C           29.67244700178419       93.29826938577710       52.11924009945945
C           29.91033754633070       91.77917907917713       54.03629477127727
C           30.59863424343201       91.34711496065127       55.22274234277418
C           30.06631247662153       90.12146589040901       55.56519648446535
C           29.02018875315387       89.86200952910303       54.58160225387553
C           27.07415429088079       88.57422394974641       53.75804766863826
C           26.08888560629697       87.52974839293816       53.93849392569381
C           25.20810606384234       87.64766568930375       52.89375531671396
C           25.68738152024216       88.75607483413222       52.08458593373493
C           25.65699386691497       90.13391267507856       50.03702568353004
C           25.22104796096633       90.35077696067638       48.67637446967090
C           25.95557238126024       91.39487928573277       48.19354642507414
C           26.82404431124882       91.80879015587850       49.26886409131346
C           27.69606598491265       92.88099196166732       49.23045193396284
H           27.73433857591271       93.47525802608450       48.32953170728612
C           30.17961096458738       92.96116879964519       53.35744580216618
H           30.85006282832075       93.67008112620914       53.82490870537715
C           28.14558660712925       88.78837285386469       54.61237028790288
H           28.28998938604125       88.05567510905519       55.39451400406152
C           25.15998632750788       89.13368162130766       50.86172403970727
H           24.30926405664619       88.57829545928071       50.48835758405429
C           31.01762149844718       95.52108003667888       51.85473985504372
H           30.57115905198140       96.12294546000692       52.64676908143765
H           31.29674575285421       96.18213655077207       51.03899291385053
H           31.92298178080881       95.06268917797007       52.24542954112540
C           29.31516565509117       95.47329779116765       49.12462579851014
H           28.30499505233566       95.64797102666199       48.76116319196512
H           29.91868352143826       95.11691157172227       48.28898191340544
H           29.72252713470507       96.42424931169361       49.45770447534853
C           31.72186808715893       92.08347082046207       55.86677136373980
H           31.61282746920060       93.15709879882800       55.74048059167492
H           32.66195416922928       91.78384477376368       55.40169704318611
H           31.77880941281337       91.86540321298232       56.92961139223086
C           30.38619698000934       89.27952975376617       56.69645818217690
H           29.55847047633661       88.67863228557326       57.05799656367159
C           31.53947013154576       89.17413092561542       57.31825375987578
H           32.42894217565696       89.69690075330381       57.01259932300614
H           31.65722596560598       88.52736437736105       58.17304888622241
C           26.00126754845419       86.62071665731798       55.11912059797073
H           26.28139864300888       87.15347642957778       56.02604425700105
H           26.66242626990087       85.75944246558279       55.01845072502600
H           24.98339270330145       86.25342191149414       55.23458077147961
C           23.99010952402218       86.89888616570518       52.63846102499602
H           23.15478096181020       87.48211628009805       52.26392826007777
C           23.82642914687802       85.60103910279686       52.82965282594827
H           24.62817224572219       84.96830270430326       53.16801603442423
H           22.88407072630738       85.11376054477199       52.64027319840849
C           24.21761250917987       89.50603465786273       47.96625914657471
H           23.23146021850763       89.60367632735613       48.41889080795424
H           24.50777546589487       88.45728405925473       48.01744621220060
H           24.14479707572772       89.78873024126386       46.92013418829462
C           25.93451040704770       91.96775881421145       46.81402579500735
H           24.96388450848122       91.81794123719283       46.34707491257227
H           26.68608481985757       91.47797100363988       46.19280741465435
H           26.14699093978249       93.03325546930301       46.81902643172653
O           26.54398066423112       92.10735034425333       52.99452899777549
H           25.92016090955149       92.52779941515686       52.39764171406162
H           26.58301327240371       92.38021688468747       53.91261982585785
C           30.16293439383240       87.31776743377728       48.40762695177070
H           30.44988145863555       86.33175637445629       48.76965140013314
H           30.96592147373459       87.69692414839297       47.77660892788386
H           29.26746641891606       87.21718770305682       47.80340124264703
N           30.88764652387138       88.54486093187798       50.46135296270169
H           31.82283000225548       88.17174231033819       50.46798458987093
C           29.91299314542125       88.24231891118463       49.54137235402987
C           30.37367646104902       89.42100445981200       51.34716679541025
H           30.92630426130187       89.81373296488803       52.17493863195966
N           29.12394041585732       89.70193602613645       51.05175251086593
C           28.82971511418453       88.97220095948381       49.93951085134886
H           27.85431248175649       89.01622965046280       49.50426191911338
78
 energy: -116.046856984705 gnorm: 0.029642170953 xtb: 6.7.1 (edcfbbe)
Fe          27.84968785795733       90.90046296152427       52.00362152611940
N           28.76573815642220       92.56667488076147       51.40560553089581
N           28.98085357218511       90.85013168723236       53.65228891722874
N           26.81881066101166       89.29947545223538       52.64234933587678
N           26.65502106345243       90.99815484252726       50.35856405429697
C           28.54563217803918       93.24982801890090       50.25357503291192
C           29.32945348678897       94.46734245179950       50.22874161314842
C           30.03789974640680       94.49353775365765       51.39116490288428
C           29.66999427376089       93.29400945207647       52.11440633530891
C           29.91286511653384       91.76719831686783       54.02419391391479
C           30.60910396579267       91.33704640996727       55.20785851081879
C           30.06001553819335       90.12264931505405       55.55965620597632
C           29.02169364077663       89.85977183769477       54.57643819708539
C           27.08544642005606       88.57275417038758       53.75662351977090
C           26.08986151907529       87.54069734548855       53.94130500410298
C           25.21235295445297       87.66117226828949       52.89592734084020
C           25.70171923769820       88.76518197827430       52.08750923966601
C           25.66486056783076       90.12424475474049       50.03612241709725
C           25.22476875816573       90.34105304919396       48.67767103075629
C           25.95995933126150       91.38308202417485       48.19413622844850
C           26.83314319634010       91.79251943127670       49.26871471907602
C           27.69979323642125       92.86676692281972       49.22657133112358
H           27.71503000069809       93.47021467763821       48.33124789457845
C           30.18964875258443       92.94401429299110       53.34355654514616
H           30.88759901757987       93.63510821322467       53.79677968628007
C           28.15047071903634       88.78619540010625       54.61805512348486
H           28.28219777945911       88.06756208973709       55.41486112080586
C           25.16709596270113       89.13048486113873       50.86585785508449
H           24.32357674294688       88.56447075555084       50.49636256364922
C           31.00967185445055       95.51890827625279       51.86082995665945
H           30.57708591589498       96.12444210726952       52.65765507011490
H           31.29196640614136       96.17869049371311       51.04606145976206
H           31.91352871630018       95.05261325896296       52.24498497368885
C           29.31950145628385       95.46732462501440       49.12468467618689
H           28.30762724115812       95.64193961215203       48.76815016885693
H           29.91837443913388       95.11638648536947       48.28425249819004
H           29.72781306220165       96.41612027172732       49.45981691590092
C           31.71506381457016       92.08018125832500       55.86769160088118
H           31.59971288367104       93.15354532729425       55.74539147337769
H           32.67238498276176       91.79634945894280       55.42440777076840
H           31.75364590433561       91.85583523891364       56.92989054330031
C           30.37248903270840       89.27695658316519       56.69274802143794
H           29.54413573113154       88.67301223144206       57.04640372678802
C           31.54031399852881       89.17475148202297       57.31311479932915
H           32.42687614475623       89.69430174039846       56.99892522816834
H           31.66493607260996       88.52855575852722       58.16611702579306
C           26.00413437012214       86.62674911547435       55.11148278391136
H           26.28200760113992       87.14942614609394       56.02444648870987
H           26.66839016875955       85.77028182478412       54.99944442716537
H           24.98832366176509       86.25422269280040       55.21927500743232
C           23.99908377975740       86.90929233261873       52.63436654931798
H           23.17331385939141       87.49253424873064       52.24152006036608
C           23.83353391216946       85.61122496102243       52.83960954331646
H           24.63318987662416       84.97643993890716       53.17668292692346
H           22.89590531292848       85.12053817127322       52.64183203999696
C           24.21351980379091       89.50804760046272       47.97088219625341
H           23.23070101039167       89.60940053269424       48.42818495456481
H           24.49626875550083       88.45728936019569       48.01446261248282
H           24.13913871331950       89.79521702062715       46.92681170777962
C           25.93350727564636       91.96663115719213       46.82474846343106
H           24.96313522355756       91.81789658363576       46.35884595363122
H           26.68659200031654       91.48777717288809       46.19709354918304
H           26.14395495892704       93.03177050108528       46.84117745762681
O           26.46407845410321       92.08849485639755       53.01515085894670
H           25.88088654871242       92.60183738976768       52.43202007199583
H           26.54906705310433       92.43358890606140       53.91833995622963
C           30.16437154441493       87.31684108126524       48.41386282087210
H           30.44946116218476       86.33005960081940       48.77311264181352
H           30.96439691280918       87.69146338114372       47.77738552929660
H           29.26523197471460       87.22243923374397       47.81620313252974
N           30.89517768095855       88.54811037140691       50.46029798837396
H           31.83114861071724       88.17516457877961       50.47129340377525
C           29.92138216565709       88.24466108585585       49.54652263562799
C           30.37026483398579       89.43215034421081       51.34127904830043
H           30.91487238284515       89.83315493441262       52.16877009684469
N           29.12530305031847       89.70608882406735       51.04316320169028
C           28.82969088496109       88.97283664162784       49.93176521452513
H           27.85754534613830       89.00964958512893       49.49007507150408
78
 energy: -116.049372175591 gnorm: 0.050040283078 xtb: 6.7.1 (edcfbbe)
Fe          27.83899393212067       90.89687934994826       52.00367408017145
N           28.75854574121613       92.56868540938673       51.40421855315048
N           28.97683485048547       90.84573470410606       53.64733178400387
N           26.83647859683893       89.29453371499508       52.64085148485439
N           26.67180953869352       90.97397511681503       50.35429884284611
C           28.55129381754120       93.24431266458772       50.24577609300260
C           29.33608038544204       94.46006412152019       50.22294863410880
C           30.03047691605900       94.49309851971476       51.39165878509920
C           29.66401795149607       93.29126469895346       52.11103741381617
C           29.92286060418142       91.75178748468130       54.00770927267595
C           30.61951602946397       91.32375489961100       55.19211426173101
C           30.05932355671236       90.12060741167866       55.54978958772793
C           29.01817845207790       89.85995110459510       54.57630023257001
C           27.09231520552553       88.57409319358268       53.76091322710829
C           26.09312376222601       87.54879990171787       53.94329569111356
C           25.21945472413953       87.67343015371632       52.89785619573359
C           25.71922825193570       88.77026517284440       52.08883518442040
C           25.67808096355513       90.10911676347851       50.03493801808138
C           25.22866887536336       90.33217286113627       48.68089676586704
C           25.96354729702550       91.37278244953340       48.19894573951100
C           26.84473920990173       91.77469994000612       49.27238241034961
C           27.70379444380704       92.85519349531246       49.22469186399339
H           27.70194160811234       93.46041926434523       48.33072206521643
C           30.20744635972936       92.92413655450071       53.32563612073253
H           30.93555984234824       93.59395490962191       53.76267391641018
C           28.14884001975734       88.78662474918718       54.63019928436870
H           28.27319446235390       88.07885228074677       55.43574633125133
C           25.17956700144205       89.12087831264900       50.86628008590976
H           24.33710556066579       88.55022622522485       50.50687959819331
C           31.00385094623210       95.51511012379387       51.86655701940389
H           30.58113787029413       96.11880971057508       52.67127352178921
H           31.28655332957182       96.17953733845151       51.05398402523021
H           31.90746833176246       95.03874113866102       52.24400175599322
C           29.32528173332032       95.46166013964658       49.12087099147176
H           28.30927921488376       95.64080526877216       48.77419803674080
H           29.91514525868277       95.11115053616868       48.27288432926656
H           29.74073121088429       96.40794842896008       49.45796718023267
C           31.70729393606137       92.07788312513144       55.87222396200744
H           31.57816297863500       93.15178666505898       55.75317987127785
H           32.68200824922852       91.81129321317265       55.45164996081049
H           31.72158508184507       91.84481889887608       56.93528223963748
C           30.36160457042304       89.27191400405471       56.68146919683156
H           29.53509446629271       88.67155000208963       57.04033867494125
C           31.53707849027218       89.16921867128065       57.29949353270481
H           32.41508859162979       89.69654907319233       56.97647509185579
H           31.66140948259014       88.52618718758563       58.15460552737861
C           26.00850024507146       86.62677343330633       55.10575139552807
H           26.28148517322476       87.14082706843884       56.02610036009995
H           26.68062086495470       85.77675201625627       54.98156541573199
H           24.99351176234016       86.24743762468093       55.20499292122329
C           24.01141274104995       86.92278798918184       52.62487680623782
H           23.19179574918230       87.50219483175883       52.21493138108858
C           23.84526339012881       85.62187217693472       52.84070012885888
H           24.63817527568970       84.99313522893053       53.20644765222480
H           22.90668533780111       85.13132089567863       52.64359636649871
C           24.20539500856367       89.51037069470486       47.97723075244468
H           23.22650910915396       89.61801837236138       48.44398928570004
H           24.47870179182957       88.45537056488412       48.01130864888343
H           24.12592674115237       89.80626580281782       46.93453105965955
C           25.93148516598981       91.96962269820651       46.83554224022562
H           24.96029374975983       91.81942704110891       46.36976553251986
H           26.68846081062239       91.50450768664300       46.20009571343901
H           26.13481609999645       93.03725440003271       46.86752187174247
O           26.35657250618881       92.05965701741702       53.04039123108552
H           25.84770996468218       92.68875486650758       52.47094056130907
H           26.51401130369894       92.51604549246262       53.90720649427687
C           30.16811506236735       87.31197926073189       48.41850321572291