78
 energy: -116.001462760821 gnorm: 0.219100414358 xtb: 6.7.1 (edcfbbe)
Fe         -11.56900000000000       -2.34300000000000       -1.25200000000000
N          -12.10900000000000       -0.65000000000000       -2.11100000000000
N           -9.84900000000000       -2.32900000000000       -2.27400000000000
N          -10.88700000000000       -3.93200000000000       -0.20400000000000
N          -13.21100000000000       -2.26200000000000       -0.07400000000000
C          -13.31400000000000        0.03000000000000       -1.93200000000000
C          -13.32000000000000        1.24100000000000       -2.74900000000000
C          -12.16100000000000        1.29100000000000       -3.46500000000000
C          -11.43800000000000        0.07900000000000       -3.06600000000000
C           -9.52000000000000       -1.44700000000000       -3.29600000000000
C           -8.31100000000000       -1.84600000000000       -3.97500000000000
C           -7.99600000000000       -3.06200000000000       -3.41100000000000
C           -8.87000000000000       -3.34000000000000       -2.31500000000000
C           -9.73300000000000       -4.63900000000000       -0.45300000000000
C           -9.55700000000000       -5.65900000000000        0.58700000000000
C          -10.61300000000000       -5.58100000000000        1.41900000000000
C          -11.47200000000000       -4.46200000000000        0.93700000000000
C          -13.54900000000000       -3.16000000000000        0.91900000000000
C          -14.91500000000000       -2.96800000000000        1.36800000000000
C          -15.38600000000000       -1.86500000000000        0.58300000000000
C          -14.30300000000000       -1.45100000000000       -0.26600000000000
C          -14.31900000000000       -0.36900000000000       -1.11900000000000
H          -15.23300000000000        0.22500000000000       -1.14100000000000
C          -10.18800000000000       -0.27300000000000       -3.58600000000000
H           -9.70700000000000        0.42800000000000       -4.26800000000000
C           -8.85900000000000       -4.42100000000000       -1.47500000000000
H           -8.08500000000000       -5.17100000000000       -1.63800000000000
C          -12.70900000000000       -4.16200000000000        1.41200000000000
H          -13.07800000000000       -4.75400000000000        2.25000000000000
C          -11.66000000000000        2.34300000000000       -4.47800000000000
H          -12.41800000000000        3.14800000000000       -4.58200000000000
H          -11.50400000000000        1.86500000000000       -5.46900000000000
H          -10.70800000000000        2.78800000000000       -4.11700000000000
C          -14.43300000000000        2.26500000000000       -2.69700000000000
H          -14.75800000000000        2.40600000000000       -1.64400000000000
H          -15.29800000000000        1.91000000000000       -3.29700000000000
H          -14.06800000000000        3.23600000000000       -3.09400000000000
C           -7.63400000000000       -1.11700000000000       -5.11600000000000
H           -7.83000000000000       -0.02700000000000       -5.02800000000000
H           -8.03900000000000       -1.47800000000000       -6.08500000000000
H           -6.53700000000000       -1.29100000000000       -5.07400000000000
C           -6.84300000000000       -3.93800000000000       -3.74700000000000
H           -6.44300000000000       -4.59800000000000       -2.96400000000000
C           -6.24900000000000       -3.99400000000000       -4.91900000000000
H           -6.59500000000000       -3.36200000000000       -5.75100000000000
H           -5.39900000000000       -4.67300000000000       -5.08200000000000
C           -8.35600000000000       -6.58300000000000        0.66000000000000
H           -7.43500000000000       -6.01500000000000        0.40700000000000
H           -8.47800000000000       -7.41500000000000       -0.06600000000000
H           -8.25700000000000       -6.98900000000000        1.68900000000000
C          -10.92200000000000       -6.30900000000000        2.65400000000000
H          -11.37700000000000       -5.76200000000000        3.49300000000000
C          -10.69000000000000       -7.59500000000000        2.83600000000000
H          -10.23700000000000       -8.19900000000000        2.03600000000000
H          -10.94700000000000       -8.07900000000000        3.79000000000000
C          -15.68800000000000       -3.81100000000000        2.32400000000000
H          -15.27400000000000       -3.68600000000000        3.34700000000000
H          -15.60800000000000       -4.88000000000000        2.03100000000000
H          -16.75300000000000       -3.49600000000000        2.32500000000000
C          -16.75800000000000       -1.25800000000000        0.64200000000000
H          -17.17000000000000       -1.37200000000000        1.66800000000000
H          -17.42900000000000       -1.77700000000000       -0.07500000000000
H          -16.70100000000000       -0.17600000000000        0.39400000000000
O          -10.56200000000000       -0.98800000000000        0.09500000000000
H          -10.75300000000000       -0.10700000000000       -0.22500000000000
H          -10.06800000000000       -1.19400000000000        0.80500000000000
C          -14.76300000000000       -6.11900000000000       -3.86700000000000
H          -14.32700000000000       -7.10900000000000       -4.11900000000000
H          -15.32000000000000       -5.73500000000000       -4.74800000000000
H          -15.45300000000000       -6.23800000000000       -3.00400000000000
N          -12.65300000000000       -4.82700000000000       -4.37100000000000
H          -12.52500000000000       -5.21300000000000       -5.28400000000000
C          -13.66900000000000       -5.17000000000000       -3.51000000000000
C          -11.88100000000000       -3.90700000000000       -3.78800000000000
H          -10.99600000000000       -3.46700000000000       -4.24600000000000
N          -12.36800000000000       -3.63900000000000       -2.60000000000000
C          -13.46800000000000       -4.42600000000000       -2.38600000000000
H          -14.01200000000000       -4.38700000000000       -1.45000000000000
78
 energy: -116.037526085527 gnorm: 0.085094157427 xtb: 6.7.1 (edcfbbe)
Fe         -11.54685191502053       -2.33544146049479       -1.23874784758041
N          -12.12546321079363       -0.66006971174181       -2.15303519558162
N           -9.85326580216943       -2.33832548913845       -2.30466039037847
N          -10.88287501503148       -3.92454091270219       -0.19406738557155
N          -13.21407479296350       -2.28144310706330       -0.08477694991337
C          -13.30388972554689        0.03012772006189       -1.94449422770583
C          -13.31795453094336        1.24390131907534       -2.74504307735043
C          -12.15736422887101        1.28269128522876       -3.45494171015734
C          -11.42947970033626        0.08063662147864       -3.06745238228536
C           -9.50416480102146       -1.43892906192069       -3.28085914179709
C           -8.31226798696597       -1.86098385979374       -3.97507734558565
C           -7.96610921175760       -3.06376029163154       -3.40582121675332
C           -8.89472346790273       -3.33678104990384       -2.34258892676047
C           -9.74322567643218       -4.63415909782581       -0.43860478418653
C           -9.56183645286960       -5.65956039634869        0.58215313279386
C          -10.61823177968879       -5.56465342512601        1.43026920464615
C          -11.46683367116921       -4.47321790229126        0.91912204116603
C          -13.55381693073479       -3.16515506771919        0.90130212589507
C          -14.91362587829632       -2.95360930223632        1.33807214944292
C          -15.37961790504513       -1.87817575551155        0.59331806195094
C          -14.30014543548986       -1.47031767013319       -0.26280838072174
C          -14.32100744674793       -0.37516522573971       -1.11680920545894
H          -15.22869835779233        0.21941882626466       -1.13245176205555
C          -10.18697066032257       -0.26918004056712       -3.57575459785709
H           -9.72724878121824        0.41560248062719       -4.27801184687615
C           -8.86876741218257       -4.41667163390393       -1.48192713323293
H           -8.08236537036281       -5.15104804128875       -1.62718901786748
C          -12.71176581327708       -4.15849046756787        1.40401831167194
H          -13.08065861565508       -4.74276371338215        2.24056340384245
C          -11.67150020663920        2.31691308589228       -4.45123905321815
H          -12.40634431181524        3.11964585362030       -4.57015920149847
H          -11.50781695359346        1.86460219248665       -5.43594246962952
H          -10.72909030580890        2.76701112581313       -4.11882659953238
C          -14.42494960292485        2.25669628600989       -2.69798716783464
H          -14.75549148009859        2.40780762255867       -1.66499920254745
H          -15.28539398204650        1.92076320569221       -3.28794681156059
H          -14.08166661213928        3.21762806883734       -3.09160174103651
C           -7.64476066832531       -1.12471898698447       -5.09894278969489
H           -7.82818541503045       -0.04781733566666       -5.02718897266753
H           -8.02877374586518       -1.46783551954045       -6.06755125764628
H           -6.56241928359458       -1.28850145985812       -5.07203822519084
C           -6.83633230907235       -3.92926970374416       -3.74041965721687
H           -6.46500599566970       -4.58644486074427       -2.95619417775696
C           -6.24228204170100       -3.99258914679601       -4.92456775978110
H           -6.58193819380260       -3.39177767198887       -5.75764279158345
H           -5.40660074953657       -4.66054728858866       -5.09409131405140
C           -8.36936822392222       -6.57135282107289        0.65803278823649
H           -7.45264127580775       -6.02537835481925        0.40984282334787
H           -8.47433202132943       -7.40178942685279       -0.04999782475974
H           -8.26376575884523       -6.98078724239126        1.66743384811338
C          -10.91781009975247       -6.30167860249857        2.65101757371464
H          -11.37868759567160       -5.74870867583806        3.46843341792182
C          -10.68260338226987       -7.59528686974520        2.83483783384215
H          -10.25046138663024       -8.20444622968051        2.05063081169322
H          -10.93526184900958       -8.08276211961676        3.76982975354073
C          -15.67385585883892       -3.79307457828801        2.31150548621296
H          -15.27703849677467       -3.68761456968964        3.32948385679223
H          -15.61137570053366       -4.85396405845278        2.03856036910048
H          -16.72935882570680       -3.50443333957185        2.32619156920049
C          -16.74417532371800       -1.26574976700563        0.64824061148303
H          -17.16978353922176       -1.36738425107483        1.65167170595434
H          -17.41902810613841       -1.76103741793260       -0.06136479364849
H          -16.70707385512164       -0.20008555780841        0.39972802387915
O          -10.57308069189830       -0.97598485386701        0.10497891869620
H          -10.73364399769738       -0.08468516165855       -0.20158498945394
H          -10.03643234937772       -1.17675682910990        0.84977113507708
C          -14.75536752634268       -6.12275530840985       -3.86806340884310
H          -14.34026222823313       -7.10485981256178       -4.11920398632069
H          -15.31713939744318       -5.75174737483276       -4.73266382417163
H          -15.43908775587270       -6.23581968109183       -3.02370773448165
N          -12.66342271677785       -4.83218664860411       -4.37467613706663
H          -12.53104320584549       -5.22301372832594       -5.29137260277736
C          -13.67330307121446       -5.16740961397988       -3.51097399318797
C          -11.89406199474016       -3.90033472529561       -3.78142399619342
H          -11.01890648931722       -3.46835294545762       -4.23466767749109
N          -12.36371499905786       -3.62155210990700       -2.58805619354364
C          -13.46343309396478       -4.41010916143832       -2.39402685323615
H          -14.00362674865271       -4.37739919882414       -1.46676322491581
78
 energy: -116.046749983271 gnorm: 0.027052417266 xtb: 6.7.1 (edcfbbe)
Fe         -11.53435610671307       -2.33704881700970       -1.23464253209720
N          -12.13463036926828       -0.66032733242659       -2.16792122953111
N           -9.85256532587329       -2.34065619647727       -2.31997474529966
N          -10.87956167796928       -3.91588917105757       -0.18806978407569
N          -13.21503568226471       -2.29694745246266       -0.09965857171010
C          -13.29894933305848        0.02113988908664       -1.95632570027910
C          -13.31862939108153        1.24114308948801       -2.73800390984560
C          -12.15468299797081        1.27318474679631       -3.44218374621562
C          -11.42873893429909        0.07430429759482       -3.07040952996862
C           -9.50107630861032       -1.44136075048726       -3.27826345126854
C           -8.31314372081499       -1.86959230659092       -3.97149490894554
C           -7.94987197397451       -3.06775739357538       -3.40455419868676
C           -8.91371485402810       -3.32792865465499       -2.35529336205116
C           -9.74684741932935       -4.62397911281477       -0.42845045204733
C           -9.56641320396511       -5.65515721962136        0.57250402588477
C          -10.62871529903741       -5.55105205709618        1.42748843487712
C          -11.45771575175696       -4.46957964959996        0.90987376727961
C          -13.55454016402355       -3.17439817655826        0.88016395079744
C          -14.91269534693964       -2.94766583819930        1.31389692475296
C          -15.37391630241715       -1.88920732826822        0.59597463986200
C          -14.29477992395626       -1.48607375257758       -0.27179021867138
C          -14.32345965938677       -0.38780680772593       -1.12227227293325
H          -15.22235735650948        0.21261906901411       -1.12399742646876
C          -10.19652844598948       -0.27860926148947       -3.58253452947615
H           -9.75055071175695        0.39645678800125       -4.29781215685876
C           -8.87255676711597       -4.40373328791080       -1.48244642917500
H           -8.07638564425172       -5.12368234954053       -1.61462712456414
C          -12.71133760141459       -4.15182901273099        1.39721783127238
H          -13.08315225835483       -4.73389867359654        2.22882941983098
C          -11.67832277840073        2.29268073316091       -4.42388776343820
H          -12.40862649665221        3.08895478920503       -4.54350583747665
H          -11.51408914180882        1.84287516734904       -5.40233164931050
H          -10.73860012566333        2.74060723973631       -4.10208027335964
C          -14.41941351971502        2.24823272153188       -2.69958142942923
H          -14.75244571845791        2.40591789265720       -1.67627035175108
H          -15.27513101267921        1.91593484099834       -3.28588628670752
H          -14.08447579110076        3.20190326918946       -3.09755279217300
C           -7.64886370522858       -1.12760923662575       -5.08040572552494
H           -7.83241058792701       -0.05883537558084       -5.00898287250256
H           -8.02448958887422       -1.46310198629901       -6.04855023505026
H           -6.57426239932883       -1.29225965087373       -5.05808896471982
C           -6.83968946479913       -3.92793693081257       -3.73892717987755
H           -6.48112684865887       -4.57042516006860       -2.94509841578724
C           -6.24189732225277       -3.99803386955852       -4.92696416990666
H           -6.57106914624151       -3.41737142082743       -5.76650912427067
H           -5.40901165018643       -4.65610382349193       -5.09588953074808
C           -8.38297794943087       -6.55974708241465        0.65567661570227
H           -7.46909661647621       -6.02219673623939        0.41141619348957
H           -8.48042195261656       -7.39018468170212       -0.04370306037131
H           -8.28418723304289       -6.96816067341661        1.65799613104457
C          -10.92380776488157       -6.29671532510558        2.63524593918399
H          -11.38427678323904       -5.73394807420444        3.43851203405752
C          -10.68098354725063       -7.59108625303931        2.82422363554187
H          -10.25519588813952       -8.20706760681271        2.05408473536484
H          -10.91846796436164       -8.07762907853288        3.75419900128520
C          -15.65936737183338       -3.78186981972172        2.30326336291470
H          -15.25766121392098       -3.67379213913257        3.31101391819642
H          -15.60058010811089       -4.83693996267068        2.03591491668690
H          -16.70865178285280       -3.49997230878580        2.32427077180235
C          -16.73182940133933       -1.27033151225037        0.65100654311930
H          -17.16092919267607       -1.37025142905775        1.64460507420878
H          -17.40466051072361       -1.75566049798977       -0.05770132603625
H          -16.69589399251168       -0.21309836035139        0.40338191400219
O          -10.60490632845917       -0.96396744863299        0.14532036336873
H          -10.68334010049255       -0.05458710124535       -0.15886799775653
H          -10.00232867312239       -1.15125053658261        0.86844189782945
C          -14.75264715968513       -6.12772090211971       -3.86629145162414
H          -14.34038187829142       -7.10284189822155       -4.11636523153356
H          -15.31650851401907       -5.76554435083127       -4.72467456855339
H          -15.43132423952981       -6.23863035866009       -3.02912164305098
N          -12.67481974649377       -4.83301095638834       -4.38019214474403
H          -12.53809637994652       -5.22642878684503       -5.29754470154895
C          -13.68023940994013       -5.16431502625222       -3.51248535693583
C          -11.90855526785393       -3.89403881438374       -3.78200193532528
H          -11.04194549488709       -3.46296754336190       -4.23469733750337
N          -12.36577833209011       -3.61024928798133       -2.58605644952130
C          -13.46525758957592       -4.39716719516032       -2.40264932102763
H          -14.00904778209835       -4.36572472910437       -1.48293063462031
78
 energy: -116.049145054358 gnorm: 0.043700337333 xtb: 6.7.1 (edcfbbe)
Fe         -11.53263272009103       -2.33752061453624       -1.22983563747677
N          -12.14559302860470       -0.66866941866301       -2.17661312584513
N           -9.85485069345837       -2.34062248975036       -2.32286940822487
N          -10.87767107122768       -3.90804787624800       -0.18902777605154
N          -13.22036697533787       -2.31070612205385       -0.11817933831200
C          -13.30083915806689        0.01150363530063       -1.96146773415658
C          -13.32287320977535        1.23376245600823       -2.73489899815348
C          -12.15693512565914        1.26386154582490       -3.43537604051070
C          -11.43334173751152        0.06555689549559       -3.07244211457625
C           -9.50388370960583       -1.44319917182677       -3.27998354800468
C           -8.31648411287717       -1.87221631229338       -3.97037038829257
C           -7.94813353214413       -3.06932489540455       -3.40526610135787
C           -8.91999378962321       -3.32141225311871       -2.35531902792742
C           -9.74429589928845       -4.61510750459689       -0.42608073390203
C           -9.56826338896497       -5.64822226571218        0.56538106470575
C          -10.63587218479237       -5.54418467435115        1.41898037564457
C          -11.45707767550442       -4.46724970855281        0.90063409315696
C          -13.55599552167526       -3.18627423722788        0.86193646820673
C          -14.91262003064063       -2.95348874682212        1.30151369021658
C          -15.37381279881277       -1.89476608262561        0.59024875493002
C          -14.29425672388647       -1.49560586187411       -0.28546748188679
C          -14.32798532019742       -0.39632994118623       -1.12707192584201
H          -15.22244581244792        0.20799429392876       -1.12056504295511
C          -10.20562490049540       -0.28667305320448       -3.59130716862330
H           -9.77334429876571        0.37862154880980       -4.32415889278101
C           -8.86769917991598       -4.39217786698510       -1.47864318534453
H           -8.06234070255846       -5.10095667058834       -1.60128644090651
C          -12.71552974221529       -4.15422082022189        1.38638174091613
H          -13.08714392689851       -4.73361771460391        2.21825015442863
C          -11.67896139654779        2.28065483338928       -4.40909090927915
H          -12.40966225043547        3.07547247043557       -4.52614760539543
H          -11.51509037546829        1.82698137283107       -5.38542189346654
H          -10.73803551554500        2.72383186612571       -4.08580460041652
C          -14.42086703805632        2.24021468904376       -2.70301264482039
H          -14.75474758291534        2.40673953332247       -1.68163677242638
H          -15.27576411912725        1.90323615037998       -3.28754832198627
H          -14.08636283915886        3.19026134196471       -3.10972057658288
C           -7.64735786258133       -1.12523353318530       -5.06921508402918
H           -7.83032158631731       -0.05774670961822       -4.98891380679763
H           -8.01971367947453       -1.45392819632132       -6.04082940035156
H           -6.57424655546907       -1.29523561780906       -5.04305668547284
C           -6.83881990857367       -3.92554889287546       -3.73489150723390
H           -6.48825321328687       -4.56313884456408       -2.93390381739304
C           -6.23766755872489       -4.00381805758439       -4.92176713509447
H           -6.57063303112727       -3.44488311973288       -5.77568859923854
H           -5.40664759743128       -4.66516253006488       -5.08726952559008
C           -8.39061043935857       -6.55319405605243        0.65455385400446
H           -7.47527513242839       -6.01753807561980        0.41377002717797
H           -8.48577188018460       -7.38548051177860       -0.04283639465033
H           -8.30167969804676       -6.95894384290926        1.65841753539810
C          -10.92792658606058       -6.29284149888309        2.62188023561546
H          -11.39957505181069       -5.72592092204429        3.41541257834330
C          -10.67379354473860       -7.58403497136821        2.81608307539398
H          -10.25699423537360       -8.20714295501383        2.04665544916743
H          -10.90857646304617       -8.07128558208954        3.74585238257162
C          -15.64668847168165       -3.78114035271621        2.30388041299644
H          -15.22947988840864       -3.66174308665181        3.30258734191113
H          -15.58779600310798       -4.83563756868619        2.03967841644359
H          -16.69464334718834       -3.49771860373133        2.33279343302650
C          -16.72663483071435       -1.26934931464641        0.64969017768379
H          -17.15520417883016       -1.37315625855928        1.64259853149009
H          -17.39915665266955       -1.74942362019812       -0.06198281840698
H          -16.68379676710322       -0.21238698079400        0.40668780959591
O          -10.67191627365608       -0.95021550175441        0.22727876876110
H          -10.59398390268022       -0.03312507250305       -0.13399935903730
H           -9.94217183363520       -1.13285560127226        0.86501395379556
C          -14.75163888955265       -6.13209176226149       -3.86213858772412
H          -14.33172282319051       -7.10431973235806       -4.10960312144762
H          -15.32080840870787       -5.77960602984721       -4.72104166752976
H          -15.42787258779418       -6.24571544655589       -3.02373202231832
N          -12.68461131003407       -4.82590655098797       -4.38525946020399
H          -12.54544680278897       -5.22124484840393       -5.30152051228193
C          -13.68714309557822       -5.15765882724597       -3.51393849357870
C          -11.91999805704429       -3.88392910675459       -3.78743338555027
H          -11.05814098460662       -3.44914671586391       -4.24393795063374
N          -12.37205286970108       -3.59903663791957       -2.59016508077439
C          -13.47140592893551       -4.38554504164782       -2.40802965700384
H          -14.02142398005924       -4.35306775153855       -1.49239281773455
78
 energy: -116.050655708817 gnorm: 0.016706746234 xtb: 6.7.1 (edcfbbe)
Fe         -11.53209727067790       -2.33616071951541       -1.22638983537249
N          -12.15045909305895       -0.67556459185216       -2.17740647306486
N           -9.85399802169675       -2.33767210430050       -2.31944355946312
N          -10.87625643721236       -3.90188856466122       -0.19291799618279
N          -13.22285180588779       -2.31993670918193       -0.13455418064530
C          -13.30348546748530        0.00382239207917       -1.96317215727011
C          -13.32620402364513        1.22670765411391       -2.73376153932173
C          -12.15962081400664        1.25671606285863       -3.43250443986458
C          -11.43801211426615        0.05753823037370       -3.07443396768276
C           -9.50735464848716       -1.44525363125933       -3.28516254314801
C           -8.31916161867585       -1.87354950046167       -3.97237311809500
C           -7.95077066710107       -3.07024289494403       -3.40706064388185
C           -8.91812951472425       -3.31738698279156       -2.35110548409692
C           -9.73934921491930       -4.60833924015544       -0.42662787732877
C           -9.56883506469973       -5.64280322012398        0.56069590801653
C          -10.64091067649523       -5.54252624011396        1.40933243539986
C          -11.45869841365676       -4.46517468913155        0.89319777227994
C          -13.55589699492768       -3.19464628886429        0.84796650513051
C          -14.91102943459504       -2.96029004192815        1.29485938441940
C          -15.37344852472709       -1.89783924620631        0.58280653217485
C          -14.29401439483448       -1.50195282775200       -0.29798841681459
C          -14.33173674704424       -0.40251274854205       -1.13183804038267
H          -15.22421345049856        0.20429938882462       -1.12039991121639
C          -10.21342315948679       -0.29441821020927       -3.60237356922995
H           -9.79224738718397        0.36332726606133       -4.34955901802680
C           -8.85940474693893       -4.38370072648374       -1.47351946050491
H           -8.04773095283159       -5.08546434179746       -1.58991603382942
C          -12.71920574956695       -4.15836977418799        1.37603879875300
H          -13.09069209836474       -4.73692727543944        2.20837798190716
C          -11.67642325596104        2.27523541790385       -4.40241584772573
H          -12.40741583432781        3.07140659013200       -4.51623984113966
H          -11.51325658757803        1.81834297459383       -5.37872605392005
H          -10.73359660035347        2.71281237886873       -4.07345219798932
C          -14.42423265036880        2.23328856103798       -2.70687222303739
H          -14.75729123002039        2.40872293421618       -1.68501668297258
H          -15.28008582404830        1.88926422723273       -3.28882500349719
H          -14.08908003733480        3.18097893276834       -3.12311832965544
C           -7.64328638704596       -1.12269431408134       -5.06451749935945
H           -7.82375049058961       -0.05413321184428       -4.97342115098743
H           -8.01443230579184       -1.44390677114384       -6.04036807777799
H           -6.56997709397797       -1.29936610271755       -5.03285345634434
C           -6.83917811064402       -3.92739558689230       -3.73299750177342
H           -6.48710018201768       -4.55712235491379       -2.92480391015412
C           -6.23864032545443       -4.01623378693827       -4.91850710136816
H           -6.57100590571830       -3.46631168818608       -5.78157506743347
H           -5.40265987811993       -4.67665097973626       -5.07687063448046
C           -8.39436974408046       -6.55061007613053        0.65429081246614
H           -7.47620998619028       -6.01561489945601        0.41635784264732
H           -8.48965723201960       -7.38439026742729       -0.04340670579919
H           -8.31371732572855       -6.95409606519142        1.66134513782967
C          -10.93443574919680       -6.29241817921557        2.60997471067612
H          -11.41252298075651       -5.72341701006878        3.39971060985328
C          -10.67194794494976       -7.58035156439254        2.80737820271648
H          -10.25086992748609       -8.20525110453407        2.03918031714342
H          -10.90050962282806       -8.06668662699697        3.74117413057319
C          -15.63447444949236       -3.78144545756632        2.30811911370125
H          -15.20107173205121       -3.65089379996223        3.29969743498973
H          -15.57586680427881       -4.83776910571639        2.04825942896002
H          -16.68276899878265       -3.49543317874815        2.34674211105258
C          -16.72262763858502       -1.26670245619340        0.64844382187696
H          -17.14991477825974       -1.37574764028701        1.64301009300372
H          -17.39731015743159       -1.74083845338742       -0.06686955532145
H          -16.67206505321028       -0.20719625344642        0.41240966383745
O          -10.63088446941816       -0.93972858990898        0.23394322831212
H          -10.60792026658999       -0.03111319809463       -0.06768734851930
H           -9.93724132805005       -1.10979623458751        0.88470368966953
C          -14.75241238305542       -6.13476072174899       -3.85638187989610