78
 energy: -116.058077300745 gnorm: 0.000070495513 xtb: 6.7.1 (edcfbbe)
Fe         -11.55080576963608       -2.34459502433992       -1.19265612255072
N          -12.16233507855614       -0.68837920914748       -2.16015059298910
N           -9.85458324117955       -2.33791696406809       -2.28355149397535
N          -10.90878088671119       -3.94873955648176       -0.19834563817226
N          -13.20537681548582       -2.30248631059711       -0.08535981254074
C          -13.34176345477314       -0.03353462481512       -1.99043483491034
C          -13.44133884493424        1.08477269764203       -2.90015436718496
C          -12.29253832137380        1.08965123125813       -3.62935972301901
C          -11.50820304016635       -0.02890958752397       -3.15743748479415
C           -9.50974412163491       -1.45569785283598       -3.26472637575974
C           -8.24668324744191       -1.81284889912545       -3.85392418726388
C           -7.83174268259934       -2.95266598245378       -3.21476233484513
C           -8.85233251592784       -3.25463223170084       -2.23166907867855
C           -9.75650930066477       -4.63913165553556       -0.41594718904012
C           -9.65020529714850       -5.75855419422208        0.48658316999549
C          -10.77725060176048       -5.73326025136222        1.26309175238829
C          -11.54454775544605       -4.58619536255174        0.81488605603068
C          -13.54017894701984       -3.16519429507272        0.90790875068230
C          -14.83008096243465       -2.82516300619020        1.47057478604682
C          -15.26678313956374       -1.73465544437379        0.78775566887496
C          -14.23673458965216       -1.42374110827391       -0.18098172188699
C          -14.31582598620047       -0.36828182596747       -1.06847967706710
H          -15.20351692562274        0.24467666916805       -1.03828263240281
C          -10.27181711770696       -0.37146553385649       -3.66996551576458
H           -9.88014400846991        0.24111891552698       -4.46764269200514
C           -8.80410352498958       -4.33438932563837       -1.37161686236406
H           -7.95540466929661       -4.99592243751850       -1.45278742103415
C          -12.77596549030975       -4.23367999846429        1.33517158769993
H          -13.17500355519176       -4.84171317887711        2.13276358771794
C          -11.86199111020329        2.02382355416767       -4.70826695998336
H          -12.61544488858889        2.78835263506183       -4.88052393895636
H          -11.70075231036097        1.48527911152409       -5.64270902262648
H          -10.92816526322796        2.51816344681809       -4.43883100717548
C          -14.60567782264671        2.01232546205519       -2.96720739294194
H          -14.75242081669491        2.51289585908554       -2.00984497008050
H          -15.51790957824007        1.46467457652277       -3.20465903083364
H          -14.45324637143275        2.77157140399355       -3.73044316528937
C           -7.53450742300610       -1.02687594769743       -4.89940490313569
H           -7.67076513339723        0.04173678662086       -4.73929137449459
H           -7.91019495473520       -1.26908833139459       -5.89519132703861
H           -6.46978301701088       -1.24972272381107       -4.87194694488310
C           -6.62104001309553       -3.71886408644406       -3.40894315678492
H           -6.21727686025262       -4.18911630351116       -2.51982842302351
C           -5.99189429479846       -3.88912130947812       -4.56731839717747
H           -6.37064223927001       -3.48713405313271       -5.49078599992626
H           -5.08320380556965       -4.46396928811271       -4.63503865273868
C           -8.48677921938753       -6.68360851071946        0.57274021636427
H           -7.55213063139796       -6.14056848205200        0.44042450799841
H           -8.54237733476809       -7.45289589451995       -0.19936795215415
H           -8.47011825424660       -7.17217892984528        1.54476544559105
C          -11.16645792489556       -6.61470093207653        2.34162078019465
H          -11.71442579896903       -6.14810786116995        3.15201781284436
C          -10.91270598136591       -7.91794468763136        2.40213566170987
H          -10.41431228527203       -8.44207477477501        1.60530203573598
H          -11.22016411555093       -8.51345196324486        3.24581932871775
C          -15.48441107570760       -3.56989647447350        2.58313735845785
H          -14.85895705548116       -3.54940241570476        3.47573150566661
H          -15.64435947273695       -4.61234723579604        2.30634198086305
H          -16.44735366246652       -3.12960223370078        2.83008573878120
C          -16.53059377445218       -0.96152777610231        0.94905214309503
H          -17.14842865211250       -1.38999504716287        1.73435197189898
H          -17.10340876905959       -0.96473492082238        0.02134468134590
H          -16.31495388661083        0.07487979601436        1.20977398431589
O          -10.46178664284145       -0.93278755755545        0.25112989078070
H          -10.80717994207082       -0.08990946882531       -0.06268667383336
H           -9.56312148026899       -1.01381685153323       -0.08647400462724
C          -14.46781155447035       -6.30273783889102       -3.81847830514589
H          -13.91376049482763       -7.02354356146969       -4.41970069879090
H          -15.35663901141509       -6.00615832568552       -4.37523394304540
H          -14.77853485020808       -6.78461882627474       -2.89686752181087
N          -13.09782569414406       -4.31090932561517       -4.47223451141013
H          -13.21955560376821       -4.42541708524145       -5.46502183744919
C          -13.62505844915279       -5.12206991492286       -3.50178211322175
C          -12.38785093926632       -3.34068913702559       -3.85390878707674
H          -11.86316743529062       -2.56161422949291       -4.36705220249176
N          -12.43368812585866       -3.48786866212872       -2.55219935460835
C          -13.19993755070394       -4.59180535368834       -2.31746623747051
H          -13.39192853678621       -4.92829196273688       -1.31956583532029
