72
 energy: -105.891877960451 gnorm: 0.254156151548 xtb: 6.7.1 (edcfbbe)
Fe           6.08800000000000       24.88600000000000       -7.61300000000000
N            4.39000000000000       23.78000000000000       -7.35400000000000
N            5.80900000000000       24.83800000000000       -9.61400000000000
N            7.95300000000000       25.66300000000000       -7.92500000000000
N            6.55600000000000       24.53800000000000       -5.65500000000000
C            3.81500000000000       23.46600000000000       -6.15200000000000
C            2.51700000000000       22.88400000000000       -6.40500000000000
C            2.33300000000000       22.84700000000000       -7.73300000000000
C            3.49200000000000       23.43200000000000       -8.35300000000000
C            4.72100000000000       24.30399999999999      -10.27500000000000
C            4.86100000000000       24.61900000000000      -11.69400000000000
C            5.97500000000000       25.36100000000000      -11.84800000000000
C            6.57900000000000       25.51400000000000      -10.54600000000000
C            8.34700000000000       26.32600000000000       -9.06100000000000
C            9.57500000000000       27.06000000000000       -8.77100000000000
C            9.89100000000000       26.81600000000000       -7.47500000000000
C            8.87400000000000       25.95100000000000       -6.94800000000000
C            7.78500000000000       24.84200000000000       -5.07400000000000
C            7.77100000000000       24.44300000000000       -3.68900000000000
C            6.39900000000000       23.89699999999999       -3.44700000000000
C            5.70200000000000       23.98000000000000       -4.71200000000000
C            4.40100000000000       23.61499999999999       -4.91900000000000
H            3.78300000000000       23.42800000000000       -4.04100000000000
C            3.68200000000000       23.58200000000000       -9.71300000000000
H            2.97000000000000       23.10200000000000      -10.38500000000000
C            7.71900000000000       26.24800000000000      -10.28500000000000
H            8.15600000000000       26.80900000000000      -11.11100000000000
C            8.85600000000000       25.44000000000000       -5.67700000000000
H            9.77500000000000       25.51700000000000       -5.09600000000000
C            1.10900000000000       22.27000000000000       -8.46000000000000
H            0.20900000000000       22.38300000000000       -7.81800000000000
H            1.27000000000000       21.19100000000000       -8.66800000000000
H            0.94400000000000       22.82000000000000       -9.41100000000000
C            1.51100000000000       22.39000000000000       -5.33800000000000
H            0.72700000000000       23.16200000000000       -5.18200000000000
H            2.04000000000000       22.21400000000000       -4.37700000000000
H            1.02800000000000       21.45100000000000       -5.68300000000000
C            3.86800000000000       24.18000000000000      -12.78600000000000
H            3.08300000000000       24.95700000000000      -12.90700000000000
H            3.38600000000000       23.22300000000000      -12.49200000000000
H            4.40300000000000       24.05500000000000      -13.75200000000000
C            6.57300000000000       25.97000000000000      -13.12600000000000
H            7.66500000000000       26.05300000000000      -13.22700000000000
C            5.82500000000000       26.41200000000000      -14.13900000000000
H            4.72800000000000       26.35300000000000      -14.09000000000000
H            6.29600000000000       26.84100000000000      -15.03500000000000
C           10.33600000000000       27.96500000000000       -9.77800000000000
H            9.71400000000000       28.11300000000000      -10.68700000000000
H           11.29200000000000       27.48000000000000      -10.07100000000000
H           10.53900000000000       28.95400000000000       -9.31500000000000
C           11.07100000000000       27.33599999999999       -6.62100000000000
H           11.07900000000000       27.13500000000000       -5.54000000000000
C           12.10100000000000       28.02700000000000       -7.12100000000000
H           12.14900000000000       28.25900000000000       -8.19500000000000
H           12.91300000000000       28.37200000000000       -6.46400000000000
C            8.91700000000000       24.54900000000000       -2.68700000000000
H            9.21700000000000       25.61300000000000       -2.57800000000000
H            9.78900000000000       23.96400000000000       -3.05000000000000
H            8.58800000000000       24.16500000000000       -1.69800000000000
C            5.86900000000000       23.32100000000000       -2.13700000000000
H            5.41200000000000       24.13300000000000       -1.53300000000000
H            6.70400000000000       22.87000000000000       -1.56000000000000
H            5.09600000000000       22.55200000000000       -2.35100000000000
O            7.08700000000000       22.63700000000000       -7.79300000000000
H            6.36500000000000       22.01800000000000       -7.68400000000000
H            7.94100000000000       22.43000000000000       -7.93000000000000
C            3.52200000000000       26.98700000000000       -6.93100000000000
H            2.89800000000000       27.76900000000000       -7.41400000000000
H            3.47100000000000       27.13900000000000       -5.83200000000000
H            3.08500000000000       25.99700000000000       -7.18100000000000
S            5.23200000000000       27.07300000000000       -7.49300000000000
H            4.97200000000000       26.64500000000000       -8.72000000000000
72
 energy: -105.948784861336 gnorm: 0.102506958178 xtb: 6.7.1 (edcfbbe)
Fe           6.15503362851192       24.77622746700077       -7.62742171433275
N            4.37727443765518       23.80661000931256       -7.35688621401232
N            5.80069952167362       24.86147752545297       -9.61878491247044
N            7.94901166014874       25.69286486487190       -7.91428317056128
N            6.55358226471514       24.55552431232856       -5.65359432341021
C            3.80901874061210       23.47583768252796       -6.15762288397556
C            2.50695198051035       22.88316587739411       -6.39284964008146
C            2.32574684513422       22.83925630650334       -7.73699036469258
C            3.49829555758123       23.42694700110225       -8.34591319848475
C            4.74003984284628       24.30529012007029      -10.28933648499151
C            4.85759067808466       24.61633886677215      -11.70753341025298
C            5.98397142688065       25.36875329279395      -11.86464099285497
C            6.57469099640176       25.51532817431971      -10.54827293572360
C            8.35780598885422       26.33744756318890       -9.04739447772279
C            9.58691846064547       27.07118868100492       -8.77351823468531
C            9.91472479806841       26.82000644342848       -7.46794822537997
C            8.87911401260130       25.95112371087246       -6.94901766312826
C            7.76248452543996       24.82171344500671       -5.05901527589243
C            7.73399073620497       24.41923160513063       -3.67531859588939
C            6.43432426725834       23.91198810883763       -3.44393014142107
C            5.72867369296011       24.01182026389927       -4.70150167605616
C            4.41312283798792       23.62411671835504       -4.91943261320904
H            3.80334327646612       23.40914788942240       -4.04729771434164
C            3.69973464586049       23.58683351813360       -9.71028544767489
H            2.97475358913718       23.12718808415125      -10.37468943880079
C            7.72021916426099       26.24735623298669      -10.27657370626670
H            8.15601058206098       26.79476869175716      -11.10455184728292
C            8.84660463561664       25.43121976819524       -5.66822683772417
H            9.75361348583571       25.52908505669906       -5.08177558663973
C            1.12081051417496       22.27860683173293       -8.45659502787288
H            0.22762949006441       22.38254963312323       -7.83070164351328
H            1.26873011090892       21.21250533394166       -8.66844947815241
H            0.94741879662867       22.80828104950579       -9.39839455118749
C            1.52507988618403       22.39708404553053       -5.34523866660758
H            0.74314418090969       23.15027180594527       -5.18505638525550
H            2.03031579666875       22.21471461954633       -4.39275083659335
H            1.04367941674863       21.47008543813448       -5.67554357701847
C            3.87746314276632       24.18151579970718      -12.77331922146973
H            3.09510870040330       24.94073641227169      -12.90165982888860
H            3.39686920440418       23.23699150511488      -12.49902818030557
H            4.39529699541856       24.05493559051135      -13.73031718538431
C            6.55588342483024       25.95868301524273      -13.11175457178851
H            7.64035220579458       26.03875481072739      -13.19339974521399
C            5.82275359890260       26.40195535601180      -14.12812180296679
H            4.74126017448852       26.36404627058972      -14.09682903834197
H            6.28465793976410       26.82941177522693      -15.01388447789901
C           10.31890911228690       27.95165175772202       -9.77066674147675
H            9.71967528520981       28.10866473281559      -10.67242000978305
H           11.26821745500244       27.48618458000207      -10.06546676974083
H           10.52712753728702       28.93094493939781       -9.32448740213685
C           11.05716733539980       27.33074484407128       -6.64750528175917
H           11.04723588736584       27.12527501177447       -5.57651065731579
C           12.09013538959918       28.02084689658039       -7.12506673120460
H           12.16809458460255       28.25795793392637       -8.17552587242909
H           12.89123239405254       28.36288162814827       -6.47545586624523
C            8.88395993167918       24.54336792389745       -2.70217907348597
H            9.19929154947127       25.59010821867861       -2.58637231664554
H            9.75934965467849       23.97392465811710       -3.04574417557352
H            8.59160592165300       24.16999163838167       -1.71593503632503
C            5.88583179845945       23.33650763872768       -2.15938700698285
H            5.42344866601695       24.12225126214686       -1.54613959237024
H            6.68855903458805       22.87810732577530       -1.57169699643836
H            5.12148418976165       22.57313952448782       -2.35442558579439
O            7.05944159722219       22.66239587778641       -7.79947014025420
H            6.36930590360002       22.01281153574681       -7.68329495627594
H            7.95844499100321       22.42257287930238       -7.93182179870706
C            3.50337221572933       26.98312966403040       -6.92937253183079
H            2.90913051316744       27.76783622909957       -7.41161147841232
H            3.47715919953425       27.13335896894318       -5.84614150131949
H            3.08408600681186       26.00321851638535       -7.17251105481477
S            5.22640461092171       27.04549697296161       -7.48410906618728
H            4.95652937582082       26.68364226670961       -8.73703041007176
72
 energy: -105.964166964937 gnorm: 0.036863094888 xtb: 6.7.1 (edcfbbe)
Fe           6.17373984460281       24.75168588299130       -7.62613577022262
N            4.38675876799032       23.81304860285641       -7.36062992915277
N            5.81746619631286       24.84775021101413       -9.62045827535000
N            7.94723176857679       25.69377267538839       -7.90541777529921
N            6.56013937956766       24.54917623322987       -5.66625098309772
C            3.81531922385527       23.48606986701881       -6.16527305206741
C            2.51136805891284       22.88836821987103       -6.38656559586688
C            2.33251842680203       22.83839051307859       -7.73990386055094
C            3.51513290349613       23.42586971688295       -8.33816141072638
C            4.76509164208218       24.29967510684743      -10.29445996603543
C            4.85836404516366       24.61129600206951      -11.70754560479345
C            5.99001997851082       25.37370851729332      -11.86699809392263
C            6.57750472442993       25.50473585261367      -10.54310647862344
C            8.36000635590897       26.33721889412866       -9.03208132353329
C            9.58641016150559       27.06998063156049       -8.77574186496379
C            9.92640312313933       26.81404223434466       -7.46547778456493
C            8.87768281780242       25.94332780201363       -6.94960932516501
C            7.74759010304206       24.80462242608923       -5.05872399418983
C            7.70276126588386       24.40142710435016       -3.67026862255192
C            6.46050930742886       23.92617063629202       -3.44838240604249
C            5.74902129427934       24.03039335371179       -4.70679979114726
C            4.42947565515613       23.63139520395645       -4.92693997202250
H            3.83416345414394       23.37871108349675       -4.05809215530844
C            3.71778148509227       23.59935012621405       -9.70238297124676
H            2.97552286122628       23.16669965488468      -10.36059146827685
C            7.71903581124419       26.24246478241032      -10.26312353003793
H            8.15878238961430       26.77495907602297      -11.09414748741564
C            8.83411684405444       25.42956563092257       -5.66088178131406
H            9.72427969666870       25.55512601184375       -5.06015627530278
C            1.14085112063844       22.28926807182311       -8.45355746909940
H            0.25090002372866       22.38817859120282       -7.83674846258476
H            1.27710219068397       21.22949587830774       -8.67142648359116
H            0.96184731449101       22.80658309353125       -9.39096722183720
C            1.54583309070667       22.40900287024305       -5.35407669490040
H            0.76212783969632       23.14933119050681       -5.18920805860626
H            2.03489790764678       22.22057511599424       -4.40463057892916
H            1.06523832643300       21.48793747053328       -5.67692011201085
C            3.89054382537162       24.18102568691478      -12.75642328340427
H            3.10693151886792       24.92828567549208      -12.88846101162369
H            3.41212152093547       23.24181173380594      -12.49476196729857
H            4.39786692448463       24.05707556596050      -13.71019369212245
C            6.53624084792226       25.94830256580761      -13.08383986652427
H            7.61647281484253       26.02130728468039      -13.14475354423293
C            5.81823540740361       26.39195239086803      -14.11061275145587
H            4.74473130819131       26.37516461231091      -14.10104801853222
H            6.27949623566559       26.80968852961650      -14.99052616921855
C           10.29679133941461       27.93482944698957       -9.76104608173407
H            9.70718893402278       28.09368233814927      -10.65754016207676
H           11.24423067706700       27.48368633483004      -10.05869575002964
H           10.50942396414818       28.90997669779604       -9.32559494991522
C           11.03409379574452       27.31610139695425       -6.68038227277497
H           11.00077354161220       27.10624295313956       -5.61714038748424
C           12.07780661756021       28.00892431154935       -7.13216997232978
H           12.19522451531886       28.25557261567261       -8.16712980357945
H           12.86173302004232       28.35110661099985       -6.47660093304978
C            8.84992356991947       24.53497493951199       -2.71615610658338
H            9.16192039237678       25.57526091697112       -2.60868002244291
H            9.72169190658726       23.97389358624676       -3.05832367944576
H            8.57863134791512       24.16839872285054       -1.73037526902808
C            5.90064992620682       23.35527391880201       -2.18165519503932
H            5.43422457277287       24.12908092435497       -1.56904553185863
H            6.68655998714227       22.89343510702422       -1.58820773275152
H            5.14624644724273       22.59556092964034       -2.37907682515420
O            7.03114980718087       22.70445364412945       -7.84680860817519
H            6.39020639936557       22.00758850876836       -7.67701576842644
H            7.95128076408852       22.43143921104256       -7.91841695580392
C            3.48256942111895       26.97625139513908       -6.92326996296591
H            2.91712970847790       27.76506875017440       -7.40992321406405
H            3.47816787481054       27.12796082619612       -5.85063172064253
H            3.07591612327377       26.00224414256608       -7.16296484138880
S            5.21696826846611       27.05213470111730       -7.47134850848591
H            4.95286127392012       26.73886868838740       -8.74533681000514
72
 energy: -105.968226650276 gnorm: 0.039082826951 xtb: 6.7.1 (edcfbbe)
Fe           6.18924080979531       24.72890049100831       -7.62535711065461
N            4.39504551887017       23.82135301739028       -7.36013321961386
N            5.82436675257165       24.84184355098322       -9.61427328811983
N            7.94676881096554       25.68438107150773       -7.90086579030574
N            6.56377570748712       24.54723989273115       -5.67133973087451
C            3.82224840508337       23.49379125095136       -6.16831193132991
C            2.52185533759704       22.89680087728931       -6.38822059115663
C            2.34368668681158       22.84633145388213       -7.74078086917568
C            3.52564831376569       23.43271386349948       -8.33485489949143
C            4.77376958211484       24.29624748723993      -10.28767143499899
C            4.85849803649710       24.60832049786225      -11.69537945400382
C            5.98736756942067       25.37339823356900      -11.85526434054374
C            6.58082307542262       25.49631482212486      -10.53546066838251
C            8.35573135140058       26.32782484738508       -9.02807750100958
C            9.57710328068276       27.05863341534011       -8.78062790751109
C            9.92320027710851       26.80414174875105       -7.47256425494032
C            8.87561337372623       25.93805606810036       -6.94954952975627
C            7.75019409893160       24.80520685107707       -5.06580934491891
C            7.70473534616061       24.40259809497274       -3.67595363987137
C            6.45131234481533       23.93209998166927       -3.45214812451518
C            5.74737270906513       24.03276756176838       -4.71564157149529
C            4.43592549313644       23.62832690493608       -4.93216015087507
H            3.85458319456697       23.34340288506588       -4.06390757093644
C            3.72371451273738       23.60752226657490       -9.69582500630573
H            2.96536346841762       23.20192979749084      -10.35244097091637
C            7.72051449580628       26.23202689565097      -10.25845183676332
H            8.16545786149851       26.75711445034229      -11.09059185635886
C            8.83185049867556       25.43675149050209       -5.65776771212718
H            9.70615700758596       25.59099656947556       -5.03934311712584
C            1.15714682606086       22.29770667236582       -8.45759076698585
H            0.26715605537266       22.39626061702267       -7.83997029566074
H            1.29478019445008       21.23800044185667       -8.67846621458092
H            0.98052854230662       22.81665284519834       -9.39544044801290
C            1.56144034508964       22.41759050450878       -5.35478871091457
H            0.77704089919307       23.15788800001347       -5.18881412865274
H            2.05200489605036       22.22833879338814       -4.40520446463482
H            1.08337043958831       21.49561815788334       -5.68066221615753
C            3.89636111254375       24.17391006656967      -12.74347254758237
H            3.10782711306250       24.91714071837971      -12.87365041420227
H            3.42543462873375       23.22949159274580      -12.48352122133985
H            4.40764243271573       24.05755491334752      -13.69695373282192
C            6.52996000439358       25.94355931564386      -13.06635850359156
H            7.61047437451073       26.01588664800302      -13.11199285503738
C            5.81856882416125       26.38339861476464      -14.10016627512100
H            4.74324867283307       26.38409809493828      -14.09710126081097
H            6.28736737088729       26.79327572794974      -14.97849131148295
C           10.27781156440340       27.92481254138469       -9.76519551262153
H            9.68104424686708       28.07959488109254      -10.65846938443243
H           11.22683351567643       27.47667167310314      -10.06365957496661
H           10.48741145066656       28.89945527382153       -9.32592767962876
C           11.02417852876034       27.30571422300003       -6.69384233763861
H           10.97239277642818       27.09318309432577       -5.63271052240946
C           12.07614479571545       27.99866073625484       -7.13011340367913
H           12.22604072064843       28.24285979184701       -8.16458879909405
H           12.84386801035542       28.34114121609849       -6.45689137512184
C            8.84283164792359       24.53249616015349       -2.72220464219627
H            9.14110655498186       25.57600601073088       -2.62327760623543
H            9.70789159510183       23.96896985203499       -3.07217060077922
H            8.56601345185858       24.16493679673320       -1.73826861325677
C            5.89460248764034       23.36543168372971       -2.18912154624434
H            5.42816725621382       24.14410219898704       -1.58471106527140
H            6.68505200139101       22.90879392675920       -1.59744252635190
H            5.14720616704740       22.60399363207830       -2.39818835594512
O            7.01652706789119       22.71599308236645       -7.95906369292268
H            6.42346901262508       21.99507378371549       -7.64483158154227
H            7.95588381084548       22.43477779859134       -7.88399283341242
C            3.46988235410949       26.96794916861255       -6.91662885552265
H            2.91579560777811       27.76728939491211       -7.39918201297564
H            3.47374940123436       27.11299519776905       -5.84278461358970
H            3.05644506985453       25.99795121560685       -7.16126549457236
S            5.20880130781576       27.03844899584960       -7.46484654047201
H            4.92757294349508       26.84528960672029       -8.77520203744871
72
 energy: -105.969549096561 gnorm: 0.030719464154 xtb: 6.7.1 (edcfbbe)
Fe           6.18877086481137       24.73065251817032       -7.62720193874136
N            4.40690809562316       23.82891897636951       -7.35975358075382
N            5.82798150653910       24.83914380957890       -9.60516871685376
N            7.94279138885487       25.67071163100790       -7.89612542954948
N            6.56948756660543       24.53575086915363       -5.68593686922638
C            3.83287406482266       23.49718497601999       -6.17173247670919
C            2.53546613081648       22.90474779199774       -6.39114567690951
C            2.35687557925617       22.85652054563000       -7.74121712787381
C            3.53634810780690       23.44178018785395       -8.33190259154927
C            4.77946858548644       24.29382905537416      -10.27785832081579
C            4.85883945401563       24.60443465258773      -11.68061341921697
C            5.98424158900001       25.36990305780282      -11.84120484840875
C            6.58376238113220       25.48651271627920      -10.52686730507318
C            8.35024795535379       26.31149883786775       -9.02589103360169
C            9.56598153698984       27.04093163485453       -8.78636863368866
C            9.91708299368841       26.79067938681574       -7.48140285159841
C            8.87239923300566       25.93061497045187       -6.94956619077622
C            7.75303921955370       24.80519402061282       -5.07702817838597
C            7.70604295208448       24.40752898020174       -3.68612747205438
C            6.44080144258401       23.93581483355350       -3.46188232895654
C            5.74689978290297       24.02784861596486       -4.73020120593795
C            4.44534033550092       23.61750939074230       -4.93828328219618
H            3.87909119130911       23.30581834405010       -4.07031087841871
C            3.72541563913906       23.61839315684365       -9.68900414725854
H            2.95268443996174       23.23956864552424      -10.34416062723416
C            7.72326775942375       26.21687433512098      -10.25566925432272
H            8.17496860180976       26.73492301631303      -11.08804014163280
C            8.82873591207790       25.44698427559699       -5.65397721764672
H            9.68400728098984       25.63171694081345       -5.01546254920962
C            1.17480727444650       22.30791403578950       -8.46421889584859
H            0.28319750109671       22.40453751289602       -7.84653116195276
H            1.31740623146612       21.24848205462230       -8.68925972752697
H            1.00269347389414       22.83150918472974       -9.40222881916643
C            1.57834168048338       22.42661595053395       -5.35352099987546
H            0.79498193082889       23.16928799016053       -5.18571640923687
H            2.07393455191021       22.23768068888782       -4.40453571279623
H            1.10148192509785       21.50344277087763       -5.68166649954166
C            3.90168394011553       24.16241279914209      -12.72974417979455
H            3.10487888430332       24.89910380538659      -12.85722759671534
H            3.44304405329618       23.20977677717646      -12.47044541223290
H            4.41899443045732       24.05621297670545      -13.68289624484842
C            6.52781569463089       25.93934235868239      -13.05014112449446
H            7.60909997288993       26.00848106707560      -13.08271318063937
C            5.82178988743501       26.37640694588357      -14.08891623431961
H            4.74456349462773       26.38505614840394      -14.09380050395177
H            6.29998298228568       26.77482781696265      -14.96773687767898
C           10.25807240792814       27.91296037416049       -9.77166837087940
H            9.65174592632030       28.06494633832762      -10.66101509961546
H           11.20844778895003       27.46855057168679      -10.07402874682352
H           10.46363518377070       28.88696362968885       -9.32642156242834
C           11.01593183082283       27.29558772426034       -6.70346381353565
H           10.94527251078089       27.08607595047571       -5.64293037960377
C           12.07643474565603       27.98411994535346       -7.12689118669983
H           12.25605520126532       28.22613307859459       -8.16077119520537
H           12.82638888541724       28.32768297317573       -6.43302730260184
C            8.83474354691657       24.53386811957598       -2.72857368540489
H            9.12229505688136       25.58010344961981       -2.63317703260060
H            9.69615985347960       23.96878246999243       -3.08312799024557
H            8.55124299968439       24.16354499720238       -1.74655008779783
C            5.88607872116870       23.37871123377228       -2.19828008615212
H            5.41610039421998       24.16325544498644       -1.60446457876115
H            6.68059637799799       22.93073839683353       -1.60348652764469
H            5.14530518072493       22.61302872701418       -2.41352610789003
O            7.03552210345909       22.72481543440638       -7.91332458876132
H            6.44219075899177       22.01388688138895       -7.70794678283382
H            7.94345474256111       22.43383020525817       -7.91652157619842
C            3.45595871377614       26.96086355784614       -6.90989802268739
H            2.90468740404840       27.76577576448273       -7.38658289655097
H            3.46469307530133       27.09796085660277       -5.83359808864806
H            3.03828056549228       25.99190877908155       -7.15951619354254
S            5.19771771027706       27.04242172795874       -7.45850715800052
H            4.91346881369780       26.93640231118393       -8.78729706366637
72
 energy: -105.971005903815 gnorm: 0.016508285106 xtb: 6.7.1 (edcfbbe)
Fe           6.17193588069038       24.75697814364706       -7.62903845517097
N            4.41240851851127       23.83201042212117       -7.36084948544263
N            5.82472263365831       24.84258354944282       -9.59958143159482
N            7.93547644503428       25.66734761683988       -7.89342319707835
N            6.56976995061485       24.53176864371416       -5.69831510982782
C            3.83946192284554       23.49223832827905       -6.17418537602859
C            2.54082687803954       22.90474617572459       -6.39191139209801
C            2.35936312082316       22.86206537130388       -7.74117748780127
C            3.53686514008917       23.44915123152777       -8.33077314017338
C            4.77634789045187       24.29842556466925      -10.27342619889921
C            4.85716751555287       24.60466439110880      -11.67603714567963
C            5.98347722892228       25.36772585419642      -11.83783681319489
C            6.58181015680154       25.48432407362709      -10.52379052615058
C            8.34805747524398       26.30179589713112       -9.02587360603797
C            9.56367109963484       27.03035957132666       -8.78915742870080
C            9.91531500447347       26.78435688450553       -7.48404765354262
C            8.86933492766754       25.92835069773638       -6.94971933984955
C            7.74962462403359       24.80522243751452       -5.08259812816103
C            7.70059841354407       24.41032619766665       -3.69203400923536