72
 energy: -105.980693992407 gnorm: 0.000026918457 xtb: 6.7.1 (edcfbbe)
Fe           6.09705192975580       24.77271395310042       -7.57365469200972
N            4.39148973251199       23.77550711500710       -7.32471651940565
N            5.69662817579032       24.99154090608239       -9.52158573414167
N            7.85626206371043       25.72406420700661       -7.83031600463975
N            6.54783327063977       24.48633634362861       -5.64184634147294
C            3.89746918438149       23.27836609062298       -6.16267592936084
C            2.61970897474699       22.63498251380370       -6.38263127877756
C            2.36188063807136       22.74519178533509       -7.71223132765446
C            3.48162850362189       23.46217912870252       -8.28372086433260
C            4.62137926705470       24.49725205774833      -10.19270422476868
C            4.68314717919379       24.84608635303012      -11.58895025567607
C            5.83022209974265       25.57550628180485      -11.75303549565002
C            6.45449502216903       25.63729367756801      -10.44581454934872
C            8.30267701330968       26.31390817556381       -8.97549752079046
C            9.58034073867222       26.94038603673471       -8.76247592982883
C            9.90889976425458       26.70979363184493       -7.45219887641211
C            8.80417712076567       25.96361454758231       -6.88685669198070
C            7.67658276223531       24.88264972037004       -4.99498748682799
C            7.61343577090657       24.52744086838954       -3.59460390374485
C            6.40923184926476       23.92422091295764       -3.40782713235539
C            5.75902970031477       23.90662871389873       -4.69897355214487
C            4.51746474990093       23.34829621802448       -4.92981903788836
H            4.00006223669177       22.91865469592348       -4.08634409510920
C            3.58200698275039       23.78400573570146       -9.62153378489862
H            2.78299088469348       23.46236844458607      -10.27119133798293
C            7.64867515649622       26.28446250444243      -10.19454836263595
H            8.12592458973013       26.78495557351836      -11.02239027338151
C            8.74044005986181       25.55080181339789       -5.56922414165413
H            9.57457071013068       25.79335570644897       -4.92997786450958
C            1.19150342287047       22.25579435700461       -8.49317048062189
H            0.48032799699549       21.74832263653099       -7.84631862920202
H            1.51339657614827       21.55592285674327       -9.26435408006286
H            0.68012906884251       23.08593985721341       -8.98131004323981
C            1.80833057082073       21.99162480647448       -5.31169035864032
H            1.56680168422963       22.71077423033895       -4.52876269394004
H            2.35967177433561       21.16863270868639       -4.85656020259184
H            0.87836547616610       21.59863464299882       -5.71483086866742
C            3.70361348205468       24.41379321464416      -12.62261497666050
H            2.82057388146091       25.05532856911969      -12.61720856043498
H            3.37883635356217       23.39084011715659      -12.43927302328036
H            4.15789890694438       24.46371193035681      -13.60993049848063
C            6.37926111694868       26.15765915106995      -12.95811107230459
H            7.46092147640438       26.16601938247944      -13.02471220895239
C            5.66787503001902       26.67371169110026      -13.95472453989894
H            4.59394192922831       26.73369427612966      -13.92137164192197
H            6.14128375226788       27.08000857940423      -14.83293767231019
C           10.32840512007916       27.72686568056632       -9.78068430271338
H            9.64531822607701       28.31511648518295      -10.39168822067211
H           10.89355064524886       27.06936167893291      -10.44351808328482
H           11.02660945935421       28.40174491480779       -9.29004591807427
C           11.08209999808925       27.12911261085732       -6.71701867852660
H           10.91972530475348       27.36672171754329       -5.67237180861286
C           12.30781409463555       27.23070175869013       -7.21969768305952
H           12.53434784563862       26.96325120786593       -8.23714553409571
H           13.13722978805309       27.56297803886277       -6.61797056985847
C            8.69192464559004       24.81169881003711       -2.60721906664901
H            8.85340534939170       25.88610865393189       -2.51762548929445
H            9.63046185861898       24.35333317574865       -2.91970824080847
H            8.43020707901016       24.42225972606952       -1.62665631758694
C            5.81448316801582       23.36606955868506       -2.16146577139944
H            4.87525147440203       23.86799884126209       -1.92913369885065
H            6.48942674953367       23.49588018453657       -1.31928347592926
H            5.60971654582183       22.30146185697540       -2.27713158179341
O            7.22587407704669       22.87811827739057       -7.99335307286759
H            7.46786596926146       22.60753818807878       -7.10003860823821
H            8.02095346855383       23.23462412824051       -8.40608861870911
C            3.41760949259840       26.86773333927589       -7.73125551252973
H            3.06286734222037       27.89301151421921       -7.77189897992948
H            2.81180316654228       26.28850249536090       -7.04225300723731
H            3.40309718235409       26.40443233144083       -8.71188705812317
S            5.12077878138850       26.84990515603637       -7.06974513673518
H            5.64973453702482       27.54849294911939       -8.08090080386710
