77
 energy: -118.854834791866 gnorm: 0.258822774575 xtb: 6.7.1 (edcfbbe)
Fe          -5.47100000000000       57.28300000000000       20.89800000000000
N           -6.09700000000000       56.58199999999999       22.54000000000000
N           -6.43900000000000       58.93399999999999       21.57400000000000
N           -4.69400000000000       58.13600000000000       19.30300000000000
N           -4.30100000000000       55.64699999999999       20.51800000000000
C           -5.82700000000000       55.26599999999999       22.91800000000000
C           -6.38900000000000       55.01700000000000       24.22600000000000
C           -7.09300000000000       56.11499999999999       24.55600000000000
C           -6.82500000000000       57.13700000000000       23.57500000000000
C           -7.02000000000000       59.27600000000000       22.76700000000000
C           -7.55800000000000       60.60100000000000       22.67400000000000
C           -7.16500000000000       61.09499999999999       21.50000000000000
C           -6.48400000000000       60.05700000000000       20.78600000000000
C           -4.79400000000000       59.49400000000000       19.06400000000000
C           -4.06800000000000       59.82800000000000       17.83900000000000
C           -3.25300000000000       58.78500000000000       17.61700000000000
C           -3.75900000000000       57.66399999999999       18.40900000000000
C           -3.78100000000000       55.38900000000000       19.26800000000000
C           -3.41600000000000       53.99300000000000       19.23500000000000
C           -3.93900000000000       53.42199999999999       20.32200000000000
C           -4.69800000000000       54.42399999999999       21.01600000000000
C           -5.35600000000000       54.18200000000000       22.20499999999999
H           -5.49900000000000       53.16699999999999       22.56900000000000
C           -7.23000000000000       58.43900000000000       23.82700000000000
H           -7.66700000000000       58.75900000000000       24.76599999999999
C           -5.60000000000000       60.33800000000000       19.77800000000000
H           -5.52800000000000       61.39000000000000       19.50400000000000
C           -3.27000000000000       56.37200000000000       18.44300000000000
H           -2.43900000000000       56.11599999999999       17.78600000000000
C           -7.72500000000000       56.50200000000000       25.89200000000000
H           -7.06700000000000       57.22699999999999       26.41700000000000
H           -7.84400000000000       55.59799999999999       26.52700000000000
H           -8.71500000000000       56.97499999999999       25.71600000000000
C           -6.29500000000000       53.61200000000000       24.89600000000000
H           -5.24500000000000       53.25200000000000       24.85700000000000
H           -6.94300000000000       52.89200000000000       24.35100000000000
H           -6.61300000000000       53.68100000000000       25.95799999999999
C           -8.31400000000000       61.27700000000000       23.82800000000000
H           -8.20700000000000       60.66600000000000       24.75000000000000
H           -9.39200000000000       61.35900000000000       23.57300000000000
H           -7.89000000000000       62.28699999999999       24.01400000000000
C           -7.45100000000000       62.44599999999999       20.86600000000000
H           -6.93900000000000       62.81300000000000       19.96600000000000
C           -8.36700000000000       63.16299999999999       21.47300000000000
H           -8.52900000000000       64.21400000000000       21.19300000000000
H           -8.98400000000000       62.72200000000000       22.27000000000000
C           -3.84200000000000       61.25700000000000       17.26100000000000
H           -2.77100000000000       61.53399999999999       17.36400000000000
H           -4.45900000000000       61.99099999999999       17.82200000000000
H           -4.11600000000000       61.27400000000000       16.18500000000000
C           -2.21100000000000       58.64500000000000       16.48500000000000
H           -1.32200000000000       58.01600000000000       16.63900000000000
C           -2.33700000000000       59.25800000000000       15.31300000000000
H           -3.20800000000000       59.89900000000000       15.10900000000000
H           -1.57200000000000       59.13300000000000       14.53200000000000
C           -2.83900000000000       53.29199999999999       18.00600000000000
H           -1.75500000000000       53.52000000000000       17.92400000000000
H           -3.35300000000000       53.65499999999999       17.09100000000000
H           -2.97000000000000       52.19300000000000       18.10500000000000
C           -4.07300000000000       51.93900000000000       20.66300000000000
H           -3.24200000000000       51.37300000000000       20.19000000000000
H           -5.04000000000000       51.55100000000000       20.27700000000000
H           -4.02100000000000       51.80100000000000       21.76400000000000
O           -4.12700000000000       58.00999999999999       21.87100000000000
O           -3.93800000000000       58.08599999999999       23.14100000000000
C           -8.91200000000000       55.45300000000000       16.76500000000000
H           -9.34000000000000       56.27099999999999       16.14600000000000
H           -9.72200000000000       54.74100000000000       17.03100000000000
H           -8.12600000000000       54.93100000000000       16.17900000000000
N           -9.07900000000000       56.73400000000000       18.90500000000000
H          -10.05600000000000       56.93600000000000       18.83700000000000
C           -8.32300000000000       56.02099999999999       17.99400000000000
C           -8.23900000000000       57.08400000000000       19.86900000000000
H           -8.53900000000000       57.66300000000000       20.74300000000000
N           -7.01500000000000       56.63700000000000       19.61700000000000
C           -7.04300000000000       55.95500000000000       18.42600000000000
H           -6.15800000000000       55.49400000000000       18.00600000000000
77
 energy: -118.935764557625 gnorm: 0.124808963299 xtb: 6.7.1 (edcfbbe)
Fe          -5.42466388992686       57.31587319829998       20.94600100095949
N           -6.11812004367238       56.54569399860382       22.55403366896745
N           -6.45920147310062       58.95043867978784       21.55280571413577
N           -4.67130501354465       58.15264883924861       19.30472687562348
N           -4.38536884289041       55.63857373697329       20.47401198392927
C           -5.86774082369382       55.24880573587996       22.93197006407601
C           -6.41267797087153       54.98799976368806       24.24366854829628
C           -7.06950128670539       56.11206064869969       24.60783847314349
C           -6.82091785953883       57.10403353401209       23.59055702171255
C           -7.04654179288735       59.28026872672171       22.73706322358832
C           -7.55637437146445       60.62333659051531       22.68520634263544
C           -7.18179989797816       61.12161910717487       21.47680208879799
C           -6.45856649719332       60.08242439015163       20.79716161763659
C           -4.81236230415759       59.48721534297908       19.02940050708864
C           -4.01456938266948       59.85380919312420       17.86479052878211
C           -3.25494865302731       58.76024073400409       17.57200498572377
C           -3.72571523338639       57.67801064414054       18.43421167615773
C           -3.73105875706574       55.38782683118939       19.29093024797963
C           -3.42811563786676       53.97723663484719       19.20482334025998
C           -3.97312810876715       53.38993540694656       20.29683241657976
C           -4.65827644259201       54.41641178012425       21.03255719703957
C           -5.34273014385720       54.19732892123783       22.20846578636038
H           -5.48185116368322       53.18749697698563       22.56735065871498
C           -7.22402314801984       58.41411239015530       23.79435668699972
H           -7.65470427491613       58.73750011315079       24.73269807753734
C           -5.60843638531113       60.34798591508640       19.74616679521609
H           -5.53411172979381       61.39336696183820       19.48004241764951
C           -3.25252202368023       56.37948505296799       18.44621688218112
H           -2.45521705606211       56.11490647098434       17.76204283070106
C           -7.72639289910763       56.49171973854101       25.90260292016433
H           -7.07876145556172       57.21098751554904       26.41843634164082
H           -7.85079961123277       55.60644852921995       26.52956763495492
H           -8.70243112027638       56.96042584410556       25.72466761013051
C           -6.30005050865751       53.62486906058801       24.90005252669662
H           -5.26448568575426       53.26598650764486       24.85949967549280
H           -6.93773254199266       52.90707636129194       24.36789475276821
H           -6.61116754537508       53.68019550136992       25.94632897944473
C           -8.30430833030147       61.27091248469524       23.82737025529806
H           -8.20614081187108       60.67738789010399       24.74039374682066
H           -9.37419261580317       61.35038346272501       23.58911552691309
H           -7.89784765897826       62.27140765591564       24.01571535103568
C           -7.46045540476344       62.44272882113073       20.88219300600266
H           -6.93026183835410       62.79333289615592       19.99858059064322
C           -8.38215089020846       63.18756504009331       21.46826918265243
H           -8.55086620414057       64.21611058366294       21.17917402182741
H           -8.98584702605999       62.77013902904012       22.25691333838524
C           -3.84442919277549       61.24773308759946       17.27697798650800
H           -2.78870092640147       61.52988829365984       17.35983784142949
H           -4.45122937347788       61.98136583173763       17.81522153571690
H           -4.12249470191464       61.27638909688328       16.21658863177325
C           -2.23277375531962       58.63625943861456       16.48616044863672
H           -1.35209377757036       58.01736302460808       16.66093982375395
C           -2.33737762725431       59.25730738915171       15.31840425976244
H           -3.19267640021447       59.88276266492608       15.09437055317072
H           -1.58430577840938       59.13752083370755       14.54481865175180
C           -2.83014739836254       53.29539528893793       18.00662352922915
H           -1.76063285398571       53.51588063851901       17.92019175419247
H           -3.33870858783561       53.64875822743642       17.10254563053697
H           -2.96478966737108       52.21200217393137       18.09641111325893
C           -4.06747020543893       51.93451430924355       20.65736857820922
H           -3.25062031436359       51.37257253365983       20.19537638904823
H           -5.02496887276275       51.54781510652835       20.28755512861931
H           -4.01860707267967       51.79875607616776       21.74346944760006
O           -4.08073989051156       58.02549432427130       21.85685909328399
O           -3.94477465921340       58.08124550959712       23.12614141484120
C           -8.91859111273350       55.45063517034000       16.75571884541951
H           -9.34192450701674       56.25484541335516       16.14147004613182
H           -9.71655202282985       54.74407660325766       17.01403852381928
H           -8.14332926208175       54.93450487628471       16.18245425069400
N           -9.06874646488094       56.72662115002154       18.89797524893707
H          -10.05122334603484       56.93103925950945       18.82932313532475
C           -8.32615785850514       56.01659885240332       17.98624983416526
C           -8.22831491853867       57.08366100416972       19.87861994191219
H           -8.52942264958703       57.65666687877195       20.74011934809630
N           -7.00801642421002       56.64854796983752       19.64676059761878
C           -7.04871777861375       55.96995683530751       18.45134743271053
H           -6.17102024234277       55.51049889620864       18.02854786450261
77
 energy: -118.967854427334 gnorm: 0.045701409915 xtb: 6.7.1 (edcfbbe)
Fe          -5.36718997837123       57.33646493606329       20.99082368302271
N           -6.12700206219345       56.50946343365869       22.57481974304307
N           -6.45494116075177       58.96861103279029       21.52574907911067
N           -4.63591179178352       58.18009602896054       19.31444507300921
N           -4.43624442589732       55.63023415952706       20.44340717797977
C           -5.90862162843554       55.22708148775928       22.94353006135042
C           -6.44450904730111       54.95716155958947       24.25664158404134
C           -7.04369075551105       56.10976541236047       24.65676277115353
C           -6.80778661721633       57.07509523090628       23.60916872191085
C           -7.06544914106418       59.28039037744568       22.70071926509369
C           -7.55571005687401       60.63193556348810       22.68688803933767
C           -7.18888954718556       61.14458084801012       21.46059071545294
C           -6.42780167685039       60.10958139218170       20.80042373056700
C           -4.80590611659521       59.49292570307080       19.00990121758101
C           -3.97944793573094       59.86771597992373       17.87972698604066
C           -3.25646138880105       58.74616788017144       17.54398885213919
C           -3.69731966367467       57.69588936400831       18.45859733570962
C           -3.70393976331242       55.39183307158218       19.31179977446382
C           -3.43369246272144       53.97597219253814       19.18881442944592
C           -3.99713749879952       53.37533735927028       20.27703911450600
C           -4.63633737207345       54.41808687545919       21.02980835438331
C           -5.33636350239516       54.21403067320640       22.19842583213680
H           -5.44600641220969       53.20633486972766       22.56556955928028
C           -7.21752962419172       58.38770620175002       23.74818444460875
H           -7.64746464902951       58.71543950799865       24.68313659623292
C           -5.61448229108821       60.36632953703596       19.70853524955148
H           -5.55469992337179       61.40459303053149       19.43290257243742
C           -3.25298104821344       56.38421135480829       18.44573384300703
H           -2.48548744189673       56.10876771419511       17.73528123220505
C           -7.72124072041332       56.47834403936493       25.92260520935448
H           -7.09343712054614       57.19974967341686       26.44321621043020
H           -7.85914524077615       55.60576354660707       26.54696290521023
H           -8.68911660191013       56.94012022231144       25.73225008017060
C           -6.31468411876870       53.63195787686704       24.91102674245091
H           -5.28397340167268       53.28292289395729       24.86717186611984
H           -6.93946775498914       52.90608141505175       24.38982845550622
H           -6.61838346708330       53.67872596653423       25.94980880940956
C           -8.29383822757285       61.26153617497690       23.82050734609113
H           -8.19474298961426       60.67732056585974       24.72858931845436
H           -9.36065597190586       61.34137968241395       23.59952833451654
H           -7.90371142635155       62.25960498058588       24.01407710328956
C           -7.46738910183452       62.44303767394410       20.91177247771441
H           -6.91977258451303       62.77528813478740       20.03919953264606
C           -8.39831605228585       63.21987398118686       21.46168468587532
H           -8.57696318292682       64.22766262387819       21.14500365942338
H           -9.00072342313347       62.83169142654637       22.25089498121791
C           -3.84386032942367       61.23359954544929       17.29423765887342
H           -2.79799695587993       61.53363612665230       17.35203433430564
H           -4.44510327922482       61.96581319598304       17.82181974202208
H           -4.13558625335937       61.26637500280054       16.24588375298483
C           -2.25839041089139       58.62887874906286       16.49638119706279
H           -1.39168698982264       58.00601356033011       16.68897471906859
C           -2.34207645732472       59.24783645005780       15.32300252805787
H           -3.18270242862030       59.86756321842981       15.07565124156880
H           -1.58615171136683       59.14291002097461       14.56319667280043
C           -2.82338350192816       53.30460263881312       18.00973910308139
H           -1.76220063661311       53.52098446440116       17.92001414429180
H           -3.32119631277526       53.64420899185615       17.10309174833705
H           -2.95353105998209       52.22860064970850       18.09019462230154
C           -4.06606351450991       51.93518884031136       20.64433406259099
H           -3.25537812288980       51.37350079829699       20.19347065467126
H           -5.01524769183904       51.52795180196566       20.29498466708912
H           -4.01455312406472       51.80329147268747       21.72197754857455
O           -4.03418273223419       58.01869047300745       21.83057005961211
O           -3.96259234935410       58.07741013793330       23.10467344950175
C           -8.92098335626201       55.44821305160175       16.74877450389851
H           -9.34362430239597       56.24208084239856       16.13636576312638
H           -9.71262194817106       54.74482621795838       16.99993460231447
H           -8.15439462010118       54.93422927310956       16.18152706296891
N           -9.06257985763237       56.72108969773784       18.89417800080285
H          -10.04723437025694       56.92697332114864       18.82440373998260
C           -8.32615067520284       56.01381997068950       17.98222586566759
C           -8.22729176292433       57.08509847134478       19.88850512805267
H           -8.53027651603835       57.65290550228723       20.74229219269560
N           -7.01160935032418       56.65951673478113       19.67021291588658
C           -7.05382937922190       55.98470884829209       18.47754794139364
H           -6.18095362952631       55.52761827362028       18.05425761973105
77
 energy: -118.979245151309 gnorm: 0.031861207100 xtb: 6.7.1 (edcfbbe)
Fe          -5.33009424524319       57.34920917537048       21.01343028507157
N           -6.12659951078656       56.48189355740973       22.58780859787761
N           -6.43245778754101       58.99015674237220       21.50293679555233
N           -4.59910313654698       58.20773531393929       19.33843863409944
N           -4.46188373921425       55.62303638028173       20.42671984985031
C           -5.92748464901295       55.20004197397925       22.95310344671083
C           -6.46548941481455       54.93625031653004       24.26820624569025
C           -7.02609492704675       56.10400698386554       24.68391301981021
C           -6.79641614967256       57.05699154310265       23.62021258559277
C           -7.06973841068140       59.27545429990052       22.67272549941239
C           -7.55947610260118       60.62423719093038       22.67831094228926
C           -7.18847363296656       61.16141567722121       21.45922085607339
C           -6.40879561817281       60.13870876924360       20.79236913993295
C           -4.78845986080648       59.51153546857148       19.01167751753131
C           -3.96517696862952       59.87349041962792       17.88563263588891
C           -3.25536166832915       58.74677746124465       17.54427094347169
C           -3.67636636332247       57.71125386792068       18.48036139751133
C           -3.70649864552031       55.39846938639710       19.31427161730848
C           -3.44606896006995       53.98170653203372       19.17512961769929
C           -4.01688237847728       53.37213173897869       20.25625465193491
C           -4.64019202021892       54.41623628766122       21.02188995814441
C           -5.32779976697784       54.20994830313868       22.19790796275758
H           -5.39734691712485       53.20189820852546       22.57592744335076
C           -7.21626307066019       58.36829838914355       23.71006697603405
H           -7.65906831201661       58.69746224795928       24.63564849797285
C           -5.62009499445131       60.39212064100509       19.67972421316361
H           -5.59810671202399       61.42184023341958       19.35959575049921
C           -3.25732625281837       56.38940905267017       18.44776791558127
H           -2.52754289744956       56.10002343737731       17.69856689178584
C           -7.71477032001560       56.46278809664813       25.94855209975689
H           -7.10843722513332       57.18940789546853       26.48908735300248
H           -7.86396646608569       55.59102998961342       26.57469140984630
H           -8.68395348160542       56.91596197796265       25.74439853392273
C           -6.33561676321305       53.62036714246778       24.93643569264307
H           -5.30020084537159       53.28591370119322       24.89323436816690
H           -6.95165755117699       52.87938348460735       24.42503175446145
H           -6.63807041034180       53.67359805616717       25.97578055563468
C           -8.28734912108005       61.24539423058553       23.81871800654659
H           -8.16944586951013       60.66155953478114       24.72563259233525
H           -9.35799425484314       61.31789785586955       23.61515642795752
H           -7.90553146730993       62.24801701267462       24.00892417006760
C           -7.47240193046076       62.46617347424530       20.93492365693028
H           -6.90126513668375       62.78750479993307       20.07389381718899
C           -8.41192828314642       63.26638292963388       21.44542343806053
H           -8.60280012168106       64.25733079838801       21.07478784012724
H           -9.03290382339768       62.91847849449466       22.24365262128306
C           -3.84311915401442       61.23417348997353       17.29932025435090
H           -2.79791005561895       61.54577486496009       17.33016419112432
H           -4.43746383888460       61.96140837573794       17.84156724575246
H           -4.16439044067142       61.26141907295512       16.25979296973523
C           -2.26950095698078       58.61457243550440       16.49843843945290
H           -1.41913479537822       57.97575433805251       16.70627876326487
C           -2.33353594559830       59.23398185963105       15.32266651996814
H           -3.17509106782968       59.84434990257068       15.05018062955440
H           -1.56771148513519       59.13114968493529       14.57487142530027
C           -2.81078849507647       53.31779672835034       18.00418691902649
H           -1.74950077363492       53.54154923490346       17.92640350603250
H           -3.29689613638296       53.64897235935377       17.08743152769689
H           -2.93255534772025       52.24050241623737       18.08181228000106
C           -4.06516737915859       51.93111816940036       20.62623642023649
H           -3.25023236140310       51.37537315538764       20.17398034187992
H           -5.01076017138743       51.49750525907015       20.29484061017775
H           -4.00141168173919       51.80780569982732       21.70452932884898
O           -3.98976885671949       57.99179686386803       21.81229525428648
O           -3.96299845348651       58.08447129347349       23.08960724041974
C           -8.91707710293630       55.44764602149203       16.75013463447149
H           -9.34260521545784       56.23624333930617       16.13233254252228
H           -9.70950618441459       54.74184362020061       16.99344975894773
H           -8.15265673796411       54.93204568357119       16.18111070554047
N           -9.06813249508556       56.72020466372922       18.89676018724646
H          -10.05213458264443       56.92395585965892       18.82158754540521
C           -8.32484977424179       56.01539093779629       17.98762235333033
C           -8.24211404297503       57.08946670492087       19.89924154468849
H           -8.55068670031073       57.65479382032618       20.75237260246830
N           -7.02448159869784       56.66980396565382       19.68794398953094
C           -7.05667915224311       55.99657794717086       18.49944432184115
H           -6.18018283195350       55.54462315742594       18.08298172036645
77
 energy: -118.985520301946 gnorm: 0.021300920168 xtb: 6.7.1 (edcfbbe)
Fe          -5.30256342776114       57.35935571286898       21.02583205132237
N           -6.12064337702130       56.45617710451055       22.60095699598117
N           -6.39672682771684       59.01404018460256       21.48934112643855
N           -4.57275666216647       58.23389457505817       19.36324626492415
N           -4.48268384700019       55.61753491616125       20.41680848591836
C           -5.93404961759230       55.17025153698871       22.96578406844772
C           -6.48071200775823       54.91825213782763       24.28192240753196
C           -7.01384463428077       56.09505954523524       24.70199430493191
C           -6.78356394220147       57.04256428152800       23.63095832356392
C           -7.06076781595610       59.27030267037002       22.65352690274094
C           -7.56005906482401       60.61382294779101       22.67073816134653
C           -7.18318901079529       61.17775038002751       21.46675583446182
C           -6.39049360399390       60.16950187626798       20.78737224167617
C           -4.77137683449489       59.53334129087993       19.02057624773914
C           -3.95568308379914       59.88040109365254       17.88779355283538
C           -3.25724434232337       58.74910296830248       17.54890877243309
C           -3.66824187016495       57.72440267867252       18.49566769576131
C           -3.72314128356833       55.40410598584164       19.31053125261959
C           -3.45871526108857       53.98882926890201       19.16275396287704
C           -4.03074564894271       53.37173931539185       20.23721441100332
C           -4.65177362089095       54.41166275607622       21.01454947656033
C           -5.31699056254985       54.19680462690923       22.20443862258165
H           -5.34630112241189       53.18825798761315       22.59060946225140
C           -7.21379325450360       58.35098767852377       23.67948698137659
H           -7.68497402253822       58.67921297616218       24.59147802924383
C           -5.62692819376756       60.41778535275352       19.65711119225759
H           -5.65374764032861       61.43390870801409       19.27937677576899
C           -3.27484958576147       56.39385319117071       18.44596984065961
H           -2.57564384324358       56.09797798659706       17.67179352111928
C           -7.70917808559311       56.44547745715857       25.96975872673192
H           -7.11957878540190       57.17432589820169       26.52786199187682
H           -7.85880070492705       55.56879586235335       26.59291614106207
H           -8.68290703170019       56.88876926772049       25.75970926499271
C           -6.35767788249139       53.60562408351149       24.96782028490990
H           -5.31955669278059       53.27638441288830       24.93749502224561
H           -6.96692620504341       52.85277616107886       24.46493448030761
H           -6.66832196003156       53.67313050655843       26.00543685929992
C           -8.28448540749850       61.23226672413566       23.81428734367595
H           -8.14373051143749       60.65220360154677       24.72273812140225
H           -9.35774635440007       61.29373398651860       23.62146955138400
H           -7.91023339436826       62.24006181962068       23.99422290427283
C           -7.48073683636522       62.48913358520009       20.95259138910765
H           -6.88619130091427       62.81078840448999       20.10654889191521
C           -8.42811613331244       63.30173310154679       21.42478699387039
H           -8.60772388126447       64.28159412255208       21.01557963610036
H           -9.06741373652675       62.99985590591262       22.23531243603665
C           -3.84060390413186       61.23932553456713       17.29146056301090
H           -2.79416037674058       61.55036866508245       17.28959518129630
H           -4.41458592074513       61.96862908603662       17.85576268196656
H           -4.19818678493249       61.26025042759104       16.26231143005900
C           -2.27472366577071       58.59540525115034       16.49867905464038
H           -1.43975082219641       57.94077083269822       16.72149788331651
C           -2.32326944717419       59.20865835015001       15.31991968675136
H           -3.14939927413999       59.83723177248239       15.03713692543661
H           -1.54778021194365       59.09777769233853       14.58251125634796
C           -2.79554713160211       53.33597922534379       17.99748435392539
H           -1.73464303996002       53.57675595296823       17.94206307970095
H           -3.26665902840189       53.66053328389403       17.06911556715735
H           -2.90128039242215       52.25566794086838       18.07086057375269
C           -4.06068008561261       51.92727942323479       20.60378953849825
H           -3.24215400905423       51.38275827312663       20.14080237118502
H           -5.00318328737241       51.47349906121756       20.28797564866273
H           -3.97910067754440       51.80760858053479       21.68254914642620
O           -3.94814608886427       57.95255436554555       21.80657261366654
O           -3.95719549237385       58.09799244245339       23.08324035244538
C           -8.91167780493527       55.44776696416606       16.75434111685290
H           -9.33841589985277       56.23353752127223       16.13112016290478
H           -9.70419081655736       54.73790340979733       16.99213859280703
H           -8.14408069261902       54.93256055608330       16.18610181150129
N           -9.08287000119470       56.72000160664701       18.89980370712436
H          -10.06642708527226       56.91876339433002       18.81730396171393