72
 energy: -105.739568976066 gnorm: 0.380162635279 xtb: 6.7.1 (edcfbbe)
Fe          42.63300000000000        8.91600000000000       18.77700000000000
N           40.90700000000000        8.18200000000000       19.38800000000000
N           41.86500000000000        8.61100000000000       16.81900000000000
N           44.39299999999999        8.43300000000000       18.13100000000000
N           43.30900000000000        8.49400000000000       20.76400000000000
C           40.38399999999999        8.30800000000000       20.77000000000000
C           38.91299999999999        8.23800000000000       20.91300000000000
C           38.42300000000000        8.27000000000000       19.52300000000000
C           39.64200000000000        8.36800000000000       18.68200000000000
C           40.60399999999999        8.47100000000000       16.35500000000000
C           40.43099999999999        8.31900000000000       14.89700000000000
C           41.78900000000000        8.43600000000000       14.44600000000000
C           42.56199999999999        8.66200000000000       15.66500000000000
C           44.78900000000000        8.97200000000000       16.80700000000000
C           46.18900000000000        9.42800000000000       16.66200000000000
C           46.69000000000000        9.35900000000000       18.01800000000000
C           45.57400000000000        8.87900000000000       18.88400000000000
C           44.58700000000000        8.48000000000000       21.21500000000000
C           44.78599999999999        8.20300000000000       22.66000000000000
C           43.42299999999999        8.08700000000000       23.14000000000000
C           42.63000000000000        8.34100000000000       21.92299999999999
C           41.19799999999999        8.26300000000000       21.96200000000000
H           40.70500000000000        8.16600000000000       22.92900000000000
C           39.49300000000000        8.36400000000000       17.25300000000000
H           38.49100000000000        8.27600000000000       16.83400000000000
C           43.98699999999999        8.81800000000000       15.63100000000000
H           44.48500000000000        8.81900000000000       14.66100000000000
C           45.71200000000000        8.62900000000000       20.30200000000000
H           46.71900000000000        8.54700000000000       20.71200000000000
C           36.99300000000000        8.25900000000000       19.04500000000000
H           36.31000000000000        8.22200000000000       19.92000000000000
H           36.81600000000000        7.36400000000000       18.41100000000000
H           36.78400000000000        9.18300000000000       18.46400000000000
C           38.11099999999999        8.12800000000000       22.19200000000000
H           38.45100000000000        8.90400000000000       22.91100000000000
H           38.26300000000000        7.12500000000000       22.64500000000000
H           37.03300000000000        8.28700000000000       21.97400000000000
C           39.19600000000000        8.10400000000000       14.08500000000000
H           38.67200000000000        9.07300000000000       13.94300000000000
H           38.51700000000000        7.40200000000000       14.61400000000000
H           39.46800000000000        7.69200000000000       13.09000000000000
C           42.27100000000000        8.39000000000000       13.04100000000000
H           41.64300000000000        8.77100000000000       12.22200000000000
C           43.45499999999999        7.89400000000000       12.74800000000000
H           44.04000000000000        7.35800000000000       13.51000000000000
H           43.87400000000000        8.01000000000000       11.73800000000000
C           46.94400000000000        9.89600000000000       15.44000000000000
H           46.23400000000000       10.03600000000000       14.59700000000000
H           47.70000000000000        9.13500000000000       15.15200000000000
H           47.44300000000000       10.86500000000000       15.65600000000000
C           48.07400000000000        9.80200000000000       18.32800000000000
H           48.71400000000000       10.21200000000000       17.53300000000000
C           48.56300000000000        9.72100000000000       19.52700000000000
H           49.65100000000000        9.73500000000000       19.68800000000000
H           47.89600000000000        9.63800000000000       20.39800000000000
C           46.04500000000000        8.07900000000000       23.45300000000000
H           46.52699999999999        9.07600000000000       23.54300000000000
H           46.74499999999999        7.38600000000000       22.94000000000000
H           45.81200000000000        7.69900000000000       24.47000000000000
C           42.92500000000000        7.89400000000000       24.55200000000000
H           43.76799999999999        8.02600000000000       25.26400000000000
H           42.51299999999999        6.86900000000000       24.66800000000000
H           42.13999999999999        8.64700000000000       24.77900000000000
O           42.62000000000000        6.00300000000000       18.87400000000000
H           41.74799999999999        5.75300000000000       19.17900000000000
H           43.28299999999999        5.44900000000000       18.66600000000000
C           41.24699999999999       11.67900000000000       19.69400000000000
H           40.56999999999999       12.30500000000000       19.07400000000000
H           41.54800000000000       12.27500000000000       20.58200000000000
H           40.67600000000000       10.78800000000000       20.03200000000000
S           42.69600000000000       11.17200000000000       18.76800000000000
H           42.01499999999999       10.72800000000000       17.72200000000000
72
 energy: -105.876042150515 gnorm: 0.183557336914 xtb: 6.7.1 (edcfbbe)
Fe          42.62827447314903        8.77995933570700       18.78537273386726
N           40.81655259485571        8.26373801197794       19.42998192167367
N           41.85644898682824        8.63275496300350       16.79163563811842
N           44.45951347671743        8.54716759245576       18.10788512956954
N           43.32161182341930        8.51455797172260       20.79252472040616
C           40.37374261597723        8.28117973826496       20.79013987584030
C           38.91969989364348        8.23885934675625       20.87982717949082
C           38.44349654626049        8.27453858254309       19.54376381749699
C           39.61745760320697        8.33902277868962       18.67825754716261
C           40.57854935073547        8.45789022307859       16.36616048842168
C           40.45638278014143        8.32798593057722       14.91174696917710
C           41.77879156341353        8.43735583809362       14.45176690304219
C           42.58951848509383        8.64054005653426       15.65059843867665
C           44.80532392419713        8.94851674030243       16.78087913638230
C           46.17602053693957        9.41859692591188       16.69140473917171
C           46.67605480211304        9.37631981910631       18.01225968467291
C           45.60574352226370        8.86132775648990       18.88571452658962
C           44.61623513991584        8.46387655210594       21.19748160730645
C           44.75710633960836        8.20564177186037       22.64369203042932
C           43.43649759258299        8.10740802686534       23.11635449974174
C           42.60594529903938        8.32313326277329       21.92838786818571
C           41.19618982305620        8.25603212446921       21.94256474875633
H           40.70901301724271        8.16936874567946       22.90998099691654
C           39.49923486497085        8.35712409537149       17.26837732486885
H           38.50274875506281        8.28121438372036       16.84444784232441
C           43.98737691000071        8.81235343331409       15.64169052836330
H           44.47819050498412        8.84090753796158       14.67600310223938
C           45.69961746266698        8.62029613083121       20.28705998156637
H           46.69498632278788        8.54735094230317       20.71065530224621
C           37.01535577742907        8.26041772902380       19.05659377127426
H           36.32126433460284        8.22276706388900       19.90783243668196
H           36.82111388588913        7.38021200669701       18.42184512474108
H           36.78905535147163        9.16710920733620       18.47220837615964
C           38.12578507099856        8.13333938261888       22.16567310920761
H           38.44736973606896        8.89275105648000       22.89656133449406
H           38.26089557243831        7.14303024652294       22.63277918973870
H           37.05276825215424        8.28332263629590       21.97494306036592
C           39.21334481343912        8.10797964854628       14.09965454529084
H           38.67855389071315        9.05987704904489       13.94664541596597
H           38.52745362633298        7.41176698292745       14.60533696013243
H           39.46531531870173        7.69868189452925       13.10975906788638
C           42.26670501662188        8.39063851955093       13.06117821231745
H           41.64193496117207        8.77822574955992       12.25097665330133
C           43.45665093885780        7.88990241149149       12.74758398232019
H           44.04334797557922        7.36094628369661       13.49166623015667
H           43.86779442702468        7.99472486544569       11.74588224584169
C           46.92421442685685        9.88743174821087       15.46188595440777
H           46.24312583593979       10.03349373659416       14.61118409660634
H           47.68593309097233        9.14800684997863       15.16223459110269
H           47.43205511999528       10.84596391592238       15.65443609648212
C           48.05075168162059        9.79607741438129       18.32528351309300
H           48.69166962110496       10.17633014291120       17.52412590231044
C           48.57104458604756        9.72450139767693       19.54091651264993
H           49.64525528278326        9.76057735262208       19.69683322333848
H           47.92584448149197        9.62732547170329       20.40207378448715
C           46.02651077388798        8.08161962866648       23.43746560729312
H           46.52080540451026        9.06188348480179       23.53921209096570
H           46.73450132732635        7.39523523013889       22.94818363165621
H           45.81502598793814        7.70463947251009       24.44943388239275
C           42.93606290801539        7.89831893365539       24.52736136285847
H           43.75568596551065        8.02414455070409       25.25029398905987
H           42.51874754972530        6.88668624235032       24.66259388479725
H           42.15288857262365        8.63290066338564       24.77360060634998
O           42.60894261278666        6.04282544379691       18.87515069576992
H           41.75158518619880        5.75328187226380       19.17858192179945
H           43.29358679462097        5.43779212925702       18.66350998719022
C           41.23245766520245       11.68302854870698       19.70041667751639
H           40.57700430982977       12.30433619827154       19.07775599694837
H           41.54849906620461       12.26711055782810       20.57318658850529
H           40.67955598482231       10.79571441868230       20.03382018787218
S           42.69372316700191       11.16262290910242       18.77028306961336
H           42.01048863661220       10.74044033375069       17.71144114635273
72
 energy: -105.932629686679 gnorm: 0.059940035396 xtb: 6.7.1 (edcfbbe)
Fe          42.62863278870267        8.61123248074068       18.79317537909848
N           40.74936426486471        8.31519862119717       19.46303529590189
N           41.85599451266196        8.61961830809062       16.77650337937584
N           44.50954712683836        8.63147760656870       18.09152694628310
N           43.32760176902016        8.50080536084047       20.80151256892159
C           40.36188710286741        8.28694476398673       20.78258321751505
C           38.91572186361252        8.23569275488415       20.85000386013902
C           38.45493256040065        8.27173724791475       19.56764293636602
C           39.60897666600540        8.34001987755557       18.69430435318461
C           40.56298012008659        8.44581195253659       16.38371667986722
C           40.48024762091185        8.33550019633746       14.93215082581321
C           41.77236817979649        8.43396186578549       14.46661958038800
C           42.61553200721152        8.61862411767345       15.65032964087909
C           44.81653119366386        8.94879936975541       16.78928834893954
C           46.17390978273871        9.41176998659722       16.71992469686855
C           46.67343055865059        9.38154980138664       18.00550464647503
C           45.60778478584065        8.87404878370109       18.87320104904664
C           44.63305665153432        8.44932753140385       21.17055967629276
C           44.73009908967954        8.20698478981744       22.62033638665336
C           43.44707280850720        8.12580098210325       23.08559455855908
C           42.58303959671942        8.31077690961716       21.92005076343542
C           41.19092647156874        8.25889727099161       21.90685889000021
H           40.70957138125959        8.16797891113005       22.87638821769118
C           39.51343127754441        8.36060408516448       17.29771103609005
H           38.51985442592886        8.28451666658586       16.86861188140882
C           43.99002404937811        8.81588951747752       15.67178026691944
H           44.47563234330806        8.87268026418092       14.70580422121347
C           45.67647358417307        8.62304843732797       20.25977453129491
H           46.66362615582172        8.54862337030114       20.69699654826944
C           37.03251224929505        8.26013961999615       19.07092490146728
H           36.33178893476378        8.22270116440602       19.90377233064931
H           36.83585481558043        7.39240003175172       18.43385836159326
H           36.80434929723815        9.15514672401843       18.48397856968027
C           38.13514297676541        8.13741197279614       22.14050845944396
H           38.45156866191152        8.88743909471120       22.87103150157051
H           38.26601130273989        7.15724551153708       22.61235050622726
H           37.06817153441211        8.28031061858689       21.96767545563073
C           39.23257389759618        8.11395012710727       14.11719448949042
H           38.69158552555361        9.05290710376345       13.95734146803553
H           38.54501061422252        7.42131872088839       14.60660422180092
H           39.47293846602186        7.70599025958204       13.13310096470255
C           42.26442949412576        8.38977173745755       13.08998795509052
H           41.63951191743470        8.79021505259267       12.29303486977223
C           43.45241328705178        7.88573719379717       12.75033789972819
H           44.05029705337390        7.36179356638685       13.47376675617510
H           43.85056825418045        7.97533709277297       11.75178811386606
C           46.90872879122362        9.87870926937818       15.48352449149409
H           46.24142632362719       10.02751910310105       14.63458796020062
H           47.67051200143535        9.15257240974169       15.17795998975543
H           47.41951996342981       10.82829460222235       15.66271477265020
C           48.03194996866404        9.77929450241572       18.32995443586959
H           48.66720858380040       10.12467817313261       17.51616226227997
C           48.57891737115495        9.73224055536950       19.54849267484867
H           49.64169525400614        9.80268189295337       19.69880947466661
H           47.96012630917917        9.61178655861499       20.41067464667248
C           46.00572284201980        8.08505062108348       23.41763017860957
H           46.50589943489094        9.05301926533058       23.52648896042174
H           46.71647698894107        7.40320986026921       22.94503761441493
H           45.80790408593822        7.70967937881773       24.42427354460787
C           42.94920490493488        7.90564536335543       24.49687138189527
H           43.75158561926708        8.02455570188478       25.22711332045169
H           42.52832967530776        6.90409401763931       24.64014821290196
H           42.16668476764151        8.62449143482548       24.75638793607293
O           42.60612041830743        6.10674739664943       18.86818501423945
H           41.76682864140096        5.75879916264610       19.17585309097716
H           43.28341983116318        5.45478259090529       18.66909651125115
C           41.21635334203823       11.68271221615345       19.70909169023120
H           40.58679714513683       12.30374704424068       19.07875747558052
H           41.55333556669774       12.25807882388735       20.56611484991189
H           40.67640215943205       10.80190254500419       20.03916839456314
S           42.68574440100216       11.13409958539038       18.77758673852663
H           42.00712658779497       10.74687050118205       17.69556716909009
72
 energy: -105.951084596987 gnorm: 0.038845098580 xtb: 6.7.1 (edcfbbe)
Fe          42.62204481772614        8.51982761458557       18.80120634241221
N           40.72868319149816        8.35443013332537       19.47143290501712
N           41.86647888494760        8.57255897129334       16.79379001770382
N           44.50721228610031        8.67475950608595       18.09974469594026
N           43.31685134383483        8.46334088590010       20.77661195724606
C           40.34733637874977        8.27931666490863       20.77734521026052
C           38.90118336066283        8.23488570157765       20.85107804982431
C           38.44092056793387        8.27185326038878       19.57308975473504
C           39.59917627145718        8.33546770523901       18.70424165607613
C           40.56990186014156        8.42271524378908       16.40696338499725
C           40.49473217062985        8.33475780159067       14.95804421984372
C           41.78272228490376        8.42251567152199       14.49317090383488
C           42.63150873480315        8.58712092651612       15.67344890756506
C           44.82601550273586        8.95083894355470       16.80359134527554
C           46.18422696499004        9.40996823697772       16.73292266779076
C           46.68393864343118        9.37989592428356       18.01428532169888
C           45.60807688688641        8.87710978139236       18.86735384435787
C           44.62357887016184        8.42516891870673       21.13816291489730
C           44.71844773023650        8.20458231698301       22.58745372927014
C           43.44140355994030        8.13607080793829       23.05469964488952
C           42.56933156656973        8.29362201461423       21.89360512587145
C           41.18308928709181        8.24919432706441       21.88841875067579
H           40.70444463286874        8.16257620375257       22.85588590689976
C           39.51847219317519        8.35399592832749       17.31470466178463
H           38.52611390411366        8.28993351933776       16.88668897136892
C           43.99648758406884        8.81928306019835       15.69343546902743
H           44.47668943118818        8.92649515321082       14.72815155469316
C           45.66628801315443        8.61546392853734       20.24385016326482
H           46.64678107025397        8.55047866563004       20.68904940783220
C           37.02987083177766        8.25968017209175       19.07816889359567
H           36.33186469620705        8.22308624725811       19.90952516274723
H           36.84848059978321        7.39288851745959       18.44206853297829
H           36.81839150635762        9.15415496755028       18.49134494630652
C           38.13171957245768        8.14004937861773       22.13241773561673
H           38.46081185627079        8.89334739843939       22.84768840457099
H           38.27279085416523        7.16092764023016       22.59364392767915
H           37.06869583184374        8.28103112391978       21.95670243572633
C           39.25212887169656        8.12240521178367       14.14077982458370
H           38.71378225099354        9.05992854962891       13.98306060756359
H           38.56737362469533        7.42813504522228       14.62584977293037
H           39.49768223418005        7.71623849259544       13.16027076954213
C           42.26711031943956        8.39044484500123       13.12215658304353
H           41.63171492272433        8.81597020359879       12.34912803060930
C           43.44220401510979        7.87702573691208       12.75427194666443
H           44.06334525382222        7.35230309360474       13.45808522761301
H           43.81248685726368        7.94501745383721       11.74410233289826
C           46.90394874055205        9.87256302534682       15.49917507714828
H           46.22714056515256       10.01735942546096       14.66122718245118
H           47.66069014267283        9.14520700471886       15.19772317201571
H           47.40987926810828       10.81996034371247       15.68061911576793
C           48.03549093545445        9.75750242706078       18.34378872025982
H           48.66049203267915       10.04870016206785       17.50143587060660
C           48.59979766090190        9.74214866164267       19.55535146022057
H           49.65991841879323        9.88790134626431       19.69550210371658
H           48.00952687881974        9.58903814319852       20.43583231381038
C           45.98739675351324        8.08890359246721       23.38709076952146
H           46.48253587881636        9.05612608520058       23.49391502858707
H           46.69506332291702        7.40541076067925       22.91929099035354
H           45.78454078544336        7.71545725263779       24.39050651391139
C           42.95684954427478        7.91706524406001       24.46250027738092
H           43.76110000511586        8.03210435619471       25.18730527595618
H           42.53921929792443        6.91616395314441       24.59482055083639
H           42.17514486393939        8.63108652937679       24.72323277192501
O           42.60094250598743        6.18570509817163       18.84706189447730
H           41.78475422872481        5.79209132807081       19.17616718326955
H           43.27791810236028        5.52080512552181       18.67532834777963
C           41.20657858056563       11.67561034544304       19.71460366912877
H           40.59510426967204       12.30677416119723       19.07848389566968
H           41.56417253192817       12.24709141862193       20.56463549208166
H           40.65789588429445       10.80475271446361       20.05021480840466
S           42.67452771216975       11.10848369831409       18.78064782511060
H           42.00377899617462       10.75812590197860       17.67684706988533
72
 energy: -105.961188649411 gnorm: 0.025510478877 xtb: 6.7.1 (edcfbbe)
Fe          42.61286523391230        8.49085755404661       18.81033126523329
N           40.73110398547619        8.37397545561513       19.46890956419362
N           41.88308364425723        8.51682535304778       16.82947692172227
N           44.48610850436979        8.70590875257063       18.11646121832975
N           43.30058777298096        8.42008795150975       20.73519917713996
C           40.34095443775138        8.28677294231127       20.76851258633933
C           38.89648227959099        8.23222139716636       20.85058544059277
C           38.43522801377788        8.27071992125212       19.57100811303893
C           39.59918537015191        8.34266580891487       18.71065692662862
C           40.58765551356938        8.39050586715104       16.43621005295440
C           40.51142352870608        8.32675261864833       14.99103372903343
C           41.80079277226812        8.41059410963176       14.52883583492215
C           42.64466783635898        8.55328808589726       15.70901350779756
C           44.82256921729861        8.96743706133700       16.82273695262481
C           46.18923201895783        9.40492087517920       16.74907275906372
C           46.69352119120423        9.35543680942033       18.02941978586576
C           45.60195842163792        8.87846060349693       18.87114595143902
C           44.60506015041282        8.39551939555481       21.10273478632051
C           44.70609490585891        8.19698986144633       22.54727614038235
C           43.42926374471537        8.13738273903185       23.01728201513967
C           42.55885333403777        8.27173493212851       21.85786924829162
C           41.17531157468430        8.24224383017750       21.87471220971867
H           40.69902098892998        8.15287052036535       22.84003264510195
C           39.52278326882094        8.34888222612264       17.32731336089374
H           38.53172105942708        8.29554981626143       16.89920535363265
C           44.00031315871193        8.83015574842376       15.71380265715450
H           44.47112803412179        8.97225841174410       14.74995668250996
C           45.66177763517329        8.60699898529534       20.23618513942856
H           46.63710883660164        8.55780471386407       20.68840413132144
C           37.03003316027926        8.25848536081054       19.08121442395064
H           36.33118055828108        8.22219270910473       19.91153989753666
H           36.85348359284147        7.39181804236893       18.44601530166171
H           36.82379092038628        9.15332778240427       18.49543693662137
C           38.13127430056238        8.14122465467998       22.12411562669066
H           38.46431785407307        8.89971642337467       22.83001106837818
H           38.27736677591280        7.16449420685431       22.58517703550779
H           37.06852840764092        8.27970487412279       21.94890049390087
C           39.27457903853924        8.13038101111867       14.17182224493733
H           38.74168881895267        9.07081178033693       14.02068918480948
H           38.58975424651680        7.43423144741027       14.65276142291425
H           39.52654027557130        7.72976429256632       13.19161012529867
C           42.27150556453512        8.39092687510062       13.15809848802509
H           41.62061418631950        8.84000029626661       12.41205313903446
C           43.42904697921708        7.86435242677958       12.76001484733925
H           44.07721555530271        7.34235805850224       13.44469577134054
H           43.76577434172703        7.91497528177567       11.73574318751255
C           46.90018282743797        9.86363511672706       15.51923474885687
H           46.21500469147039       10.00870291392634       14.68908121344026
H           47.65234057224203        9.13493548382898       15.21478935050021
H           47.40536128081310       10.81025979442649       15.70087700319090
C           48.04698834557041        9.71734990743025       18.35917422874675
H           48.65281361211177        9.97413351072795       17.49350901959219
C           48.62582236685060        9.75409156134474       19.56200170309976
H           49.68005262569866        9.96971313445415       19.68600142598770
H           48.07122678724660        9.58647455565107       20.46593793087206
C           45.96831959931286        8.09251831930946       23.34549033023181
H           46.45636893543921        9.06253898262194       23.44744769776002
H           46.67546719126399        7.40798072700370       22.88053039879892
H           45.75941856453679        7.72241523380652       24.34782996571996
C           42.95792681696914        7.92861423820474       24.42178832997877
H           43.76970390354869        8.04315266003196       25.13666200195395
H           42.54371637913480        6.92673580724542       24.54726463086926
H           42.17928447848386        8.64283850263660       24.68427447160585
O           42.59223935497678        6.24160329539877       18.80294798988876
H           41.80664498092090        5.82252371055268       19.17917556123601
H           43.27824632413406        5.57240194053042       18.68583348309960
C           41.19664987755474       11.67311157173871       19.71912906678290
H           40.59496086654721       12.31402263573237       19.08455212738523
H           41.57171665352986       12.23607810562893       20.56766385175009
H           40.63722749993277       10.80917441085689       20.05730104851799
S           42.65989004525713       11.10796293754745       18.77552581901520
H           41.99687440859066       10.78544307144656       17.65769324884447
72
 energy: -105.966015241072 gnorm: 0.021261459493 xtb: 6.7.1 (edcfbbe)
Fe          42.61119893364688        8.48927611595304       18.81030490962004
N           40.74007943323540        8.38524803006202       19.46353192653702
N           41.89814234958418        8.48505540091810       16.86846609810986
N           44.47278513803070        8.71657636497505       18.13209829039386
N           43.28547856324946        8.39200232194475       20.69459281104249
C           40.33824742262610        8.28994747908806       20.76242381342928
C           38.89529955903519        8.23810887495983       20.84766779907785
C           38.43429706754330        8.27725175294057       19.56771721424287
C           39.60080027280783        8.34805563663453       18.71227107200806
C           40.60632629136496        8.36742536637281       16.46363415964549
C           40.53015987317084        8.31518674979891       15.02379329615185
C           41.82078294881642        8.40227422522164       14.56581142110488
C           42.65539044431729        8.53633736580878       15.74569609578024
C           44.81693295417721        8.98808821615523       16.84343284226210
C           46.19237205451216        9.39946022542231       16.76691509064469
C           46.69964601732894        9.32855979319815       18.04547219268252
C           45.59720314863485        8.87453459435426       18.87899813677165
C           44.58737685418148        8.37442614700069       21.07356640063011
C           44.69260638010827        8.18649871777384       22.51017678992157