81
 energy: -118.391685140986 gnorm: 0.000120577368 xtb: 6.7.1 (edcfbbe)
Fe          -3.16207660412943       11.12649075185194       48.41226608527704
N           -4.36170111591872       11.21857187507276       50.01501771846712
N           -2.80129078170825        9.19712754981154       48.78145495979727
N           -1.95792425661673       11.05470714522680       46.80914559974648
N           -3.54514051042237       13.06397060197029       48.03301361457670
C           -5.06670711790810       12.29325511983567       50.45638657750043
C           -5.80739045271785       11.96347847441217       51.65350512822630
C           -5.53570830046376       10.65834059904021       51.92154611668720
C           -4.63715335025998       10.20856122055698       50.88098222064826
C           -3.30291037307861        8.45445397750991       49.80244652920844
C           -2.81946677851136        7.09785293279501       49.73679571548978
C           -1.99983906212248        7.03511519443744       48.64266101619440
C           -2.00977540911858        8.36451000923366       48.06078318696439
C           -1.25843291903098        9.97564626281998       46.36628099195983
C           -0.49750811234025       10.30621980151551       45.18888702918685
C           -0.75885403769217       11.62356935530671       44.91986003758765
C           -1.67132328729664       12.06876250945124       45.95517010376364
C           -3.06973843903099       13.79858841282927       46.99309553319502
C           -3.60797495109823       15.13979036546306       47.02669170439356
C           -4.42969723296886       15.19517189613169       48.10952148581683
C           -4.38100818062201       13.88721564373350       48.72202786784733
C           -5.09013813043140       13.54037755937506       49.85806470072512
H           -5.70797762579346       14.30042498284831       50.31168473432519
C           -4.14960859959202        8.92049799447842       50.79216040819031
H           -4.45359172790719        8.22277442660499       51.55728236624739
C           -1.27729416109853        8.71863609559441       46.94481676929479
H           -0.67303593933804        7.95281244890256       46.48324956668748
C           -2.19146787594860       13.34754778114767       46.02616900103171
H           -1.90092245273504       14.04828668770385       45.25872797234637
C           -6.02685233743892        9.80145622835955       53.03726636729889
H           -6.67323741334688       10.36678119126904       53.70430095183771
H           -5.19039665878445        9.41229571062457       53.61808766211664
H           -6.59179737177083        8.95338586356180       52.64927232705628
C           -6.67460421424266       12.92149028629274       52.39645743552872
H           -7.47758856718944       13.28989109381392       51.75710152262373
H           -6.09464700305333       13.77958537941910       52.73759216104719
H           -7.12190154889720       12.44426307854430       53.26485619313335
C           -3.21935806941322        5.99934446881181       50.65851364813751
H           -4.27229548489018        6.08251494788525       50.92390903797160
H           -2.63499585551517        6.03288481874936       51.57948200049174
H           -3.05486470152550        5.03463039293736       50.18267441595259
C           -1.27225904186041        5.90589733535059       48.10682799563061
H           -1.17360050549261        5.88111439882416       47.02744913214096
C           -0.72585032622067        4.93005575653682       48.82473893645286
H           -0.74918847576689        4.92870265398638       49.90036741538305
H           -0.20729986932152        4.10927937727786       48.35740674190591
C            0.43497740438076        9.38392422408141       44.48474502927078
H           -0.10606188728378        8.73156337732457       43.79695385491965
H            0.96620086923290        8.75607715630935       45.19846884945184
H            1.16386009549317        9.95523249183024       43.91353267510913
C           -0.24040066489846       12.46222761093722       43.86216428554353
H           -0.09714265623991       13.50557031745632       44.11925766288891
C            0.05684883171078       12.05735262036604       42.63161312274315
H           -0.10861463185330       11.04543243469726       42.30553830117291
H            0.45505954532350       12.73656594938443       41.89607179030622
C           -3.28176150393006       16.20202105371753       46.03406344632477
H           -3.55805515416742       15.88412785587121       45.02847426961395
H           -2.21256437947640       16.41604778205866       46.03824713946854
H           -3.81512771288997       17.12183452705344       46.26160120218252
C           -5.24275275805982       16.33414839866744       48.62285360569346
H           -6.30175195186064       16.07446042354842       48.64032247621211
H           -5.11676573392971       17.21252291766678       47.99475116830441
H           -4.94291238147616       16.59389283363365       49.63869816880609
C           -6.52839423252243        8.76344688410484       44.66256852034513
H           -6.85190327612179        9.37188035585913       43.81805234445267
H           -7.38682474889430        8.19695287603569       45.02340644659448
H           -5.77082293558729        8.06619267976191       44.31897217252511
N           -6.70073979048894       10.58500737570902       46.37266046215264
H           -7.66134989626166       10.81574380716343       46.17877107173976
C           -5.96692596005699        9.61489073921294       45.74155774435646
C           -5.90151624980447       11.16948730362524       47.29304201955174
H           -6.21098815855301       11.96567653258268       47.93802998300308
N           -4.70774614345309       10.62864341246590       47.28305100266127
C           -4.73261164198407        9.66010122262493       46.32333673068337
H           -3.86735461986732        9.06539810462185       46.11701871742482
C           -1.75637778054471       12.92923027575730       50.99210803784679
H           -2.47003283567119       13.62407489532249       50.56351100252984
H           -0.88849662266335       13.44661698166942       51.38969868692152
H           -2.23480569737930       12.34602937855306       51.77193655307610
S           -1.21341534684949       11.74317120814723       49.71309118208751
H           -0.77033416274995       12.67212333425454       48.86183158793654
