81
 energy: -118.298030598965 gnorm: 0.239533737977 xtb: 6.7.1 (edcfbbe)
Fe          -3.23500000000000       11.11900000000000       48.38799999999999
N           -4.42000000000000       11.21100000000000       50.06100000000000
N           -2.79200000000000        9.17000000000000       48.82600000000000
N           -2.01800000000000       11.02200000000000       46.76299999999999
N           -3.68600000000000       13.06200000000000       47.96400000000000
C           -5.28100000000000       12.23100000000000       50.39699999999999
C           -6.04200000000000       11.82800000000000       51.56000000000000
C           -5.62500000000000       10.61600000000000       51.92000000000000
C           -4.59100000000000       10.19900000000000       50.99299999999999
C           -3.11600000000000        8.50000000000000       49.99400000000000
C           -2.53000000000000        7.17300000000000       49.93400000000000
C           -1.86900000000000        7.06300000000000       48.76700000000000
C           -2.03400000000000        8.32000000000000       48.05500000000000
C           -1.42900000000000        9.88100000000000       46.26700000000000
C           -0.73600000000000       10.22300000000000       45.05399999999999
C           -0.90100000000000       11.54600000000000       44.83700000000000
C           -1.70200000000000       12.07100000000000       45.92300000000000
C           -2.98400000000000       13.83900000000000       47.03700000000000
C           -3.34500000000000       15.21900000000000       47.22999999999999
C           -4.36400000000000       15.22700000000000       48.35200000000000
C           -4.52400000000000       13.85400000000000       48.74900000000000
C           -5.38700000000000       13.42200000000000       49.73400000000000
H           -6.21400000000000       14.07800000000000       50.00399999999999
C           -3.89900000000000        9.00300000000000       51.01900000000000
H           -3.97600000000000        8.40300000000000       51.92600000000000
C           -1.50400000000000        8.62600000000000       46.82500000000000
H           -1.10700000000000        7.79800000000000       46.23700000000000
C           -2.08700000000000       13.37900000000000       46.10299999999999
H           -1.63800000000000       14.12100000000000       45.44200000000000
C           -6.15700000000000        9.77900000000000       53.10900000000000
H           -7.22500000000000       10.02600000000000       53.28800000000000
H           -5.57400000000000       10.01500000000000       54.02500000000000
H           -6.07200000000000        8.69700000000000       52.87400000000000
C           -7.13100000000000       12.67700000000000       52.24700000000000
H           -8.11900000000000       12.45400000000000       51.78899999999999
H           -6.90600000000000       13.75700000000000       52.11100000000000
H           -7.17200000000000       12.43100000000000       53.33000000000000
C           -2.68400000000000        6.12600000000000       51.06400000000000
H           -3.55700000000000        6.39000000000000       51.69799999999999
H           -1.77000000000000        6.11800000000000       51.69499999999999
H           -2.85000000000000        5.12000000000000       50.62300000000000
C           -1.06700000000000        5.87800000000000       48.18200000000000
H           -0.67000000000000        5.96100000000000       47.16000000000000
C           -0.81500000000000        4.74000000000000       48.83600000000000
H           -1.18300000000000        4.59200000000000       49.86199999999999
H           -0.23600000000000        3.93700000000000       48.35600000000000
C            0.04300000000000        9.20300000000000       44.18700000000000
H           -0.50000000000000        9.03700000000000       43.23200000000000
H            0.12500000000000        8.23600000000000       44.72800000000000
H            1.05600000000000        9.59900000000000       43.96100000000000
C           -0.35800000000000       12.42200000000000       43.68300000000000
H           -0.64100000000000       13.48400000000000       43.64299999999999
C            0.44500000000000       11.97300000000000       42.71300000000000
H            0.76500000000000       10.92100000000000       42.69500000000000
H            0.79600000000000       12.65000000000000       41.91999999999999
C           -2.82300000000000       16.44800000000000       46.47500000000000
H           -3.05800000000000       16.34600000000000       45.39400000000000
H           -1.72200000000000       16.52500000000000       46.59900000000000
H           -3.31400000000000       17.36500000000000       46.86600000000000
C           -5.07300000000000       16.45900000000000       48.95100000000000
H           -6.01500000000000       16.65100000000000       48.39500000000000
H           -4.41500000000000       17.35000000000000       48.86400000000000
H           -5.31700000000000       16.27000000000000       50.01799999999999
C           -6.58100000000000        8.76500000000000       44.53399999999999
H           -6.74400000000000        9.38500000000000       43.62700000000000
H           -7.55400000000000        8.33600000000000       44.85700000000000
H           -5.86900000000000        7.94900000000000       44.28900000000000
N           -6.68300000000000       10.71300000000000       46.12700000000000
H           -7.57500000000000       11.03300000000000       45.80800000000000
C           -6.01800000000000        9.61500000000000       45.62400000000000
C           -5.95500000000000       11.26000000000000       47.08400000000000
H           -6.25600000000000       12.13000000000000       47.66699999999999
N           -4.82800000000000       10.57600000000000       47.19899999999999
C           -4.85000000000000        9.53200000000000       46.30499999999999
H           -4.03000000000000        8.82800000000000       46.23900000000000
C           -1.62700000000000       13.20600000000000       50.57800000000000
H           -2.69000000000000       13.52100000000000       50.50100000000000
H           -0.99300000000000       14.05100000000000       50.23400000000000
H           -1.40700000000000       12.99900000000000       51.64699999999999
S           -1.30700000000000       11.74600000000000       49.58500000000000
H           -1.65700000000000       12.30800000000000       48.43699999999999
81
 energy: -118.352502391681 gnorm: 0.104957152037 xtb: 6.7.1 (edcfbbe)
Fe          -3.24706439846486       11.09711568048543       48.38867947938375
N           -4.42463936922983       11.20190679422716       50.05376031047151
N           -2.78745222368032        9.16459072329319       48.82828834625359
N           -2.03565297377421       11.02089262862543       46.74985995538091
N           -3.66649796094266       13.05674456090135       47.98266527220869
C           -5.28669068720104       12.21469251646796       50.38278147936119
C           -6.05138486299300       11.83460584420592       51.55850742989970
C           -5.62072638579577       10.60824752846433       51.93049409955892
C           -4.58971141836111       10.20866899904313       50.98597875760959
C           -3.10273851555190        8.49883374275051       49.98385234842657
C           -2.52578427934823        7.16457552300228       49.94328160646803
C           -1.86750551678870        7.04242047392761       48.75393681256434
C           -2.03988570001745        8.31643491429512       48.06285417290699
C           -1.44566023843357        9.89328047626108       46.24896908752368
C           -0.73211650186856       10.22212415020853       45.03598224446088
C           -0.88702046237765       11.56400536557906       44.82219763991433
C           -1.70865438739819       12.06384474222292       45.91790910156327
C           -2.99801245876060       13.85178884567685       47.07211280923371
C           -3.37742359483628       15.22747441781570       47.26212708157948
C           -4.34570701400292       15.23401268862820       48.30939708057414
C           -4.50727582878440       13.86500024042140       48.71470547992477
C           -5.37585568963103       13.42221744988090       49.71739471915968
H           -6.17905417743182       14.09127464470633       50.01492599585240
C           -3.89434328081739        9.00838168963777       51.00646573606365
H           -3.99239220438702        8.40356039646375       51.90344127161079
C           -1.50963698860477        8.63238563016851       46.82419559850579
H           -1.08926764484659        7.81152868995658       46.25262761835990
C           -2.09868496243971       13.38061673809213       46.11595583995418
H           -1.66085232802615       14.11821334004668       45.45020344481669
C           -6.14624354512308        9.78574422140629       53.09298363383791
H           -7.19976053734365       10.02272638511018       53.27928504215678
H           -5.57963854256836       10.00793455207664       54.00520095452011
H           -6.06837394239029        8.71620559415867       52.87765395245346
C           -7.11897382119984       12.67023023346390       52.23450333319639
H           -8.10175107300867       12.45849030049749       51.79447783740040
H           -6.90928340336021       13.73764793144129       52.11474984810185
H           -7.16602591324936       12.43822621590247       53.30387311239375
C           -2.68736349355467        6.14334520791972       51.05304969318296
H           -3.54264003271493        6.39118745718695       51.68791373979337
H           -1.78710601511238        6.11805566307930       51.67940720430679
H           -2.86033830664661        5.14678639569827       50.63444521874452
C           -1.08765504841381        5.89227217148673       48.19911262515882
H           -0.69638134733854        5.99214717029251       47.18656263119354
C           -0.81936819946135        4.75457804167773       48.83664935738533
H           -1.15562837506179        4.58169991801003       49.84777721208377
H           -0.24962354831967        3.96045980962678       48.36210740088722
C            0.03056815170332        9.21142751552571       44.20020305652154
H           -0.49081384353346        9.04141662346399       43.24960144562153
H            0.12115489064875        8.25461157336736       44.72073464764665
H            1.04029612931437        9.57668808493635       43.98651622108027
C           -0.36060516172478       12.40278606831444       43.70135298507600
H           -0.65365946507259       13.45213684391583       43.67630227476717
C            0.43414011899177       11.97445602255707       42.72232036450524
H            0.76407302807840       10.94918097509765       42.67032354820654
H            0.78375679794003       12.64312799107569       41.94152356476409
C           -2.84254128246695       16.42117278612659       46.49731752080282
H           -3.05887219895492       16.33757086042290       45.42309565371892
H           -1.75274193446457       16.51461377789187       46.60526322840453
H           -3.30552499606458       17.34388802688794       46.86117462587924
C           -5.05164747894116       16.43142014823636       48.92479272747088
H           -5.99272116968054       16.64268522048426       48.39835609426920
H           -4.42402770385777       17.32712437218460       48.86247958800281
H           -5.29719124526083       16.26200784531178       49.98171314178380
C           -6.58412470721869        8.76793599928457       44.53126269240347
H           -6.74774359707070        9.37042745424451       43.63044850363038
H           -7.54197509361979        8.33515523352887       44.84277122646079
H           -5.88506296800404        7.96219445105587       44.29343715242579
N           -6.69160417986102       10.70263417690995       46.11844083026934
H           -7.58745261342754       11.02764249606583       45.79979455618779
C           -6.02356559909472        9.61352103603788       45.61738782831343
C           -5.94209060891020       11.25128159528757       47.08285401294773
H           -6.23598099615263       12.11347001821067       47.65883372229687
N           -4.82326175969114       10.57209337997525       47.21796079252867
C           -4.85504958267479        9.54535812442230       46.31349164216077
H           -4.04182451308951        8.84626034778018       46.24509958885925
C           -1.63105744188353       13.22519728233326       50.59155842102593
H           -2.68330440927224       13.51397502684486       50.50181500630875
H           -0.99589661204725       14.04743234140500       50.24590505818222
H           -1.40711484332469       13.00199612168134       51.63794562225606
S           -1.28161291864621       11.75357212722829       49.60909170832284
H           -1.61507299300285       12.32036134741248       48.45152733051047
81
 energy: -118.369799905571 gnorm: 0.035240246169 xtb: 6.7.1 (edcfbbe)
Fe          -3.26106959593840       11.08159179447022       48.38623300892267
N           -4.43365393210809       11.18939881390611       50.03568631479335
N           -2.79011854685727        9.16422094755843       48.82457368893522
N           -2.05854548179264       11.01761921964440       46.73539853780556
N           -3.65495528647732       13.05269713621299       47.99581277104016
C           -5.28891558789655       12.19864546876077       50.36264695994559
C           -6.05450598491322       11.83738356042681       51.54557731786824
C           -5.61435235944418       10.60444695586697       51.92797134963796
C           -4.59196134403973       10.21479655002887       50.96945244740997
C           -3.09742874341282        8.50285846168039       49.97089119791437
C           -2.52726977917793        7.16732893547249       49.94967587609830
C           -1.86973040365891        7.03619571698290       48.74653994645964
C           -2.04978169596845        8.31866901342461       48.06527493430266
C           -1.46811197315723        9.90100718053043       46.23452465178804
C           -0.73752504366730       10.21840002285003       45.02723284157389
C           -0.88582657959395       11.57337654750789       44.81552961594459
C           -1.72303526968442       12.05556797160585       45.91510442017381
C           -3.00489390600258       13.85086392857918       47.09747878062652
C           -3.40569270436582       15.22768573946466       47.28472386626987
C           -4.33034088191544       15.23503427023328       48.27340016688674
C           -4.49150739747254       13.86574539182529       48.69745443620454
C           -5.35660336305080       13.42204078536036       49.70878780029081
H           -6.12880478831284       14.10993277289461       50.03701997379927
C           -3.89815776438334        9.01187852124602       50.98886204566195
H           -4.01908075590826        8.40078317129614       51.87470602041573
C           -1.51486082234575        8.63998610547039       46.82534572270490
H           -1.05915913424940        7.82811832252295       46.27407780724999
C           -2.11179210336204       13.37663696830300       46.12728701641047
H           -1.68967766817539       14.11414946317890       45.45719912905113
C           -6.12904843455693        9.79460666334583       53.07422855704262
H           -7.17538835197499       10.02780197602925       53.26376300892387
H           -5.57121524018442       10.00606789183240       53.98702372559333
H           -6.05560330164544        8.73031102137266       52.87017216700184
C           -7.10430935062719       12.66303843277132       52.21633280873591
H           -8.08716226821466       12.46006804386678       51.78827439820977
H           -6.90281434715147       13.72500498362859       52.10753352892397
H           -7.15178418084195       12.43602506553040       53.27918677580088
C           -2.69157718248832        6.16274204027390       51.04078799642930
H           -3.53464106510997        6.40830867728581       51.67947737710415
H           -1.79669057608679        6.12217075413287       51.66346250659954
H           -2.86927918171870        5.17086294829977       50.63177410007233
C           -1.11408000923610        5.91902228890666       48.21812901675287
H           -0.73510298585816        6.03322001605093       47.20844221143012
C           -0.82569788721199        4.77556211478284       48.83947127560779
H           -1.13246930740574        4.57217416284343       49.84548663693745
H           -0.25981640746045        3.99332982696393       48.35923882243893
C            0.01878518502535        9.22151467587206       44.21445299970382
H           -0.48439454254491        9.05048822161891       43.26159581056469
H            0.10388249895420        8.26901632095114       44.72700814024414
H            1.02937831736075        9.56993851349450       44.01143308748896
C           -0.37055232678214       12.38265878798015       43.73211131091023
H           -0.67015579041690       13.42463074918069       43.72629382669199
C            0.42019287867665       11.97683936621345       42.73809785090720
H            0.76500583833405       10.96743069670647       42.64851880425392
H            0.76023632688113       12.64896638258108       41.96731457332248
C           -2.86173294084476       16.39565126790048       46.51795585734012
H           -3.07190207794438       16.30818167188512       45.45021771643772
H           -1.77818982112020       16.48301953852675       46.62478698360835
H           -3.30866187013052       17.32329426839306       46.86740191932923
C           -5.03329811164737       16.40683451724609       48.89473495246950
H           -5.97503657829400       16.62265977087565       48.38439685968335
H           -4.41793469348203       17.30308125306769       48.84472539286550
H           -5.26770683872367       16.23039710390592       49.94512632330288
C           -6.58362110497537        8.76897312012949       44.52916407251675
H           -6.74922618660879        9.36169474452430       43.63133543507703
H           -7.53429960917149        8.33450745637498       44.83348885864822
H           -5.89173758298564        7.96802157348663       44.29589738314925
N           -6.69721637213101       10.69566878558944       46.11508808785511
H           -7.59433194513704       11.02539691219488       45.79763216935900
C           -6.02586400355654        9.61216765609382       45.61524416289907
C           -5.93403780977818       11.24233145368880       47.08637883857400
H           -6.22116321157285       12.10145632905134       47.65607072827569
N           -4.81871858545512       10.57017275627744       47.23156538500961
C           -4.85980073406006        9.55235072034005       46.32443665986673
H           -4.05097414750924        8.85596042358094       46.24878782625765
C           -1.63235326506673       13.24319939159802       50.61220304048493
H           -2.67968649534014       13.50439775193644       50.50340834682729
H           -0.99888483664527       14.05312380264793       50.26562855379667
H           -1.41051609392999       13.01145761344390       51.64624814400446
S           -1.24706150141597       11.75870114109234       49.63674854531776
H           -1.52838299285606       12.33243861632735       48.46324779316605
81
 energy: -118.375637565508 gnorm: 0.021527506650 xtb: 6.7.1 (edcfbbe)
Fe          -3.25970884180328       11.07992116603835       48.38716548338761
N           -4.44140087968465       11.18143617736930       50.01479310765900
N           -2.80103439806259        9.16906362925288       48.81790224213916
N           -2.07984031615436       11.01061460821221       46.72827356330006
N           -3.64709787770422       13.04641527294747       48.00350216533315
C           -5.29025890904833       12.19088737936949       50.34624288994405
C           -6.05142162493501       11.83611080417123       51.52934617698662
C           -5.61105469110474       10.60455862158869       51.91363899231053
C           -4.59919835553586       10.21300884167891       50.95106864362019
C           -3.10709412918966        8.50881416866134       49.96283500673201
C           -2.53784732920914        7.17884413168026       49.95121551913697
C           -1.88056280892635        7.04520402677982       48.74886491328299
C           -2.06022610254288        8.32339493759576       48.06356137365724
C           -1.48733881876757        9.89639824011564       46.23045687080005
C           -0.75102682743988       10.20965075784156       45.03058671443600
C           -0.89696052373702       11.56505443236863       44.81977641560291
C           -1.73939838199633       12.04524999804823       45.91278998326556
C           -3.00139201474110       13.83608960577076       47.09924622868668
C           -3.40146907275399       15.21557516239862       47.27790735151981
C           -4.33805896022254       15.22518569043145       48.26651699762200
C           -4.48924812269963       13.85555472350032       48.69818932020526
C           -5.34627500966957       13.42163393695366       49.70940872079362
H           -6.08519672184155       14.13192462067460       50.06949710292509
C           -3.91307315042003        9.01043790503484       50.97502613846962
H           -4.05389205745973        8.39133063565377       51.85095550199051
C           -1.51828952182732        8.64082769154278       46.82870539912361
H           -1.02456118767889        7.83699217797875       46.29665254538597
C           -2.12080414300283       13.36596449984601       46.12537223870751
H           -1.71194618952181       14.10616909885607       45.45164432185405
C           -6.11346911552200        9.79708744193071       53.06204266478193
H           -7.15860484694979       10.03185232013567       53.25512713629161
H           -5.54934830957125       10.00829779302742       53.97130543353644
H           -6.03930774638611        8.73248701384216       52.85787371379584
C           -7.09530316947793       12.66327486989223       52.19989739689215
H           -8.07998054972468       12.46345200485360       51.77377537417335
H           -6.89140509238618       13.72529883534679       52.09327983543479
H           -7.13774062611785       12.43290620046913       53.26213818024371
C           -2.70419632004923        6.17841243414251       51.04009836693233
H           -3.53748234819784        6.43587311912402       51.68740118357501
H           -1.80234279429734        6.12385194724799       51.65275375328279
H           -2.90066299770917        5.19055455383578       50.62926513999216
C           -1.12947281336896        5.93500800346483       48.22249869737986
H           -0.76845940248396        6.06024118543321       47.20831896364526
C           -0.81938471974808        4.79034861934015       48.83374315116036
H           -1.08986203234721        4.57158741365390       49.84982720331870
H           -0.25615012451781        4.01987298246682       48.33437200969286
C            0.01260670132213        9.21535041114143       44.22903667150998
H           -0.47125104648609        9.05611083805645       43.26308029709899
H            0.07604747963640        8.25969902905268       44.73940297123815
H            1.03302402661223        9.55398444075023       44.05468075893432
C           -0.38223593967207       12.38071661046675       43.75037452377245
H           -0.68414691990243       13.42177682450918       43.77203052158001
C            0.40306619598043       11.99867474044733       42.74062464696370
H            0.75345744432147       10.99264530502463       42.61140712107090
H            0.73376299478000       12.69276212275684       41.98654374657313
C           -2.86233395231912       16.37859662360252       46.51567732306433
H           -3.07819670749983       16.28079255127571       45.45199432831862
H           -1.78100857394166       16.45490966920934       46.63224024049480
H           -3.31020029611900       17.30466332322599       46.86725293806566
C           -5.03407567250168       16.39514856271320       48.87926223520094
H           -5.97475413760598       16.60564075434424       48.36822034700600
H           -4.41358786728405       17.28671259280529       48.82301977120447
H           -5.25467726294847       16.20808777396561       49.92850695818966
C           -6.58098042372435        8.76875548109486       44.53033204561458
H           -6.74726531495692        9.35947378006290       43.63076489620705
H           -7.53224275109118        8.33130728440335       44.83004450113306
H           -5.88873691087924        7.96774588277625       44.29741391544072
N           -6.69761794816155       10.69312741645852       46.12018975408085
H           -7.59473394760960       11.02399702820583       45.80335040020654
C           -6.02482428040136        9.61086139444041       45.61927710085753
C           -5.93205549476643       11.23821314576573       47.09301201329453
H           -6.21487867613267       12.09966981468505       47.66017268886458
N           -4.81685646363551       10.56653197171425       47.24059386857098
C           -4.86028414255123        9.55084816380753       46.33146692322237
H           -4.05274419855401        8.85433379614702       46.25102170518482
C           -1.63013558503762       13.25368947747380       50.63577195265102
H           -2.68040860702332       13.49576290386069       50.50565435559021
H           -0.99932308913632       14.06804257276661       50.29555210973168
H           -1.42125994617187       13.02549479336533       51.67329773770906
S           -1.21229097598076       11.76156217964874       49.67242048902656
H           -1.41400773402246       12.33559105940635       48.47744800932074
81
 energy: -118.379816648134 gnorm: 0.017736724215 xtb: 6.7.1 (edcfbbe)
Fe          -3.26938386993427       11.07164629234076       48.38412907697688
N           -4.44433970194824       11.17609355505041       49.99396594670653
N           -2.81188204513490        9.17862379087239       48.81434162127825
N           -2.09442709220355       11.00496344602833       46.73639179294137
N           -3.63336229804829       13.03028660211334       48.01774193735790
C           -5.28613867660153       12.18697178447604       50.33264848133428
C           -6.04658807158902       11.83676352991619       51.51147089741751
C           -5.61099530377591       10.60544632131439       51.89483596073108
C           -4.61062103019801       10.20975890417378       50.93011382797749
C           -3.12430722121598        8.51407552093105       49.95499522362311
C           -2.55224035805420        7.19214359578075       49.95239342970240
C           -1.89074933297549        7.05870884887063       48.75487592747442
C           -2.06688082154919        8.33192227267632       48.06655114490474
C           -1.50025815231894        9.89216055201480       46.23634140289420
C           -0.76817839759579       10.20092849149072       45.03828126928729
C           -0.91734368844746       11.55408726240027       44.82796369922833
C           -1.75771304485924       12.03336318317178       45.91700966232893
C           -2.99704493582991       13.81321770490878       47.10467228054533
C           -3.40060660701064       15.19380957753563       47.26849208525275
C           -4.33787919597238       15.20878020937919       48.26033989197936
C           -4.47885403454957       13.84151609868736       48.70459269049611
C           -5.32547880913275       13.42718872886961       49.71901250921775
H           -6.03192954432954       14.15329133777611       50.10238194254453
C           -3.94007801368348        9.00414164242790       50.95918457708525
H           -4.10124623673985        8.37855156041896       51.82436048841788
C           -1.51262802147628        8.64344430927664       46.84075882822284
H           -0.99009174088907        7.84973225605179       46.32634119119155
C           -2.13272542471470       13.35275166044733       46.12413386592241
H           -1.74135163961516       14.09711361022241       45.44566062830146
C           -6.09763976125796        9.79833094706300       53.04894905324927
H           -7.14082820624978       10.03281113340041       53.25428806865814
H           -5.51876412816381       10.01079412661582       53.94966814381958
H           -6.02238266370430        8.73331089384508       52.84260401238078
C           -7.08637302046418       12.66782454840833       52.18101328199855
H           -8.07158073071894       12.47334788006230       51.75224178031244
H           -6.87647591690783       13.72970667426164       52.07598767330877
H           -7.12753452589681       12.43298671799475       53.24283671408522
C           -2.71507522089313        6.18926301208687       51.03749782308805
H           -3.53605101320856        6.45629242703489       51.69888906339708
H           -1.80533693813708        6.12089491668287       51.63751247849432
H           -2.92409603649919        5.20636781517541       50.61826874589977
C           -1.14250360481999        5.95057386815912       48.22551233772024
H           -0.81373105342241        6.07366469530261       47.19984957790770
C           -0.80804325388714        4.81232842251212       48.83394179315433
H           -1.05955122113108        4.58032686221030       49.85243417630640
H           -0.25238868974200        4.05071090219651       48.31157626770953
C            0.00678381334219        9.21726158694459       44.23569314706215
H           -0.45496778810447        9.07173057943528       43.25666736187191
H            0.05298106571554        8.25203849921664       44.73356933828924
H            1.02976858524586        9.56144813008381       44.08587239777159
C           -0.40082661128163       12.38145690136980       43.77001453738109
H           -0.69349775635453       13.42434569589878       43.82175278448636
C            0.37713500268018       12.01794550781487       42.74954962636219
H            0.73364307669931       11.01595642887882       42.59386507286166
H            0.70230333842428       12.73790373174868       42.01540534835252