78
 energy: -116.057574679651 gnorm: 0.000024487494 xtb: 6.7.1 (edcfbbe)
Fe          18.59288782952865       23.47882133540251       29.95154680134202
N           17.32419899457632       22.15731469626550       29.11460383641496
N           17.23667348525706       24.94062442758029       29.66300642179958
N           19.79969724203068       24.77384810362772       30.86217570707298
N           19.91224423116074       22.01817360391271       30.24739850281429
C           17.55860626399896       20.83843989790769       28.88137724992664
C           16.41689667518740       20.22087630564662       28.24621007301322
C           15.48332067757196       21.19986589697247       28.09889174303687
C           16.07168477160020       22.40532085776142       28.63702733028377
C           16.00827676177877       24.81945091980851       29.08501639136488
C           15.36581520361088       26.10132980772005       28.98201510783402
C           16.25338335187893       27.02094031303819       29.47582491566872
C           17.40690240457257       26.26528066915620       29.91876390417492
C           19.56975318657193       26.09956937588951       31.06785161942915
C           20.65686287830848       26.70149617551236       31.79915364261751
C           21.56747072743185       25.70403748040284       32.02289185069396
C           21.00092165664376       24.50670681473173       31.43012106036041
C           21.12376675095984       22.12812321791662       30.84998161453614
C           21.82005101197423       20.85889663511577       30.83805651762064
C           20.99542884799442       19.97902370808999       30.21180899534144
C           19.80642496162526       20.72291177552740       29.85261676453089
C           18.71797697789217       20.16238679515578       29.21275120399296
H           18.77174530694548       19.11449481318758       28.96039989234479
C           15.44582196756596       23.63692095560052       28.63088576340900
H           14.45221953969335       23.68942509904684       28.21241149256003
C           18.47035618994730       26.80605039092679       30.61515863230942
H           18.43066599323542       27.86201667583132       30.83124128854976
C           21.63862887476962       23.27998708036239       31.41256058933963
H           22.61342072977924       23.21555230086071       31.87160192616214
C           14.11679229631281       21.12205246694399       27.50849199945278
H           13.88896700493777       20.10655290231630       27.19425232412976
H           14.03482836056819       21.77581442828934       26.63944614511112
H           13.36574559517642       21.43245003217588       28.23538163071433
C           16.34520687618677       18.78313507203354       27.86104795099832
H           16.46530281802233       18.14527282906567       28.73701952177332
H           17.13710704336024       18.53672692029753       27.15345244643553
H           15.38859075189065       18.55284486036698       27.39835544980614
C           14.01950484972164       26.33914045312317       28.38944982947098
H           13.26726875270622       25.72272011198882       28.88252962197130
H           14.01526098914845       26.08909981047494       27.32761109492461
H           13.73571985157226       27.38340923261903       28.49254453723747
C           16.07160175670615       28.45649389770151       29.53590277354215
H           15.06412088458809       28.78715675748933       29.76586789370375
C           17.00911168433933       29.36591147562464       29.29501789782468
H           18.01079463595152       29.09176556839860       29.01034620364570
H           16.79878802661005       30.42109736890600       29.35274695805893
C           20.70114308276485       28.11756730286021       32.25651084653847
H           19.71317052699701       28.45276851731182       32.56837115590955
H           21.04304592967009       28.77536059742110       31.45553659782821
H           21.38496509253020       28.21655913299352       33.09711956037564
C           22.83063733628254       25.75690332161536       32.72489572070236
H           23.10224054200462       24.85799209568737       33.26605310570031
C           23.65908591938893       26.79610904311715       32.74599154921676
H           23.46353141537378       27.69631872616446       32.18989675428779
H           24.58031452760131       26.77104535781887       33.30427969915674
C           23.17227035541735       20.63654181552989       31.42343570133485
H           23.16352993134378       20.84416033154380       32.49363002186291
H           23.90600904520509       21.29477106263166       30.95751206700232
H           23.49301834177690       19.60796654334139       31.27755783636536
C           21.20036478097178       18.53104466750077       29.92471509010746
H           22.17686048679062       18.20242808328321       30.27181349793958
H           21.13392384984462       18.33902023274056       28.85356676610353
H           20.43960699105313       17.93026941078301       30.42379403513705
O           17.51206286444814       23.03207158342667       31.92488602717449
H           16.96636647713120       22.29124192412828       31.63903222409714
H           16.93845741714532       23.80468885256268       31.97100107501898
C           22.08865715165592       24.59960343928538       25.75970030718858
H           22.04316271002060       25.59216027552407       25.31171703175554
H           22.18065966753075       23.86753469452434       24.95742167010489
H           22.97233784533625       24.54124443453767       26.38727467130741
N           19.61415232404454       24.34913346149658       26.05276584500019
H           19.37881881726492       24.53473038356157       25.09165970142168
C           20.87919065180228       24.33512887660281       26.57936852449132
C           18.75010277526304       24.07353778044981       27.05548847505272
H           17.68813489473436       24.01830498388799       26.93415081395420
N           19.39057597821206       23.88593278204497       28.18364658875171
C           20.71612678256098       24.04495975401059       27.90367291933494
H           21.45765981596147       23.94137021486132       28.66871900240691
