78
 energy: -115.956953444193 gnorm: 0.303673615809 xtb: 6.7.1 (edcfbbe)
Fe          18.65200000000000       23.54400000000000       29.78400000000000
N           17.35700000000000       22.19900000000000       29.10400000000000
N           17.36700000000000       24.97100000000000       29.46099999999999
N           19.85500000000000       24.80200000000000       30.71500000000000
N           19.94700000000000       22.09100000000000       30.11000000000000
C           17.57000000000000       20.86000000000000       28.85300000000000
C           16.37300000000000       20.23100000000000       28.44000000000000
C           15.40300000000000       21.17000000000000       28.43900000000000
C           16.02000000000000       22.39000000000000       28.82200000000000
C           16.05100000000000       24.85400000000000       29.04100000000000
C           15.44400000000000       26.17800000000000       28.87400000000000
C           16.37800000000000       27.09900000000000       29.25100000000000
C           17.56900000000000       26.32800000000000       29.63600000000000
C           19.69400000000000       26.16500000000000       30.87000000000000
C           20.66700000000000       26.72600000000000       31.77600000000000
C           21.46000000000000       25.68900000000000       32.16900000000000
C           20.98400000000000       24.51500000000000       31.44800000000000
C           21.16400000000000       22.16800000000000       30.74600000000000
C           21.87800000000000       20.93900000000000       30.61700000000000
C           21.06000000000000       20.08200000000000       29.97000000000000
C           19.87000000000000       20.77700000000000       29.67600000000000
C           18.76000000000000       20.19500000000000       29.09300000000000
H           18.82600000000000       19.14600000000000       28.80400000000000
C           15.41600000000000       23.63000000000000       28.80000000000000
H           14.35000000000000       23.65900000000000       28.57500000000000
C           18.66300000000000       26.86500000000000       30.32999999999999
H           18.68800000000000       27.94800000000000       30.44700000000000
C           21.61799999999999       23.28600000000000       31.42100000000000
H           22.55099999999999       23.19100000000000       31.97700000000000
C           13.92200000000000       20.99700000000000       28.13800000000000
H           13.71400000000000       19.93200000000000       27.90200000000000
H           13.64100000000000       21.62200000000000       27.26300000000000
H           13.32200000000000       21.29300000000000       29.02500000000000
C           16.25700000000000       18.74400000000000       28.14900000000000
H           16.15600000000000       18.18600000000000       29.10400000000000
H           17.16900000000000       18.39200000000000       27.62100000000000
H           15.35900000000000       18.55300000000000       27.52300000000000
C           14.01700000000000       26.47300000000000       28.41700000000000
H           13.34700000000000       26.52199999999999       29.30200000000000
H           13.66400000000000       25.66400000000000       27.74200000000000
H           13.98700000000000       27.44900000000000       27.88800000000000
C           16.16800000000000       28.47100000000000       29.46400000000000
H           15.72600000000000       28.80000000000000       30.41600000000000
C           16.49700000000000       29.50000000000000       28.50600000000000
H           16.94200000000000       29.23700000000000       27.53500000000000
H           16.30600000000000       30.55900000000000       28.73600000000000
C           20.76000000000000       28.20499999999999       32.18400000000000
H           19.73800000000000       28.61400000000000       32.33300000000000
H           21.26599999999999       28.78400000000000       31.38300000000000
H           21.32700000000000       28.29700000000000       33.13500000000000
C           22.41000000000000       25.62800000000000       33.17900000000000
H           22.37200000000000       24.74400000000000       33.82800000000000
C           23.45600000000000       26.56100000000000       33.51300000000000
H           23.58800000000000       27.48400000000000       32.92900000000000
H           24.13400000000000       26.36100000000000       34.35600000000000
C           23.29700000000000       20.67900000000000       31.06000000000000
H           23.31500000000000       20.48999999999999       32.15500000000000
H           23.92800000000000       21.56600000000000       30.83700000000000
H           23.69700000000000       19.78600000000000       30.53300000000000
C           21.34900000000000       18.65300000000000       29.54400000000000
H           22.19900000000000       18.25400000000000       30.13700000000000
H           21.61900000000000       18.63000000000000       28.46700000000000
H           20.45500000000000       18.01900000000000       29.72500000000000
O           16.76800000000000       23.12900000000000       32.03000000000000
H           16.34300000000000       22.28700000000000       31.86600000000000
H           16.61800000000000       23.66800000000000       32.72100000000000
C           22.47300000000000       24.23500000000000       25.75700000000000
H           22.64200000000000       25.23699999999999       25.30700000000000
H           22.47800000000000       23.47200000000000       24.94900000000000
H           23.28600000000000       24.02400000000000       26.48400000000000
N           19.90000000000000       24.45400000000000       25.86499999999999
H           19.76400000000000       24.70300000000000       24.90600000000000
C           21.12300000000000       24.21900000000000       26.47400000000000
C           18.95700000000000       24.28500000000000       26.79900000000000
H           17.88900000000000       24.38800000000000       26.61200000000000
N           19.51400000000000       23.98800000000000       27.92299999999999
C           20.91700000000000       23.92600000000000       27.81100000000000
H           21.57600000000000       23.69600000000000       28.63600000000000
78
 energy: -116.017308456229 gnorm: 0.119454170862 xtb: 6.7.1 (edcfbbe)
Fe          18.63256664531156       23.54443980631090       29.81831713906916
N           17.35371771586767       22.20052518580099       29.09483145778033
N           17.34713080338229       24.98236485674314       29.47409452259957
N           19.85774121262121       24.81134765558641       30.73040972442912
N           19.94226410683180       22.08294632580905       30.12460788653146
C           17.56930869045540       20.86615896576894       28.86005560527393
C           16.36615015870329       20.22048390994816       28.44101779292877
C           15.39159555541444       21.16921165330892       28.44122160032876
C           16.02487971999755       22.40175818491786       28.81462076975315
C           16.05240564075528       24.85839530369253       29.02959728314037
C           15.44203361275111       26.16901965356042       28.87959126859445
C           16.38117986008164       27.09076955641374       29.25084576129678
C           17.55888932157872       26.32561326516943       29.64585877437301
C           19.68525352543536       26.16654815945565       30.87511980531456
C           20.67139989354564       26.73440521159494       31.76349499203258
C           21.46703541386898       25.69402280361285       32.16837453567402
C           20.97537198695737       24.51424958976059       31.46080548362381
C           21.16413972054707       22.17277441352257       30.74049271368536
C           21.88937685219004       20.93789335833690       30.61506648039012
C           21.07023329994183       20.07445475205273       29.96061039002051
C           19.86812457396588       20.78478921378026       29.67111917682652
C           18.76197249139768       20.20650360432203       29.08536645649845
H           18.82447248606139       19.15983850149988       28.80933815380627
C           15.41738777839252       23.64424508707410       28.79468729033593
H           14.35687325101801       23.66801426025533       28.56913385172703
C           18.64961648011821       26.87392512331868       30.31364443271674
H           18.66877005035250       27.95072598227020       30.43816811892053
C           21.61691169389643       23.28934475030537       31.42620453528193
H           22.54852090961596       23.19436662719362       31.97388030038542
C           13.92947574213283       20.99837565921690       28.13777567524190
H           13.71323823925612       19.95073147787291       27.90504717779307
H           13.63999534457239       21.61418691883191       27.27807063138832
H           13.32766545530656       21.29178256061243       29.00576418133496
C           16.25460805936283       18.75052764223238       28.14836292676017
H           16.15742284890096       18.18977823023376       29.08659586057220
H           17.14803302319113       18.39437581642102       27.62447548841907
H           15.37460991711404       18.54949500963209       27.52960564756411
C           14.03344404633557       26.46316708144846       28.42387721221523
H           13.35754139710669       26.51839689766944       29.28733457036987
H           13.66939690053201       25.67878164709634       27.75166105942305
H           13.99380138631776       27.42684687976343       27.90182959757338
C           16.18492872732758       28.50672205636874       29.43496265384717
H           15.73759501660908       28.81758831654161       30.38305212559452
C           16.49148533911292       29.47166000378320       28.53396760324981
H           16.92822078628718       29.22687252748056       27.57090599835956
H           16.30485726970368       30.52075106681576       28.74235815202479
C           20.75348635366035       28.18533005588870       32.17870996694639
H           19.75242850820817       28.60504510534280       32.33009127604846
H           21.25667001333720       28.77068566230477       31.39907727421480
H           21.31772883281781       28.28561255897229       33.11327705547311
C           22.45051387843376       25.64061018658637       33.19452575891419
H           22.40298501406567       24.75209084808344       33.82530431625695
C           23.42342282569303       26.54185125046209       33.50538205218475
H           23.57328945645474       27.45066099216801       32.93180990145639
H           24.10143686519669       26.35934383386789       34.33300520479995
C           23.29406993846053       20.68354289513425       31.06546574427374
H           23.32300852805891       20.49398633982301       32.14539641693428
H           23.92560071585310       21.55054645222420       30.84411450190760
H           23.69711950186103       19.80726582115264       30.54640982180451
C           21.35096540528917       18.65740879120880       29.54830990839556
H           22.18721095691731       18.25312523879305       30.12663519628589
H           21.61188091877354       18.62401782333488       28.48327303528931
H           20.47342705321364       18.02512192620529       29.71947507320360
O           16.80705866634231       23.12158934643842       31.98959543369863
H           16.34607057902603       22.29589862072487       31.85912898141093
H           16.61797136823267       23.67915704671466       32.72348202823449
C           22.46055230162170       24.24248119623605       25.75484601967175
H           22.64238896032905       25.22635705757771       25.30788482520992
H           22.48029531714813       23.48708323767472       24.96045083678931
H           23.26165201644855       24.02871726242745       26.46844455773029
N           19.92331808787041       24.44675791023122       25.87089737832148
H           19.78264146996896       24.69945172005879       24.90708148524890
C           21.13892808602979       24.21719051562109       26.47327213751007
C           18.97063417457973       24.27933744109641       26.81609430062788
H           17.91279704051365       24.38622596902376       26.62490905346143
N           19.50971274813399       23.96963369720392       27.95911003058161
C           20.88858021221881       23.92941624721218       27.78897499795492
H           21.54751125501554       23.70328139679921       28.60734256408879
78
 energy: -116.031940539283 gnorm: 0.045909564523 xtb: 6.7.1 (edcfbbe)
Fe          18.61478730132666       23.53931178676703       29.84353175715968
N           17.34496248725373       22.20263603521821       29.08775713442686
N           17.32764539083702       24.98987411683811       29.49233144684920
N           19.84537226207727       24.81780943048176       30.75649020907889
N           19.93833052874201       22.07326221812119       30.14612194036555
C           17.56529920898688       20.87535692451310       28.86740927665642
C           16.35758926140850       20.21734854852632       28.44252672285115
C           15.38302991157629       21.17154882097326       28.43915261530728
C           16.02685936817571       22.41294870230393       28.80471331360505
C           16.04973281567320       24.86206594381991       29.03116246917349
C           15.43831072580282       26.16273897254571       28.88577502113925
C           16.37711756662602       27.07896553787162       29.26462696642454
C           17.54418729479147       26.32185277115055       29.66714934008057
C           19.67118744805732       26.16579538507443       30.88632141031373
C           20.67004448451983       26.73429081711511       31.76026650964927
C           21.46105821318306       25.69079463029123       32.17005938023654
C           20.95877821932081       24.51160769081840       31.47583698737586
C           21.16002932398915       22.17520234433003       30.74615351460938
C           21.89841372438368       20.94002842938685       30.61339209771674
C           21.08175485018429       20.07351696428801       29.95239902504222
C           19.86694491111952       20.79314181978986       29.67382941247407
C           18.76216145734704       20.21999907991972       29.08120375518869
H           18.82290132225057       19.17637467880229       28.81050009810507
C           15.41530473753259       23.65545829923612       28.78660397259936
H           14.36151467316003       23.67828930562919       28.54797770102631
C           18.63657914644330       26.88107573239637       30.30733706095979
H           18.65150348292368       27.95504158386867       30.42640940737364
C           21.61036198966244       23.29088972748422       31.43652554610924
H           22.54647797813593       23.20102680336727       31.97001717542966
C           13.93363701930416       21.00361386506657       28.13487513592173
H           13.71373959073346       19.96486261656737       27.90431978653708
H           13.63963635656091       21.61558272825140       27.28380001258630
H           13.32876474183680       21.29754271820891       28.99149934289864
C           16.24931265339532       18.75878086167479       28.14746644820517
H           16.15721922847100       18.19114129931875       29.07441210175055
H           17.13253028518892       18.40294830782937       27.62263393992466
H           15.37904817990387       18.55058754821133       27.53201501652224
C           14.04594446817277       26.45393138284989       28.42829955035895
H           13.36768144757890       26.50896919624990       29.28130723849403
H           13.68023564423615       25.68344746354752       27.75459463937889
H           14.00917863033713       27.41311535837139       27.91431769894605
C           16.19269175159678       28.52481140304952       29.42095781377963
H           15.74519074049163       28.81864537898197       30.36913914729561
C           16.49028050053922       29.44757131189586       28.54714255815658
H           16.92827619556910       29.21516248127126       27.59011517832834
H           16.31080253550219       30.49338190143013       28.73980364598336
C           20.74962763827746       28.16517858018419       32.17337074457947
H           19.75816579247636       28.58689530602229       32.32598210058475
H           21.25098264746555       28.75747676225619       31.40643513923305
H           21.31232439811210       28.26297999097330       33.09934801694734
C           22.47635465058728       25.63953993006751       33.19964589296929
H           22.42293858525196       24.74359945482904       33.81286230441489
C           23.40529624702697       26.52514996995557       33.48703247289939
H           23.55483019104468       27.43175594637909       32.92638651779937
H           24.07692879807083       26.37044769416184       34.31663500045713
C           23.29416482321613       20.69188851112849       31.07251570736416
H           23.32694986776708       20.50294919744343       32.14484959205237
H           23.92689210591506       21.54863273174853       30.85515117429739
H           23.70267054658696       19.82441720594416       30.56033115522618
C           21.35495029071688       18.66352226998878       29.54953877841509
H           22.18421256257476       18.25497698406865       30.11925242370524
H           21.60699936982467       18.61728701756573       28.48952106167742
H           20.48524634488992       18.03337956892698       29.71839152309688
O           16.91390146217091       23.10951629501903       31.94852084627626
H           16.35683641415823       22.33208803655265       31.82805897560825
H           16.63197999710710       23.69013130322442       32.66454470209345
C           22.44930162610433       24.25051781962643       25.75867082844802
H           22.63184826055100       25.22545847791000       25.31158076663516
H           22.47402797969200       23.50154916506233       24.96856204100394
H           23.24813153808576       24.03567447889326       26.46080709866082
N           19.93777475593310       24.43822654767726       25.88279186072589
H           19.79252578121057       24.69304184111447       24.91806901812250
C           21.15007402812934       24.21342852681355       26.48031664340981
C           18.98165801859146       24.27175484147006       26.83095249780622
H           17.93248702478110       24.38330325439639       26.63785217749700
N           19.51021598079215       23.95613455223819       27.98599456983973
C           20.86577547158180       23.92381589380880       27.78158836719795
H           21.52851674639784       23.70093292084585       28.59215947855926
78
 energy: -116.036408221205 gnorm: 0.058612869196 xtb: 6.7.1 (edcfbbe)
Fe          18.59710806229913       23.53008387430990       29.86872793785038
N           17.33621207972335       22.20409182903600       29.08526938051248
N           17.31236245063620       24.98626140518054       29.51538666581260
N           19.82589467375167       24.81375789546300       30.77947066413557
N           19.93137909199579       22.06597918736615       30.16481672926789
C           17.56010675349573       20.88012466261003       28.87027884048200
C           16.35087756415420       20.21939760734123       28.44164252588377
C           15.37807494804759       21.17467185441016       28.43155478105246
C           16.02342766989369       22.41785307054426       28.79444485581455
C           16.04377310456827       24.86074520326580       29.03627062708992
C           15.43304301189974       26.15907964294660       28.89379936912935
C           16.36858865975637       27.07045453364142       29.28517728365824
C           17.53030545857835       26.31548725548921       29.69161370931662
C           19.65691948791354       26.16010469413336       30.90094762758172
C           20.66546561573889       26.72527890896153       31.76484073523825
C           21.45152101802409       25.67925082617997       32.17386909182864
C           20.94051790191255       24.50337804523104       31.49068701675059
C           21.15304029497941       22.17316903120413       30.75717343769819
C           21.90086147229459       20.94281054474429       30.61355803536494
C           21.08781196480966       20.07675354102893       29.94734773647655
C           19.86502906219787       20.79594578967760       29.67783146559361
C           18.75978326497907       20.22723510694525       29.07988838333020
H           18.82115486750729       19.18620969271129       28.80535277065111
C           15.41039970739976       23.65876895048960       28.77301365972155
H           14.36208133949468       23.68597609608339       28.51402334396602
C           18.62514313102094       26.88011437812706       30.31821313634374
H           18.63967502117455       27.95540422789871       30.42236643351300
C           21.59947144792853       23.28724710555064       31.44927585120915
H           22.54311401855635       23.20616746840876       31.96970646582134
C           13.93066193752600       21.01162022865450       28.12585732185266
H           13.70712374965692       19.97424457779618       27.89641256633431
H           13.63701432109724       21.62429403352323       27.27597961472858
H           13.32384009918473       21.30873854351939       28.97957192625454
C           16.24281863992098       18.76366744523109       28.14318047538088
H           16.15548501345427       18.18968809972524       29.06612959829219
H           17.12339389870899       18.41108891866996       27.61290786547347
H           15.37230677752506       18.55402206684203       27.52928976798880
C           14.04787729006620       26.44892924526637       28.42968901153071
H           13.36458045993167       26.49706251988806       29.27812715741274
H           13.68787503616239       25.68426810021044       27.74778369463132
H           14.01794690499785       27.41102162149319       27.92369698883373
C           16.19031663943101       28.52207886733490       29.43308761669425
H           15.74220320936591       28.81770134871018       30.37788815444633
C           16.49980294358572       29.44267190187079       28.54265457642326
H           16.93753688750768       29.20079256516729       27.58934872030007
H           16.32121706085386       30.48980346038377       28.72418365426165
C           20.74685397020964       28.15169162859183       32.17522465814229
H           19.75601887203270       28.57268981427896       32.32821948239986
H           21.24773715489846       28.74538269187469       31.41010881506957
H           21.31124193864060       28.24418792709572       33.09920205682733
C           22.47985296388652       25.62420353939475       33.19825678003969
H           22.44132050692174       24.72045557642172       33.79941441960660
C           23.39614259142304       26.53634026516330       33.48305951543743
H           23.53720954439407       27.43446962169749       32.90965074504702
H           24.08148604379912       26.39184905834987       34.30241230744502
C           23.29506089310262       20.70255189077856       31.08147084083117
H           23.32533474562911       20.51573209987377       32.15387246072137
H           23.92818950103634       21.55954998265382       30.86839303655714
H           23.71327993096245       19.83745519593516       30.57446080124296
C           21.35957891164956       18.66772308781300       29.54657896401639
H           22.19010437265259       18.25778140799368       30.11273408221403
H           21.60501819146279       18.61306277395319       28.48577339163669
H           20.49070091924787       18.03873239479314       29.72064775869833
O           17.09588649850571       23.07275081073870       31.92086100430474
H           16.38607961210034       22.39211904224600       31.73610737056446
H           16.67250055814149       23.73006207374769       32.54553897152820
C           22.44039553030101       24.25808778092872       25.76699111376283
H           22.61375069242474       25.23472593112590       25.32057709106277
H           22.46565570888434       23.51368776524473       24.97306237001337
H           23.24611396058080       24.04550128886668       26.46039710303984
N           19.93650415926725       24.42935458252713       25.90273292686000
H           19.79009584362073       24.68546422742466       24.93865383421953
C           21.14966037991406       24.20729315937028       26.49756207994134
C           18.98140110639134       24.26102382450556       26.85062248579039
H           17.93491653820406       24.37701805842206       26.65837955502948
N           19.50905478607193       23.94180795139749       28.00774726518431
C           20.85830235671096       23.91256416187213       27.79643896051876
H           21.52640720322475       23.68918441165544       28.60051048031088
78
 energy: -116.039564923762 gnorm: 0.046610628774 xtb: 6.7.1 (edcfbbe)
Fe          18.57677436294125       23.51628685845682       29.89892989073751
N           17.32636943084488       22.20488165528767       29.08324081010625
N           17.29492210412184       24.97912589954113       29.54504477841402
N           19.80022017903916       24.80617825687357       30.80809430797822
N           19.92450202794049       22.05545631762036       30.18697139346035
C           17.55460417931071       20.88477218641219       28.87398661887227
C           16.34387775615669       20.22203070160094       28.44102409325326
C           15.37391185132871       21.17744056949260       28.42152925649213
C           16.01917889276683       22.42176709331429       28.78263462142032
C           16.03641763568837       24.85737350902789       29.04491661373456
C           15.42684577735188       26.15421605241320       28.90438467927692
C           16.35750554710050       27.05951162477727       29.31304679336710
C           17.51338803522330       26.30650521375497       29.72474844227032
C           19.63988905292708       26.15126547913592       30.92046087597707
C           20.66161319307295       26.71142460128421       31.77098614568789
C           21.44020208401865       25.66162638019332       32.17783091614856
C           20.91715618759055       24.49080656872283       31.50914062421114
C           21.14525552396592       22.16874511180527       30.77118043589785
C           21.90512459742368       20.94571854581066       30.61103861630508
C           21.09736791566372       20.08132108247663       29.93836285902126
C           19.86438423154626       20.79789776704961       29.68206216211957
C           18.75791351710092       20.23500256700994       29.07790853894216
H           18.82030310891455       19.19725769689261       28.79596266820720
C           15.40417260132124       23.66017320894687       28.75622095754265
H           14.36286524019478       23.69428501881491       28.47025494512484
C           18.61217725115947       26.87717572438531       30.33590945576516
H           18.62533981470375       27.95490341725308       30.41892507243517
C           21.58601225268693       23.28075727540379       31.46480894174520
H           22.53987893637996       23.21251105676847       31.96841485642224
C           13.92679974707113       21.02045466333938       28.11476400313266
H           13.69906789363766       19.98319197488784       27.88609343755524
H           13.63393589995716       21.63524799293513       27.26512590593281
H           13.31791065707856       21.32134184741239       28.96718417686754
C           16.23605796669525       18.76835129164441       28.13728895298975
H           16.15588933616441       18.18569711933517       29.05635663030866
H           17.11470285066643       18.42108839747608       27.59813802095107
H           15.36261138101744       18.55796837849922       27.52548920699926
C           14.04823663450024       26.44218133019219       28.43304329058510
H           13.35874955558937       26.47963714507497       29.27756972073947
H           13.69644571088274       25.68319923552889       27.73969293555562
H           14.02639669273566       27.40961945254540       27.93748133191469
C           16.18519445657930       28.51312754958580       29.45495984570254
H           15.73759072021576       28.81547535119860       30.39448733439606
C           16.50995059139386       29.43639991841119       28.53847660416265
H           16.94894353735991       29.17845813497161       27.59059028272473
H           16.33326211544438       30.48514037428193       28.71122736496728
C           20.74468874936378       28.13500602343821       32.17968004676960
H           19.75221909778447       28.55335539614040       32.33301120413233
H           21.24495607541769       28.73119878285603       31.41570858638410
H           21.31114391588792       28.21973569969981       33.10306357532978
C           22.48247982602711       25.59903120185117       33.19249181450405
H           22.46537754570913       24.68784014207505       33.78142587542685
C           23.38959347028180       26.54773435766433       33.47595905581343
H           23.51000444410419       27.43993257696782       32.88942904127462
H           24.08886712263410       26.41566874818896       34.28614410316376
C           23.29888174373611       20.71586426929621       31.08895191003736
H           23.32466373010431       20.53218355242637       32.16319342730815
H           23.93205008997236       21.57560341109809       30.88061629358316
H           23.72957680117450       19.85211628699813       30.58792701531588
C           21.36765340570100       18.67245144347364       29.53816478968011
H           22.20201631951152       18.26138358438511       30.10035111607057
H           21.60430540737634       18.60797882794416       28.47492929577736
H           20.49817004948667       18.04477815394501       29.72124432102731
O           17.11708347323395       23.16702300290683       31.75881632210513
H           16.52905623998146       22.42889947110826       31.67929865138986
H           16.79896179050606       23.72053738745954       32.46796440541866
C           22.42865742393242       24.27110566321358       25.77626955664261