87
 energy: -124.720513510187 gnorm: 0.000042790320 xtb: 6.7.1 (edcfbbe)
Fe           2.76026087798534       20.93410503859185       13.15042758386349
N            4.12210262718951       19.79909313111753       12.23160032636377
N            2.14541909368158       21.64218631248946       11.37861621364540
N            1.39166734662090       22.07248240839920       14.08099209617431
N            3.42811325414301       20.29444078013101       14.92690144664907
C            5.00181342600814       18.94442231572173       12.81259468511335
C            5.78869215997547       18.25837635771380       11.81045195702421
C            5.36433452046488       18.72709836389836       10.60782884718340
C            4.32328796609604       19.69158676041748       10.89293114174990
C            2.64937490935926       21.32630127370778       10.15674221426657
C            1.96988112896727       22.05577473240594        9.11711221436661
C            1.02615613617748       22.82777498806144        9.74160355179132
C            1.16443564442507       22.55511913902486       11.15919864939153
C            0.47952029081444       22.89619856805036       13.49381737096393
C           -0.34892217389460       23.53326462663663       14.48474983376162
C            0.09885444706528       23.09083390350314       15.70159541063138
C            1.20301392744735       22.19474503648080       15.41924809716293
C            2.98734869775074       20.67957982763322       16.15300623124696
C            3.74299589841502       20.02495549240064       17.19751730051665
C            4.65242169783615       19.23173307037142       16.57002197440005
C            4.43903977873550       19.41465158811463       15.15139195489311
C            5.16593497651123       18.76220855827590       14.17267520680837
H            5.92160166375746       18.06254891626811       14.49611778969900
C            3.65502358681212       20.40515282201164        9.92007172472737
H            3.93309985854704       20.22524646657273        8.89296743303709
C            0.36509676038257       23.12317231964743       12.13246257088946
H           -0.40850247861863       23.80194948721326       11.80729489397239
C            1.94303378694595       21.55143535501389       16.39433519711708
H            1.68514354098414       21.74170119182883       17.42478754461455
C            5.82620794386135       18.36861095172429        9.23719941100506
H            6.60977536898533       17.61587569488428        9.27709058074290
H            6.21925793092806       19.24595350901040        8.72252583824988
H            4.99952316835613       17.97272988856578        8.64728720152448
C            6.84002851991508       17.24662685142485       12.11455816745239
H            6.41583678834166       16.41148644263662       12.67201836697764
H            7.63571831907857       17.68585661701221       12.71747596582963
H            7.27993823192560       16.85896119145853       11.19904017902551
C            2.31056559097015       22.00171730826473        7.66886161508062
H            1.84777447571212       21.13609748802792        7.19173860099746
H            3.38799929801440       21.92696855852528        7.52977034904931
H            1.95561024446387       22.90022938544426        7.16795831002768
C            0.08185685400890       23.76157932709139        9.16985927263536
H           -0.14975737982398       24.62711869811814        9.78025468212370
C           -0.51117607073190       23.63281059240370        7.98728989958291
H           -0.35724371652212       22.77247021677493        7.35974490380458
H           -1.19618089415201       24.37726119057126        7.61659524959895
C           -1.41787948724330       24.52956357272862       14.19894272001318
H           -2.34435054527215       24.03455107887702       13.90217700466873
H           -1.11959539587321       25.19537716320015       13.39023268872688
H           -1.61672285654890       25.12773263412589       15.08583313019573
C           -0.37027654032700       23.43057218111283       17.02656483846938
H            0.39066356530022       23.46962489309990       17.79758036497011
C           -1.63341350227007       23.68036114538578       17.35597728857574
H           -2.43660360752560       23.60922260079666       16.64328199576000
H           -1.91195993792154       23.94091020821351       18.36364455492748
C            3.51019508312498       20.22430898732010       18.65570640477278
H            2.49815823730058       19.92222849181588       18.92686335782440
H            3.63250132928415       21.27398888046957       18.92393440228896
H            4.21111471933677       19.63663464531309       19.24355881634436
C            5.68149575125318       18.32640662194273       17.15556907256999
H            5.50575410285799       17.29588198532397       16.84551843678485
H            5.65727026320312       18.36505050038107       18.24182663240656
H            6.68018931801616       18.61253103875093       16.82424184802293
C            5.29668680923903       25.90520882066964       13.05341578865330
H            6.05891770311073       26.07378945418652       12.29271805282615
H            5.66136035696284       26.31088676472666       13.99710323904483
H            4.39679125827822       26.44133870214482       12.76885523368090
N            5.94178959410551       23.53355462664427       13.53475072275603
H            6.90897226400404       23.72998871265553       13.73376839301186
C            4.99269621828616       24.45775000654755       13.18374760772282
C            5.34310476109681       22.32191912978779       13.56339679355195
H            5.84519855087362       21.40885824128081       13.80788312501009
N            4.07414622250684       22.42272438072021       13.25236856555564
C            3.84090842091067       23.74453484909467       13.01358007837781
H            2.86774802936337       24.09283675534905       12.73705007116681
C            1.32314238631507       17.58980248313651       15.28909436864273
H            0.91146313739815       17.38127946343789       16.27463604582725
H            2.36216867675573       17.88458960952529       15.40139254329580
H            1.28497029720656       16.68188766403492       14.69181927601020
C            0.53147026257689       18.69598338253646       14.61919781493452
H            0.55256364661355       19.61030057735231       15.20981028396375
H           -0.50025800042216       18.38571331950671       14.45357986684482
S            1.24207965587554       19.07321090560547       12.96472651915869
C           -0.27322621852594       19.70566069753897       12.18182832798567
H           -0.64786625227295       20.55801209371378       12.73954648777756
H           -1.01118917028472       18.90863111594108       12.14279701662509
H           -0.00615713057252       20.01409887138859       11.17715016460415
