87
 energy: -128.358248693164 gnorm: 0.242804488173 xtb: 6.7.1 (edcfbbe)
Fe         158.22200000000001      183.09299999999999      145.04700000000000
N          159.65799999999996      183.91499999999999      143.86900000000000
N          156.92099999999999      184.25099999999998      144.08400000000000
N          156.80199999999999      181.92200000000000      145.79700000000000
N          159.52000000000001      181.71700000000001      145.71299999999997
C          160.95400000000001      183.46799999999996      143.76899999999998
C          161.69600000000000      184.34899999999999      142.90799999999999
C          160.86400000000000      185.28899999999999      142.48799999999997
C          159.56800000000001      185.04499999999999      143.08900000000000
C          157.18400000000000      185.20300000000000      143.12799999999999
C          155.96899999999999      185.48199999999997      142.39599999999999
C          155.00800000000001      184.71400000000000      142.91700000000000
C          155.59299999999999      183.93299999999996      143.97399999999999
C          155.46399999999997      182.19000000000000      145.66399999999999
C          154.72600000000000      181.40199999999996      146.61999999999998
C          155.61299999999997      180.69700000000000      147.32100000000000
C          156.92200000000000      180.99899999999997      146.80500000000001
C          159.29599999999999      180.71399999999997      146.62700000000001
C          160.51800000000000      179.95699999999999      146.77400000000000
C          161.44200000000001      180.48699999999997      145.97600000000000
C          160.83099999999999      181.59999999999999      145.30500000000001
C          161.47399999999996      182.37899999999996      144.39099999999996
H          162.49700000000001      182.10300000000001      144.13600000000000
C          158.41600000000000      185.76499999999996      142.92699999999999
H          158.48099999999999      186.81100000000001      142.63100000000000
C          154.91600000000000      183.04400000000001      144.75500000000000
H          153.83199999999997      183.01400000000001      144.64099999999996
C          158.10300000000001      180.47399999999999      147.25199999999998
H          158.09299999999999      179.84100000000001      148.13900000000001
C          161.27000000000001      186.44800000000001      141.56500000000000
H          161.81800000000001      186.04700000000000      140.68500000000000
H          161.93400000000000      187.15000000000001      142.11399999999998
H          160.36199999999999      186.98199999999997      141.21100000000001
C          163.17599999999999      184.19900000000001      142.50000000000000
H          163.24500000000000      183.59299999999999      141.57099999999997
H          163.73800000000000      183.68499999999997      143.30900000000000
H          163.61600000000001      185.20099999999996      142.31000000000000
C          155.85699999999997      186.50999999999999      141.25299999999999
H          156.84500000000000      186.99100000000001      141.08900000000000
H          155.11600000000001      187.29199999999997      141.52300000000000
H          155.54499999999996      185.99900000000000      140.31699999999998
C          153.52099999999999      184.59399999999997      142.53299999999999
H          152.85899999999998      183.93099999999998      143.10900000000001
C          152.99199999999999      185.27000000000001      141.51499999999996
H          153.61500000000001      185.94499999999996      140.90899999999999
H          151.92599999999999      185.16199999999998      141.26699999999997
C          153.20199999999997      181.46599999999998      146.81700000000001
H          152.71000000000001      180.72800000000001      146.14800000000000
H          152.83300000000000      182.48300000000000      146.56500000000000
H          152.94900000000001      181.22100000000000      147.87100000000001
C          155.41399999999999      179.67099999999996      148.44900000000001
H          156.24299999999997      179.47300000000001      149.14400000000001
C          154.27799999999999      178.99099999999999      148.64400000000001
H          153.41399999999999      179.14599999999996      147.98099999999999
H          154.19399999999999      178.26900000000001      149.46899999999997
C          160.70599999999999      178.75000000000000      147.70200000000000
H          159.79499999999999      178.11499999999998      147.67400000000001
H          160.87000000000000      179.09899999999999      148.74399999999997
H          161.57499999999996      178.14699999999999      147.36300000000000
C          162.90799999999996      180.03700000000001      145.77099999999996
H          162.98500000000001      179.43700000000001      144.83899999999997
H          163.23199999999997      179.41200000000001      146.63000000000000
H          163.56499999999997      180.92800000000000      145.68100000000001
C          156.52799999999996      185.40100000000001      149.87899999999999
H          157.05499999999998      186.09500000000000      150.56799999999998
H          156.09899999999999      184.56399999999999      150.47000000000000
H          155.71700000000001      185.95500000000001      149.36099999999999
N          158.61799999999999      184.13999999999999      149.19499999999999
H          158.87400000000000      183.86099999999999      150.12000000000000
C          157.49199999999999      184.86699999999999      148.87700000000001
C          159.28899999999999      183.88000000000000      148.08499999999998
H          160.20800000000000      183.29599999999999      148.04200000000000
N          158.65700000000001      184.44200000000001      147.07300000000001
C          157.53600000000000      185.06999999999999      147.54200000000000
H          156.87000000000000      185.60599999999997      146.87700000000001
C          156.88600000000000      178.45699999999999      140.93600000000001
H          156.94800000000001      177.53500000000000      141.55199999999999
H          157.53600000000000      178.33799999999997      140.04300000000001
H          155.83199999999997      178.61000000000001      140.62100000000001
N          158.61000000000001      179.70900000000000      142.27500000000001
H          159.32300000000001      179.01599999999996      142.16700000000000
C          157.34500000000000      179.62200000000001      141.73900000000000
C          158.71899999999999      180.84299999999999      142.94399999999999
H          159.62099999999998      181.16999999999999      143.46000000000001
N          157.56800000000001      181.48500000000001      142.87200000000001
C          156.69000000000000      180.73800000000000      142.12799999999999
H          155.67699999999996      181.07400000000001      141.94600000000000
87
 energy: -128.411006143981 gnorm: 0.098042820155 xtb: 6.7.1 (edcfbbe)
Fe         158.22522549963696      183.03185844453003      144.95915464185990
N          159.67241083496219      183.92372215988240      143.86767502381269
N          156.91437355401811      184.22571552347193      144.05882514164662
N          156.79577111726755      181.95689182633558      145.84600266940248
N          159.53328706068513      181.71117368412095      145.71592014742683
C          160.96066627432961      183.47990996013596      143.76309588677333
C          161.71360241525159      184.34907896534540      142.89589943633277
C          160.87258693413557      185.32391304897936      142.49473546737443
C          159.58652655034660      185.06152849944229      143.11192001255441
C          157.16302135549824      185.21076241194618      143.14393043771278
C          155.95585878585118      185.51367486407986      142.40583014720448
C          154.97418829197264      184.71954560697935      142.91593044341852
C          155.58334054043908      183.93316765706891      143.96549584395885
C          155.45830683633815      182.18775894735779      145.69081756259007
C          154.70735261990544      181.39437808328378      146.63560142587858
C          155.61038566426842      180.67370270405101      147.35008924112026
C          156.91752785664445      181.02073221695269      146.83484388580965
C          159.31752606601225      180.71831770746653      146.63292028124465
C          160.52735203551359      179.94476545363705      146.79833063092667
C          161.46203105283931      180.47771072473131      145.98092474647231
C          160.83802024383280      181.58983652799552      145.31485824151306
C          161.48515740598853      182.37921928542633      144.39241787562170
H          162.50357717281867      182.10846542528799      144.14405790417882
C          158.41693077899521      185.77083725642112      142.92845086580283
H          158.47991525431098      186.79353372911095      142.56815781863119
C          154.90447125478190      183.04139804677448      144.76182405683852
H          153.82825292083612      183.01068350853106      144.64932687159549
C          158.11055427983578      180.47729233295345      147.25895615822847
H          158.09728032759415      179.81655536275326      148.11736270091586
C          161.25591834893552      186.44932663231856      141.56765608482718
H          161.80076908299387      186.05539413889142      140.70121728839831
H          161.91651252262184      187.14412844441497      142.09936297359280
H          160.37179240350210      186.98436673871393      141.21491141113438
C          163.16456425291315      184.19438505282130      142.50230988582999
H          163.24474186205998      183.60038537085788      141.58414355380913
H          163.73106151516146      183.69440657506706      143.29343581196079
H          163.60655153302599      185.17826129173685      142.31675023403795
C          155.87034229865435      186.50721086369251      141.26817648861547
H          156.83791614401466      186.98484445941003      141.09467445508494
H          155.13552744487635      187.28226385656905      141.51653706484052
H          155.56476015531263      186.00933717428708      140.33934795362839
C          153.54208953173844      184.60404606982232      142.52632695971272
H          152.90261027688334      183.94176680420773      143.10870220232658
C          152.99176057452632      185.27049651979524      141.51713892316343
H          153.57730233228617      185.93709384677817      140.90498636282669
H          151.94006825313974      185.16252948935087      141.27392489637853
C          153.21066713409905      181.46536050214240      146.81367070209561
H          152.71465958931248      180.74076713689448      146.15664894895883
H          152.84009746638770      182.46621373072441      146.57095480344373
H          152.95235951404067      181.23308859143978      147.85151947076849
C          155.40322130731627      179.68259242025118      148.43911565051582
H          156.23743515572306      179.49538151069410      149.11435492942732
C          154.28038473486887      178.99908955962889      148.63919241787525
H          153.42374316626831      179.12588124019152      147.99089930093953
H          154.19427105416398      178.28417201690488      149.45172514282467
C          160.69733788091219      178.75201255354276      147.70238099663766
H          159.80385593975890      178.12122713738464      147.67841960764804
H          160.86704769878924      179.08663618566098      148.73212053989721
H          161.55497774174378      178.15621686352259      147.37517232085611
C          162.89514040133807      180.03850226485619      145.77095235049612
H          162.98324482688236      179.44645347989299      144.85191308049312
H          163.22820382333686      179.42574603803430      146.61323832205454
H          163.55256198040735      180.90939464340391      145.68619193373004
C          156.53425239016968      185.40016645753548      149.88533668649882
H          157.04159839414157      186.08940038724938      150.57057493365957
H          156.09963270813591      184.58058875209542      150.46907825371201
H          155.73267604885274      185.94065266946222      149.37470103160447
N          158.60888558693347      184.14453837343268      149.19820027321327
H          158.86955989378487      183.86323362249482      150.12817930585996
C          157.49631928358528      184.88005456395564      148.87911332608982
C          159.27370655789929      183.87889038087016      148.06280281127027
H          160.18826386617553      183.30940741057290      148.02694208017891
N          158.64160343316911      184.39647586459753      147.02936958452852
C          157.54726747287714      185.05263848460933      147.52817722121074
H          156.88317218539444      185.58779361322541      146.87457395644986
C          156.88601466199472      178.45451051830327      140.93740425663930
H          156.94270358031315      177.53712211018194      141.53569432020436
H          157.51868825557858      178.33083333259350      140.05001930294674
H          155.85017364471341      178.60542335282847      140.62284414526397
N          158.60596265803002      179.69577575107715      142.26254325911506
H          159.32281095456267      178.99968929276474      142.15381980248569
C          157.34050621638499      179.61735228003687      141.74289391707251
C          158.70816042326817      180.84799779067038      142.93806238448499
H          159.60462248436153      181.16726807724982      143.43565802380328
N          157.57452657937804      181.50911466839398      142.89806876968171
C          156.70732182184841      180.75431018467572      142.14996013452910
H          155.70157196554092      181.08565289216526      141.96155358382049
87
 energy: -128.426563361769 gnorm: 0.020718071263 xtb: 6.7.1 (edcfbbe)
Fe         158.22445718843801      183.00879125383540      144.92473855328743
N          159.67649297976692      183.92068490227584      143.86996156233715
N          156.90981332958236      184.20189317837287      144.03627409566170
N          156.79382518193916      181.99410313698419      145.88888110666923
N          159.54050691459159      181.69931361840102      145.70261816976495
C          160.96029410306397      183.48353148463130      143.75917186845476
C          161.71979350586875      184.35129812332090      142.89381108287813
C          160.87496985276073      185.34975128332161      142.51292825224110
C          159.59500013099625      185.06429255036514      143.13199829795190
C          157.15130527708590      185.20471477067201      143.14954955451933
C          155.95027530209367      185.54113385829731      142.42226883698865
C          154.95372741600875      184.72895063936724      142.91814229168961
C          155.57873645243276      183.92655480135576      143.95513147281503
C          155.45848632468281      182.20138431103743      145.72204144958769
C          154.70015545227230      181.39718455349060      146.64989804610093
C          155.61283218867942      180.66884213795527      147.37377142062104
C          156.91916576711733      181.05467671607525      146.86553683001239
C          159.33225106731913      180.72319228845421      146.63079003944873
C          160.53325826275267      179.94070168955994      146.81600724861698
C          161.47483434158727      180.47230660168236      145.98610645119129
C          160.84213609568448      181.57796174693348      145.31410425129263
C          161.49327261527219      182.37792278856122      144.39226312028177
H          162.51464685369746      182.12065289965398      144.15776445494137
C          158.41491199851995      185.75667978853431      142.91428679377759
H          158.47453595549641      186.74995908359156      142.47173991386904
C          154.89818265207603      183.04332439151500      144.77247995678036
H          153.82555901150161      183.00715542896691      144.66352370317972
C          158.11896314576313      180.48556487350029      147.26034446198079
H          158.10306058686132      179.77924969126929      148.08073157244644
C          161.23867678254985      186.45590577550638      141.58134528376706
H          161.77692046862887      186.06054131384437      140.72020826385304
H          161.90023738114976      187.15910396352808      142.08795297746457
H          160.36627738447669      186.98942485710884      141.22483152049298
C          163.15011088249233      184.19261007086479      142.50279424346297
H          163.23971896302140      183.60190219373928      141.59072559337173
H          163.71983147402435      183.69818852544145      143.28406852474566
H          163.59837473481036      185.16570674974292      142.31810661530113
C          155.88210287821053      186.51321601227150      141.29287723544979
H          156.84365344086189      186.98176235189786      141.11524646424871
H          155.14971382072224      187.29062759651876      141.51270968653893
H          155.58471550979698      186.01251377617368      140.37070732922939
C          153.56824835156755      184.62532155902628      142.52908568405891
H          152.95394172840349      183.95106143540872      143.11405273673094
C          152.98833595686554      185.27456058386656      141.52074438465726
H          153.53553336451469      185.94227303974370      140.88989521997843
H          151.94455074367130      185.15109049990647      141.28799640250315
C          153.22097028542530      181.46383355102196      146.81385995763685
H          152.72022549248291      180.74766138825956      146.16201680677915
H          152.85159239601401      182.45703091838587      146.57222946472677
H          152.95201380587670      181.23952577580329      147.84295094059505
C          155.39887484645124      179.69976124158003      148.42308689800635
H          156.23851849667497      179.52493857460428      149.08580796369347
C          154.28324304667092      179.00570017310068      148.63071705530845
H          153.42576335534324      179.10333003006289      147.99278846682941
H          154.19775713021056      178.30167740242877      149.44194636989255
C          160.68878104690006      178.75751050603310      147.70780790668218
H          159.80257343396974      178.13013644601526      147.68309452439874
H          160.85889284908356      179.07449852176151      148.73625007121788
H          161.53937222609605      178.16060774338226      147.38914212507180
C          162.88499191526890      180.03747144693756      145.77508353673599
H          162.97840967506912      179.45251133569207      144.85941391895747
H          163.22633303091786      179.42747857690821      146.60607661789314
H          163.54387974867089      180.89813443493190      145.69206961382682
C          156.54400331721433      185.40424208977737      149.88381833819469
H          157.03853142426615      186.08851767501426      150.57219808537315
H          156.11260903775897      184.58896373148735      150.46226296701366
H          155.74149419625522      185.93428930535589      149.38230785038806
N          158.60676719523073      184.14955852265734      149.18878166605523
H          158.87554095500911      183.87050509066691      150.11980641228010
C          157.50099423016761      184.89190272910702      148.87008510603414
C          159.24912075150209      183.85801587623357      148.03390132259455
H          160.16340218140607      183.30120483125617      148.00128239063659
N          158.62124383135594      184.35694738282180      146.99614252616183
C          157.54080489607460      185.02155760215953      147.50801378810010
H          156.87592512589399      185.55836092591932      146.86376167157056
C          156.87521763603306      178.46005423312181      140.94072729944136
H          156.93270014970082      177.54258137178388      141.52605403130366
H          157.50091271340537      178.33534925044586      140.05722315177130
H          155.84922599688389      178.60825880979050      140.62481935892023
N          158.60829406243920      179.68047884564899      142.24747299328047
H          159.32230206747423      178.98067690274874      142.13196570911254
C          157.33355638687681      179.61773850995348      141.75151569800494
C          158.72025298842357      180.83795391889527      142.93025345741506
H          159.62360493653910      181.15213068613778      143.40342278032770
N          157.60258471880988      181.51512311645573      142.92201075060490
C          156.72614656090866      180.76800494648253      142.18177664551717
H          155.72517803956305      181.10219268259891      141.99284073640374
87
 energy: -128.432728081369 gnorm: 0.022478786404 xtb: 6.7.1 (edcfbbe)
Fe         158.22366110553045      182.99029021912096      144.89992006659406
N          159.68205589618819      183.91585692384413      143.87404866772351
N          156.90923526420644      184.19083695417751      144.02783681437964
N          156.79320045028661      182.02377823705962      145.91410493829366
N          159.54872665858346      181.69500645417702      145.69625034324309
C          160.96635642843424      183.48490430909996      143.76421080998233
C          161.72282105048865      184.35847427787689      142.90192081893483
C          160.87589935935043      185.35956503472872      142.52807039324404
C          159.59765725610788      185.05890019912036      143.13821315149485
C          157.15259583116924      185.19668694354965      143.14852308488014
C          155.95317074416320      185.55863693033075      142.43890027528479
C          154.95121957797886      184.74550935889607      142.92791405467034
C          155.57610686911536      183.92976531160036      143.95745364534702
C          155.45885524489691      182.22599399277868      145.74502952531282
C          154.70154048833260      181.41330540789232      146.66131073068544
C          155.61691518695082      180.68471795746103      147.38613282793904
C          156.92292432747180      181.08058930948616      146.88301351833022
C          159.33629701559505      180.72527649046640      146.62767212030920
C          160.53495879932856      179.94300238913490      146.82527157926373
C          161.48033730240581      180.47119140184839      145.99490311245421
C          160.85089434538415      181.57436926030127      145.31534012955797
C          161.50484304858026      182.37973822689210      144.39797768045983
H          162.53166811634941      182.13370124689163      144.17449237574164
C          158.41555684942844      185.73543302211425      142.89102680839122
H          158.47276763622833      186.69952661843431      142.37842295439739
C          154.89465357536270      183.05621225156972      144.78594127271273
H          153.82156544414133      183.01352994810168      144.68066752768280
C          158.12172942717720      180.48920120183507      147.25497364867803
H          158.10287066179367      179.74531503568576      148.04421198770709
C          161.22205449289982      186.46808074166191      141.59374512076397
H          161.75387726138322      186.06954539420491      140.72980409925776
H          161.88306814261912      187.18399507979385      142.08534388244792
H          160.34359279965923      186.99602738557027      141.24017159134536
C          163.14762816778557      184.19349108783612      142.50219204624833
H          163.23071729783319      183.59849630911467      141.59132794282786
H          163.72033451004845      183.69818972582536      143.28175249733940
H          163.59853436209426      185.16459871894074      142.31175002640620
C          155.89403545587564      186.52903356735786      141.31253696970893
H          156.85893909820365      186.99397214162400      141.14009559657919
H          155.16062305218219      187.31048084980441      141.51541423246553
H          155.60475835444166      186.01944853803928      140.39243422934729
C          153.57417149707422      184.64045501025592      142.53304756036351
H          152.97469152832835      183.95810117301986      143.12347284857955
C          152.97163637919058      185.27606885682624      141.52611135377273
H          153.48939729412530      185.95707639572586      140.87934713985302
H          151.92715588991527      185.13032651113457      141.30970989592575
C          153.22310560976780      181.46855156295661      146.81768033642430
H          152.72677025527858      180.75006297825763      146.16421265751077
H          152.85163510649704      182.46078868978273      146.57247395659894
H          152.94793022817649      181.24371278113429      147.84577746654577
C          155.39975507910211      179.71313177374773      148.42473100350330
H          156.24245716569686      179.54249329386502      149.08422530060983
C          154.28756187115138      179.01006623879906      148.63202663763053
H          153.43128664439377      179.08240316429874      147.98652974013407
H          154.20791782759085      178.30753952529716      149.44395831545933
C          160.67891681472364      178.76003269155333      147.71891252942638
H          159.78895247663112      178.13657543861103      147.68791488058949
H          160.84415643787867      179.06857042520124      148.75174689802802
H          161.52834271048238      178.15731703637570      147.40589626092398
C          162.88668036633359      180.03174104090058      145.78088250262132
H          162.97683624413668      179.45249528982322      144.86030728748648
H          163.22913837588140      179.41522555942805      146.60718913087371
H          163.54931049691697      180.89075796608677      145.70098665641115
C          156.55684664385791      185.40745837183536      149.87297416538107
H          157.05310568828173      186.09049950876314      150.56175293768885
H          156.13242449342255      184.58967989395802      150.45420156153031
H          155.74664465098027      185.93583745530316      149.38173572365497
N          158.60890145094828      184.14895222535824      149.16198316672330
H          158.89070975098346      183.88145257947886      150.09260810814339
C          157.50155787870315      184.89249976723619      148.84799417277799
C          159.22480654238359      183.82685804959809      147.99752826701365
H          160.13898795800401      183.27117221987240      147.96143108568327
N          158.57965228796249      184.30329099033102      146.96162804888914
C          157.51635150569928      184.98826752520202      147.48095433042249
H          156.84194156789340      185.51734648666266      146.84030304983887
C          156.85253182311942      178.47449922258102      140.94759268111557
H          156.91016502508174      177.55008615507870      141.52308338851020
H          157.47356172909591      178.35216827521296      140.05977437211527
H          155.82611451184277      178.62788633075667      140.63566463167857
N          158.61839478462883      179.66391810414649      142.22831392788206
H          159.32189236094305      178.95686270181835      142.09279782833337
C          157.32823948455894      179.62229794516040      141.76446469095808
C          158.76071209611547      180.81528848786778      142.91768640217498
H          159.68383144239036      181.12172565733812      143.35962208941342
N          157.65060185448934      181.50509136675259      142.94904330785843
C          156.74682173944240      180.77755343998888      142.22324233753992
H          155.74714947384035      181.12513938237132      142.05315626696878
87
 energy: -128.438406418182 gnorm: 0.019713104856 xtb: 6.7.1 (edcfbbe)
Fe         158.22433566427193      182.98758680852259      144.89872574756544
N          159.68655556656049      183.90373275112930      143.87722906346028
N          156.90906049741770      184.17586676661250      144.01809262044219
N          156.79427189775313      182.05061219001382      145.92757648800014
N          159.55565585757856      181.68635677154899      145.68104986665736
C          160.97451608038105      183.48355781631011      143.77101783748066
C          161.72716039730028      184.36643202364246      142.91352528652200
C          160.87656090764375      185.36368543524821      142.54197014174878
C          159.59858869364996      185.04462465115643      143.13900862438791
C          157.15623887644458      185.18299376964794      143.14223322727787
C          155.95597072346516      185.57499060637315      142.45536106477394
C          154.94946401794147      184.76771887996600      142.94150374213820
C          155.57206796643788      183.93508550231829      143.96113554003028
C          155.45968203848312      182.25281269111767      145.76369679958171
C          154.70538143518792      181.43464264101067      146.67261252662158
C          155.62289836441201      180.70460514694332      147.39337460821989
C          156.92702681419320      181.10238783698989      146.88955222741546
C          159.33684154876522      180.72264435759905      146.61604872161203
C          160.53508311555760      179.94363419186212      146.83095292635363
C          161.48554363119388      180.46818194382814      146.00472170972085
C          160.86108225961598      181.56788713511241      145.31326705975485
C          161.51986956417485      182.38113077321032      144.40583811985664
H          162.55301149937071      182.14835669654639      144.19509615689856
C          158.41662744131466      185.70124810002727      142.85669231255733
H          158.47398374910475      186.62964115540240      142.29447484333576
C          154.88998318653503      183.07377643076606      144.80066686713994
H          153.81566255383558      183.02711800295404      144.70448281619258
C          158.12156456353105      180.48870327083768      147.23866903386980
H          158.09870060585018      179.71987564410102      148.00036726231536
C          161.20260721372480      186.48008812636527      141.60836398578829
H          161.72779121046474      186.08708215678348      140.73736066227690