87
 energy: -128.467669334382 gnorm: 0.000043320352 xtb: 6.7.1 (edcfbbe)
Fe         158.19193647019529      182.63803884148606      144.86791020131491
N          159.68236445453692      183.59870060092359      143.92960194603648
N          156.85386309959040      183.83979529772699      143.98172698585867
N          156.70962452921674      181.67558509095869      145.81576605561523
N          159.53521344826984      181.43420422060458      145.74761063520714
C          161.01338854608392      183.34553728155805      144.02853150057916
C          161.77161964697709      184.25976709998835      143.20316998721188
C          160.86207115938060      185.07117985501029      142.59993205411038
C          159.56186340381601      184.64185563389287      143.06716288425216
C          157.11531067067648      184.84596027929146      143.10605903209611
C          155.89507451913465      185.47343823582557      142.66629856568449
C          154.87360549625731      184.81660418434478      143.30032867380254
C          155.50506046975249      183.80461636171626      144.12693292825480
C          155.37752710699581      181.93584173993409      145.71984766540382
C          154.61737913715251      181.03381357829062      146.54685577087938
C          155.52842441217288      180.20720563633671      147.15006640869930
C          156.83147198001737      180.63759763380324      146.67858247363938
C          159.27416067886429      180.41517823623573      146.60628674206521
C          160.49978869422620      179.76628925089119      147.01739752772198
C          161.50998097941812      180.42293004085445      146.38602646693926
C          160.88578592254740      181.46141658673508      145.59673281345289
C          161.58710535231248      182.35094854474241      144.80174078917361
H          162.66317490320617      182.26024670357276      144.78041708654069
C          158.37461112478945      185.22683909464038      142.67485291891262
H          158.43405427714680      186.04276197515094      141.97036316659037
C          154.80729476066628      182.91867333860728      144.92690320092541
H          153.72987858147357      182.99159007061959      144.92808860355984
C          158.02025167695075      180.03413476158602      147.04445223182887
H          157.96770213195674      179.19696095092283      147.72399581716138
C          161.08615915608937      186.19389053506393      141.64519633574321
H          160.57833820738327      186.00054958068003      140.69994679690566
H          162.14655000846798      186.32583128644100      141.44312457052871
H          160.69610129138593      187.12706502608927      142.05264206141806
C          163.25833976758838      184.25417431645388      143.08608049786750
H          163.61104334589371      183.29613983226099      142.70245343710070
H          163.72204094612957      184.41778493440472      144.05950639782256
H          163.59628588400281      185.03699708236724      142.41135279276637
C          155.81312130905945      186.65066351443591      141.75781071020197
H          156.62417226759644      187.34924720920077      141.95839676720936
H          154.86577525702739      187.16712008827494      141.89979489014220
H          155.88396814813410      186.34264377800625      140.71311484975337
C          153.44935986484589      185.05328714811475      143.22900778025704
H          152.89554940222592      184.86029514024722      144.14102507081085
C          152.78664889087426      185.46928308317916      142.15409213067608
H          153.27298693001507      185.63053014267615      141.20796930035181
H          151.72265374670414      185.63833595180085      142.17840729022717
C          153.14068007768540      181.07975052069702      146.73650029003977
H          152.62613429628732      180.55872330118501      145.92705422941782
H          152.78503572016692      182.10909679042715      146.75307517459024
H          152.87035517206243      180.60375317291494      147.67705205765259
C          155.30511491011725      179.13430245890447      148.09261641767753
H          156.08352069527518      178.99382939730052      148.83401488238371
C          154.24977489351224      178.32586278258228      148.11003586373511
H          153.46978752061085      178.38508000939203      147.37124476723929
H          154.14352812162753      177.55380316975237      148.85433850910536
C          160.56734020212164      178.60899527426812      147.95444577213257
H          159.99425281286992      177.76710477255730      147.56524030444160
H          160.15278706581958      178.87807391139089      148.92641144042270
H          161.59564628128507      178.28583383447776      148.09898161962718
C          162.97989932351950      180.17802739019609      146.44564646068238
H          163.37296226832552      179.94883221372606      145.45448831227600
H          163.20642217192372      179.34284925387843      147.10398226746224
H          163.50263351765133      181.05936171298771      146.81902946457754
C          157.16177333024027      186.24836390773623      149.02305334886915
H          157.49703731479488      187.27801626223379      148.89744001526833
H          157.39177165083379      185.93700322974738      150.04208377090350
H          156.08589015524672      186.21354463331193      148.88316103695917
N          159.18032656830536      185.19496263788579      147.97946220067911
H          159.85157030073856      185.64778285192992      148.57771162342107
C          157.82002353513380      185.35476591278919      148.03649847963723
C          159.44798825680962      184.32392687327444      146.98038245976971
H          160.43377187878488      184.00988470663984      146.70602451157842
N          158.34284411089362      183.92349358872008      146.40249963356331
C          157.32171368103536      184.55555130486843      147.04817926624258
H          156.30352633904434      184.39452542269981      146.76092974069005
C          156.39546693822675      179.26125902704118      140.77745953298145
H          156.53834983803750      178.18863864434866      140.90954324856872
H          156.64966989855196      179.51480787274713      139.74820586860372
H          155.34903201838316      179.49595187495106      140.94542875878972
N          158.60334763087087      179.94028789110843      141.74590466614990
H          159.16255524956588      179.36969946956467      141.13334653661636
C          157.23531982605218      180.02713087120537      141.73301542233256
C          159.05521336184023      180.75403894575837      142.72667348988463
H          160.08974689517052      180.88722464787799      142.96681125424604
N          158.05920835592741      181.34938260892395      143.33428944680051
C          156.92072284956956      180.90794341751780      142.72751954855269
H          155.95757290789862      181.25098365466280      143.04365549215834
