78
 energy: -116.058076565832 gnorm: 0.000068398600 xtb: 6.7.1 (edcfbbe)
Fe          -5.63960265114835       56.95907580890741       20.82675010633463
N           -6.39754620168241       56.01394618158010       22.43516446427099
N           -6.54006312429512       58.66231983152488       21.42139812925774
N           -4.84171964725962       57.91872432510493       19.27302988098618
N           -4.71368666535220       55.28104857434553       20.28421020105048
C           -6.24954743569364       54.70048896274692       22.75429773218570
C           -6.97866622422221       54.38199998763316       23.96053710405489
C           -7.57684041411575       55.53593586426764       24.36329608907796
C           -7.20812881054087       56.54316054808712       23.39451263497483
C           -7.33529889292985       58.83503619941077       22.51575657750189
C           -7.84594654017063       60.17902236730269       22.57089767491759
C           -7.35199335213328       60.82459064401659       21.46678160534669
C           -6.53104520878175       59.85517220747203       20.76995523763059
C           -5.04366602642030       59.21794729323145       18.92274838985918
C           -4.31311316419874       59.54625524659448       17.72374656776987
C           -3.65907500849526       58.40382039704264       17.34848145098699
C           -4.00527983322187       57.40233435556182       18.33981438528503
C           -3.90408233931964       55.11175116917710       19.20771565241636
C           -3.43324731880236       53.74498788851655       19.12893782327203
C           -3.98299549225617       53.09227404979629       20.18629714571704
C           -4.78014028859910       54.07021469224063       20.89635112718766
C           -5.49680051994631       53.78536662614277       22.04234892282768
H           -5.46413227632680       52.77252822862365       22.41343381426020
C           -7.64119402280524       57.85409033830970       23.44567415717738
H           -8.29095356281161       58.12870391724327       24.26259072315603
C           -5.84371723111021       60.11932906582949       19.60138309032459
H           -5.93945926967306       61.10906889238912       19.18213994767212
C           -3.56690547057628       56.09195100714692       18.29460436085238
H           -2.91575184687790       55.80970514515214       17.48131609192750
C           -8.44653695676816       55.78605757211697       25.54782969938467
H           -8.57243051366149       54.87854978658990       26.13301986725086
H           -9.43259882271404       56.13188711451711       25.23590823097287
H           -8.00940374955421       56.55028106141820       26.19115207807970
C           -7.01843377801878       53.03015031269877       24.58622230286217
H           -6.01466442872159       52.70572295678127       24.86164368838509
H           -7.43026796541667       52.29857198464570       23.89077220010725
H           -7.63416335342585       53.03556806599947       25.48235368539986
C           -8.68391012894353       60.73439115669100       23.66971889339412
H           -8.37519773904762       60.33062547042154       24.63295693776697
H           -9.73680670147331       60.48714626920042       23.52246224185394
H           -8.58790898823944       61.81786484653404       23.69985967308661
C           -7.54353151930465       62.19554294786634       21.04922933526040
H           -6.70245627113411       62.65152411204367       20.53999241060628
C           -8.64828825858101       62.91156137727802       21.23223397671162
H           -9.53126870305242       62.49831784228896       21.68768092942648
H           -8.71566402497606       63.93594739584425       20.90535622558867
C           -4.24987853884588       60.89697422701474       17.10065221381722
H           -3.36506338734812       60.97681633959171       16.47251214682464
H           -4.20511914847206       61.67182102674197       17.86456688216810
H           -5.12992112146296       61.08276166106950       16.48253750350957
C           -2.76968939010982       58.18292550267048       16.22963316524435
H           -1.95807771290189       57.48707551720054       16.40795189669883
C           -2.87961464779130       58.75143623876799       15.03328589495631
H           -2.16997454797714       58.55244753362037       14.24729458021648
H           -3.69122129584925       59.41343069369315       14.78609990075660
C           -2.52144454080621       53.22982702768093       18.06886090073287
H           -1.57560210022900       53.77161836860687       18.08285467668839
H           -2.96856764557113       53.35579826506727       17.08241951122177
H           -2.31257292960810       52.17326837187372       18.21775145100168
C           -3.83804667534090       51.66707739739621       20.59718425515778
H           -3.19638083152224       51.12828187843996       19.90440314910132
H           -4.80999457109373       51.17352644004499       20.61956019528409
H           -3.40076810469023       51.59813696417472       21.59350835668917
O           -3.89337262880348       57.56699126241823       22.18486235730315
H           -4.08743552490904       57.01453623209550       22.94991409605933
H           -4.16496803490864       58.46415072386120       22.40734763559485
C           -9.12759048408306       55.30671320879771       16.80456337884810
H           -9.80094253759701       56.04776066580030       16.37413315771954
H           -9.69025837656192       54.38690919635989       16.96428249781160
H           -8.32976403155794       55.10798319837050       16.09596726313009
N           -9.32243616244885       56.15165649636195       19.15385487976021
H          -10.32798115525618       56.11841496853558       19.19042929680188
C           -8.54798117768988       55.79895224227676       18.07981550199847
C           -8.49271229914338       56.55232679072462       20.14315026668334
H           -8.82309820430075       56.88613285819493       21.10490848303263
N           -7.24115192154875       56.47428222065719       19.76141127254129
C           -7.25910521471628       56.00685492509550       18.47997073908854
H           -6.35013431406412       55.85355146847102       17.93574902914248
