78
 energy: -115.936976716329 gnorm: 0.266051786828 xtb: 6.7.1 (edcfbbe)
Fe          -5.77700000000000       56.96400000000000       20.77800000000000
N           -6.23500000000000       56.15400000000000       22.42100000000000
N           -6.62500000000000       58.66300000000000       21.44100000000000
N           -5.01700000000000       57.85499999999999       19.26900000000000
N           -4.54600000000000       55.25900000000000       20.40400000000000
C           -6.08300000000000       54.80200000000000       22.75200000000000
C           -6.56700000000000       54.59200000000000       24.08500000000000
C           -7.23500000000000       55.70499999999999       24.44700000000000
C           -7.05500000000000       56.68099999999999       23.42000000000000
C           -7.31000000000000       58.88699999999999       22.61199999999999
C           -7.96700000000000       60.17399999999999       22.53800000000000
C           -7.39600000000000       60.82000000000000       21.51599999999999
C           -6.69300000000000       59.83100000000000       20.72700000000000
C           -5.08800000000000       59.22999999999999       19.02200000000000
C           -4.35000000000000       59.51299999999999       17.82400000000000
C           -3.58100000000000       58.45000000000000       17.58400000000000
C           -3.94500000000000       57.40500000000000       18.51599999999999
C           -3.95300000000000       55.07700000000000       19.17800000000000
C           -3.57900000000000       53.67900000000000       19.04100000000000
C           -4.09900000000000       53.03400000000000       20.08400000000000
C           -4.77400000000000       54.01400000000000       20.92100000000000
C           -5.36500000000000       53.79200000000000       22.13500000000000
H           -5.27000000000000       52.82000000000000       22.61600000000000
C           -7.60500000000000       57.94300000000000       23.55000000000000
H           -8.26100000000000       58.17800000000000       24.38600000000000
C           -5.83000000000000       60.16400000000000       19.71200000000000
H           -5.72700000000000       61.21400000000000       19.44000000000000
C           -3.53900000000000       56.09000000000000       18.34800000000000
H           -2.86500000000000       55.85100000000000       17.52600000000000
C           -8.16000000000000       55.93400000000000       25.65600000000000
H           -8.22600000000000       54.99999999999999       26.25500000000000
H           -9.17700000000000       56.20900000000000       25.30400000000000
H           -7.74800000000000       56.74400000000000       26.29600000000000
C           -6.55100000000000       53.18000000000000       24.72000000000000
H           -5.50200000000000       52.87800000000000       24.92600000000000
H           -7.00500000000000       52.44799999999999       24.01900000000000
H           -7.11700000000000       53.19200000000000       25.67599999999999
C           -8.66700000000000       60.81499999999999       23.74600000000000
H           -8.06200000000000       60.64099999999999       24.66100000000000
H           -9.67000000000000       60.35799999999999       23.88500000000000
H           -8.76800000000000       61.90899999999999       23.58400000000000
C           -7.75900000000000       62.19299999999999       20.97200000000000
H           -6.98800000000000       62.93099999999999       20.70900000000000
C           -9.03900000000000       62.49800000000000       20.81500000000000
H           -9.82200000000000       61.77000000000000       21.07400000000000
H           -9.33400000000000       63.48300000000000       20.42400000000000
C           -4.11100000000000       60.91900000000000       17.20799999999999
H           -3.04200000000000       61.19800000000000       17.32400000000000
H           -4.73800000000000       61.67000000000000       17.73300000000000
H           -4.36400000000000       60.90300000000000       16.12600000000000
C           -2.54300000000000       58.24799999999999       16.49800000000000
H           -1.77900000000000       57.46299999999999       16.59600000000000
C           -2.53200000000000       59.00700000000000       15.41300000000000
H           -1.68600000000000       58.96599999999999       14.71100000000000
H           -3.36900000000000       59.68800000000000       15.20000000000000
C           -3.04300000000000       53.06200000000000       17.73500000000000
H           -2.02200000000000       53.45099999999999       17.53300000000000
H           -3.70800000000000       53.33800000000000       16.88900000000000
H           -2.99400000000000       51.95700000000000       17.83500000000000
C           -4.20900000000000       51.54099999999999       20.36200000000000
H           -3.47400000000000       50.99199999999999       19.73500000000000
H           -5.23200000000000       51.18700000000000       20.11100000000000
H           -3.99000000000000       51.34100000000000       21.43300000000000
O           -4.11000000000000       57.67300000000000       22.75700000000000
H           -4.31900000000000       57.10099999999999       23.49600000000000
H           -3.48700000000000       58.30700000000000       22.74300000000000
C           -9.21500000000000       54.97199999999999       16.71600000000000
H           -9.58800000000000       55.73300000000000       15.99800000000000
H          -10.06100000000000       54.32100000000000       17.02300000000000
H           -8.42800000000000       54.36400000000000       16.22000000000000
N           -9.38900000000000       56.48100000000000       18.71500000000000
H          -10.35500000000000       56.70699999999999       18.58700000000000
C           -8.64400000000000       55.65500000000000       17.91500000000000
C           -8.58000000000000       56.91099999999999       19.67599999999999
H           -8.89200000000000       57.59400000000000       20.46600000000000
N           -7.35900000000000       56.38900000000000       19.52400000000000
C           -7.37800000000000       55.58199999999999       18.41800000000000
H           -6.50200000000000       55.03600000000000       18.09300000000000
78
 energy: -116.008469653682 gnorm: 0.109945353086 xtb: 6.7.1 (edcfbbe)
Fe          -5.72465651275935       56.98038103585267       20.81751803539902
N           -6.29542548979727       56.12146485971385       22.41449243985720
N           -6.63854095974071       58.66496043566613       21.43134039777700
N           -4.96226814862145       57.88059891918196       19.30496251383347
N           -4.60176770963543       55.25484639800414       20.36064447315067
C           -6.05702329983693       54.80776901937860       22.78642405656697
C           -6.60885153880422       54.55747316360193       24.09231374917157
C           -7.26387977096317       55.68270761476755       24.46756047522120
C           -7.05954344836255       56.65746857691027       23.43522929180772
C           -7.35392551892391       58.87695011440026       22.57504687163413
C           -7.93466289596006       60.20444194316273       22.57402339336608
C           -7.41503290278098       60.83997009173066       21.49135447531718
C           -6.65569875750518       59.85068342176751       20.75633121606644
C           -5.09538521497403       59.22704893002966       18.99246270695334
C           -4.29948893138955       59.54309831228549       17.83364485368915
C           -3.56202015687914       58.43708971077118       17.55285807920555
C           -3.97097453759760       57.40140014334693       18.47586093877131
C           -3.92710907702645       55.07064498933151       19.18821971023370
C           -3.60342214978519       53.66620548694549       19.01225378368487
C           -4.11710294834107       53.01774345483656       20.08081685808459
C           -4.74771128306904       54.02038811145680       20.91802679732852
C           -5.34928773102075       53.81058739554673       22.13754465105859
H           -5.28080283644968       52.83408676826335       22.60078544558436
C           -7.60180256734920       57.92571477154029       23.53734483304595
H           -8.23874791737366       58.17094978493992       24.37806161360578
C           -5.83625047898109       60.15781629268027       19.68993391092280
H           -5.74178293188923       61.20209139446994       19.41985240278592
C           -3.54361058471980       56.08993678125513       18.34549576762749
H           -2.87047827527846       55.85206138789486       17.53186861512497
C           -8.15234872367138       55.92700333729541       25.66088651426979
H           -8.22775880408193       55.01219094348713       26.25497792383549
H           -9.15576211535357       56.20408296119273       25.31447848472378
H           -7.75558542594103       56.73160852947295       26.29116862064389
C           -6.55532382943422       53.18709872041890       24.72800923325683
H           -5.51937862769027       52.88604838477187       24.92823486724524
H           -7.00185897994242       52.46040501086691       24.03934223138226
H           -7.11180627026023       53.18660239040430       25.66835353637013
C           -8.66316321509368       60.81496626120654       23.74541511384641
H           -8.07432376354555       60.64580637207116       24.65360364513141
H           -9.65513675044754       60.36603441153378       23.88277458499793
H           -8.77263514740025       61.89243965651032       23.58661278722907
C           -7.76911045945448       62.18346616141551       20.97230374059552
H           -6.98998932145094       62.90068003394603       20.71502212727973
C           -9.04356032073765       62.50412770374345       20.81745148194436
H           -9.82183356283226       61.79021591032680       21.06563037502490
H           -9.33958966580042       63.47283314433506       20.42875316504375
C           -4.11614779696179       60.91820543204280       17.21977012681358
H           -3.06000836117589       61.19600789518358       17.31744770657816
H           -4.73191883529423       61.66424159697151       17.72688090928565
H           -4.37682762040081       60.91752320862586       16.15659548072618
C           -2.55038583845247       58.25240934112306       16.49711888298650
H           -1.78888169017319       57.48410341704160       16.62271532955143
C           -2.52403771596503       59.00636122089548       15.40574170703336
H           -1.70241370623814       58.95231056018869       14.70086471947986
H           -3.33510250069464       59.68485244641050       15.18472838788314
C           -3.03908906517744       53.06826742264379       17.74364947055430
H           -2.03200559323166       53.44748152740019       17.53480439890301
H           -3.69252086677642       53.33213389061714       16.90323591835880
H           -2.99338820004783       51.97768317212881       17.83040292516415
C           -4.20222317569472       51.54412849384069       20.36154002306672
H           -3.48339792893622       50.99333597804637       19.74565381129316
H           -5.21311046608434       51.18957933912593       20.12171115864781
H           -3.99285942370407       51.33879223651226       21.41697905230738
O           -4.12848865673256       57.65473129862706       22.72396086595834
H           -4.31817988236102       57.10746615600045       23.48464479450887
H           -3.46915575411415       58.32365820647998       22.74475482790593
C           -9.21674731071676       54.97252233704637       16.71337769668351
H           -9.58725425570504       55.71834881672192       15.99941755622901
H          -10.05123554073312       54.32472482770750       17.00857789276712
H           -8.44435617784579       54.37088419645806       16.22605075636496
N           -9.37761131013343       56.47490870341682       18.70989578628592
H          -10.34886620176366       56.70464583686360       18.58061803334588
C           -8.64151445721131       55.64688426684137       17.90904585793588
C           -8.56422807282885       56.90800652703278       19.68654504381039
H           -8.87752028945860       57.58563099239391       20.46312946482435
N           -7.35148127404309       56.39480182457456       19.55875169726504
C           -7.38327951481759       55.59859007665401       18.44011472188197
H           -6.51434295757328       55.05558951165197       18.10998420590357
78
 energy: -116.031171908591 gnorm: 0.036838608146 xtb: 6.7.1 (edcfbbe)
Fe          -5.67456395878905       56.98582130966942       20.85434407424372
N           -6.32744399098783       56.09356672778165       22.42741743280927
N           -6.63724314814209       58.66853941653925       21.42504213778850
N           -4.90955123953247       57.90565673097236       19.32998010741462
N           -4.63421198197936       55.25920779461162       20.33245107363121
C           -6.05357693136500       54.80914530030643       22.81268731499607
C           -6.64219187032145       54.52949464643244       24.10218295898922
C           -7.28859651229449       55.66052680029040       24.48633181488969
C           -7.07564630701673       56.62887268205714       23.44057690494574
C           -7.38239058624365       58.86681414381842       22.54418629288936
C           -7.90778492692008       60.21543720273476       22.59122761532978
C           -7.42536067019994       60.84452800227552       21.47318623568081
C           -6.61689538773898       59.86331529967616       20.77860535538724
C           -5.07197518127735       59.22717011294454       18.98471686312562
C           -4.26254306553010       59.56378076137091       17.84138688160295
C           -3.55934224326731       58.42750624124206       17.51865450578473
C           -3.98577322145514       57.40509138057059       18.44787571803151
C           -3.92914814565702       55.06942503467768       19.18895752860000
C           -3.62426630778520       53.66586214943385       18.99635543030042
C           -4.13144153978083       53.01737666354855       20.08205441514930
C           -4.74500759823588       54.03452136957348       20.90670068677957
C           -5.35748161670300       53.82976472235077       22.12698708870113
H           -5.29153276203515       52.85227737477732       22.57928489164780
C           -7.60286627013685       57.90526656594972       23.51367743335629
H           -8.21205284187147       58.16577540534176       24.36666720708428
C           -5.83438792679983       60.15073713830633       19.67424994633116
H           -5.78028703440770       61.18819265984980       19.37826220242539
C           -3.55679081035196       56.09371598753205       18.34134586130546
H           -2.88353021678570       55.85317427247094       17.53308788846971
C           -8.15125902841733       55.91264078101483       25.67015006492595
H           -8.23237358125909       55.01491151327328       26.27239019953845
H           -9.14837090072213       56.19719789631382       25.33453336972459
H           -7.75780615998762       56.71794672472029       26.28766565393442
C           -6.56868767468680       53.18991226234814       24.74099419353649
H           -5.53655869630895       52.89925026486605       24.93414960992554
H           -7.00638543806738       52.45364693268883       24.06785354138971
H           -7.11396167174720       53.17840296559526       25.67721311336620
C           -8.65502451193288       60.80927512504968       23.73641722651773
H           -8.08988468542549       60.65033318694671       24.65390706071177
H           -9.64031786229851       60.36312609966911       23.86767263512897
H           -8.77793264084311       61.87840226809378       23.58406999871108
C           -7.77563502546316       62.16645851052853       20.97727386837285
H           -6.98490770972343       62.86067531049967       20.71617350598004
C           -9.04672519704579       62.51057121268538       20.81958313676474
H           -9.83037830988084       61.81300319739763       21.05960258647418
H           -9.34159099827420       63.47242845980365       20.43860361630579
C           -4.11652189008132       60.91749609908796       17.23611954160091
H           -3.06805464916192       61.21027323574856       17.30021822956213
H           -4.72419011399245       61.65779612088560       17.74206639675209
H           -4.40236729744334       60.92721721947804       16.18747621408300
C           -2.55745363624945       58.26391402372699       16.49587360000692
H           -1.79665351962739       57.50876860045918       16.65626912911597
C           -2.51119111661751       59.00194158397862       15.39002181260311
H           -1.70899484468687       58.92131139312675       14.67941077673798
H           -3.29447927738934       59.69351428720870       15.15764583250519
C           -3.03990301901541       53.07832017700019       17.75538951678849
H           -2.04060137059499       53.45577051604304       17.54901212634995
H           -3.67607247459426       53.32844007289140       16.90593508002256
H           -2.98879497354117       51.99540036826907       17.83265197073729
C           -4.19861854681317       51.55396691586897       20.36087566630825
H           -3.48673848629346       51.00233389556171       19.75301416716458
H           -5.19993728404089       51.18552130476022       20.13199136409609
H           -3.99285467278937       51.34339595513010       21.40711330936738
O           -4.12369380471387       57.62331281793528       22.65261846760747
H           -4.32024896024471       57.13210173570324       23.45468762605647
H           -3.47712059782388       58.32913434806706       22.74220979502530
C           -9.21183753103653       54.97391408835191       16.71491734313526
H           -9.58318884617361       55.71018110637786       16.00343499657487
H          -10.04128590632268       54.32828326984537       17.00063395725091
H           -8.45154661125802       54.37345465268642       16.22936651149059
N           -9.36503951219104       56.47288660208572       18.71166173752954
H          -10.33769018464697       56.70601231719502       18.58097190665275
C           -8.63238891273487       55.64176313183322       17.90946532513734
C           -8.55174635284851       56.90595649786452       19.70014708037152
H           -8.86694360963940       57.57938406109085       20.46891297059481
N           -7.34602312282120       56.40554464516677       19.58221106281956
C           -7.38274641531540       55.61178795883001       18.46415567873168
H           -6.51838807360167       55.07315438914105       18.13078355822095
78
 energy: -116.038884116315 gnorm: 0.043765494987 xtb: 6.7.1 (edcfbbe)
Fe          -5.64908080763832       56.98740438491751       20.87374359828040
N           -6.35569517164905       56.06882832841865       22.43385550453771
N           -6.61904167508698       58.67255989955416       21.42962746308637
N           -4.86208442193272       57.92557020076332       19.34850986277154
N           -4.65899850561524       55.26574390794769       20.31709546218633
C           -6.07198226871968       54.79551217270884       22.82345388504193
C           -6.67513637414158       54.50704222516482       24.10623955232849
C           -7.32052624745979       55.63855953342948       24.49068740290033
C           -7.10141054308368       56.60637792199735       23.44061082254380
C           -7.38315741627120       58.85966456754797       22.53739481240785
C           -7.89614103318564       60.20648245125061       22.59126232940630
C           -7.42489565359958       60.83571040144293       21.46858065399490
C           -6.59480779951617       59.86487800746038       20.78643901459862
C           -5.03864930788902       59.23566165375508       18.99595814832958
C           -4.24122776350987       59.57746849520515       17.84933036952082
C           -3.55325042492576       58.43545372988948       17.50480479778900
C           -3.97554562588653       57.41543621976813       18.44019313147031
C           -3.94732892137556       55.07619394974589       19.17994095999022
C           -3.64897118882505       53.67338227910871       18.98655463805189
C           -4.15332196080801       53.02573714634103       20.07639205154150
C           -4.76130953118818       54.04539458817038       20.89861113678619
C           -5.37060891190136       53.83477313772210       22.12031102223982
H           -5.30447203857969       52.85187397465405       22.55861309081281
C           -7.60612523917174       57.89157983799052       23.50119506668016
H           -8.20007284035361       58.16330261613932       24.36013932845910
C           -5.83375125689985       60.14842585393506       19.66710190245427
H           -5.83692698484230       61.17800004014134       19.32710788469951
C           -3.56563162321526       56.09971779898074       18.33300656953350
H           -2.90312823256567       55.85065540739619       17.51840609954875
C           -8.16068088502293       55.89880638624739       25.68833423226834
H           -8.23931276388212       55.00874671428816       26.30351917391675
H           -9.16158076259368       56.18979733075798       25.37044616920656
H           -7.75287675402027       56.70716632660886       26.29340577407349
C           -6.58452787105056       53.17869801119519       24.76410771272625
H           -5.54672716386495       52.90600088083929       24.95302009778702
H           -7.01662418159011       52.42320311497266       24.10762397102855
H           -7.12278290269433       53.16852293122964       25.70532565132372
C           -8.65727657808121       60.79851602903213       23.72559691657934
H           -8.10779343821718       60.64983120289061       24.65608595244183
H           -9.64037836189065       60.34503498934152       23.84421776169137
H           -8.78836436593763       61.86683329316154       23.57098342716687
C           -7.77666925291458       62.15459925426551       20.97765618290671
H           -6.97480726171411       62.83090368160494       20.70590543100913
C           -9.04413573146132       62.52160761591558       20.82685198369727
H           -9.84124672022342       61.83756408881667       21.06374791785478
H           -9.33152417260440       63.48698096754437       20.45071304676966
C           -4.11897118217620       60.93129106787757       17.24688338786885
H           -3.07006747897485       61.23739085753165       17.26831221613420
H           -4.71248634030227       61.66535175989597       17.78000948896054
H           -4.44976643918017       60.94634155526199       16.20927615645215
C           -2.55236102201440       58.27232233162350       16.48523409376055
H           -1.79269881381095       57.52249857432152       16.67544104448509
C           -2.48605514573772       58.99021099562977       15.36517988501960
H           -1.69208693889254       58.87012954006330       14.64931008590110
H           -3.24922513684086       59.69895426442894       15.11106627965009
C           -3.03720788448735       53.08926055367124       17.75998432746938
H           -2.03769258516680       53.47666503780938       17.57258723832482
H           -3.65691289211960       53.32978860251588       16.89476805688969
H           -2.97730157380262       52.00706832363199       17.83910454592706
C           -4.19863136770123       51.56358354537890       20.36246524464520
H           -3.48230666100707       51.01836434973791       19.75418120637826
H           -5.19522405641263       51.17652602509860       20.14231941569465
H           -3.98576431572559       51.35709399602685       21.40832173737665
O           -4.05515439889056       57.55279409420839       22.54349210175992
H           -4.34103684147377       57.18162578726550       23.40970045798419
H           -3.50374050618080       58.35237626041943       22.71370931878803
C           -9.19985511604859       54.97776732650114       16.72404734258051
H           -9.57245147474329       55.71293598383384       16.01226323511084
H          -10.03055596095128       54.33150909574785       17.00486199338505
H           -8.44353480630308       54.37510159460432       16.23498097375428
N           -9.35533840698555       56.47538637269122       18.72166649138854
H          -10.32641072430991       56.71052181025637       18.58738137159845
C           -8.61925734832610       55.64327379167372       17.91992338277131
C           -8.54570476778057       56.90862021032690       19.71494443769415
H           -8.86346284934455       57.58013488207613       20.48377389360563
N           -7.34232866637100       56.41010800186957       19.60015556118138
C           -7.37338265669419       55.61989766724249       18.48382338488477
H           -6.50743670364383       55.08590219051968       18.15212367813550
78
 energy: -116.042761966216 gnorm: 0.030886997206 xtb: 6.7.1 (edcfbbe)
Fe          -5.63030829661490       56.98494290486389       20.88720331289373
N           -6.38048643243626       56.04457317795203       22.44425104819224
N           -6.59368855891063       58.67465120442803       21.43829751632233
N           -4.81484774025745       57.94542337430008       19.36165372261028
N           -4.68506301957267       55.27624771119740       20.30618573184703
C           -6.09976425721589       54.77552261879197       22.83283648125513
C           -6.71124381844840       54.48323296885423       24.11125868908887
C           -7.35793188656480       55.61400963823725       24.49398783088596
C           -7.13165863133888       56.58345459723225       23.44299687774663
C           -7.37603162215264       58.85159513514645       22.53754255038639
C           -7.88888815059810       60.19133417367807       22.58779986034622
C           -7.42592017510904       60.82117918572241       21.46501366561409
C           -6.57802976780308       59.86193214588344       20.79016307143212
C           -5.00402824480455       59.24748624270669       19.00939849199913
C           -4.21966199550768       59.59320741372994       17.85692863665593
C           -3.54238522742844       58.45257126629436       17.49732175633117
C           -3.95689835389317       57.43094449202456       18.43775665043186
C           -3.97161565227706       55.08806738095801       19.16974055707090
C           -3.67565324050402       53.68573637481072       18.97924819083605
C           -4.17741157405314       53.03922123825375       20.06982112141269
C           -4.78643465567197       54.05820782915443       20.89078555986947
C           -5.39119284953284       53.83478144128806       22.11248959382787
H           -5.32106912959013       52.84478598931902       22.53432707044963
C           -7.61126802866586       57.87796672780706       23.49268839520155
H           -8.19687268182954       58.15999400568918       24.35303499456070
C           -5.83904476320502       60.14479713261483       19.65846889343497
H           -5.90486240777936       61.16232142841772       19.27289261379558
C           -3.57414652009087       56.10816227533893       18.32390295467437
H           -2.92792644367238       55.84646838832743       17.49871208019545
C           -8.17540649422490       55.88304752183900       25.70985141340702
H           -8.24638675980110       54.99872961355762       26.33810377389002
H           -9.18318375185541       56.18054358671316       25.41607807932898
H           -7.74581360299237       56.69357954629365       26.30098677962596
C           -6.60338851457925       53.16346870461926       24.79224630618003
H           -5.55804742308571       52.91301964466330       24.97836805061860
H           -7.02955507924990       52.38423411321670       24.15638660746253
H           -7.13439680570585       53.16141519666989       25.74038095952866
C           -8.66710149263109       60.78405168142712       23.71205235068234
H           -8.13262732310624       60.64679284631956       24.65581235610830
H           -9.64794191400015       60.31942020083966       23.81508505510737
H           -8.80628412152386       61.85192459790397       23.55072581947844
C           -7.77865907756437       62.14112239237843       20.97405797165822
H           -6.96456611049625       62.79821367921382       20.68883539322679
C           -9.04062040730113       62.53434448040257       20.83515693226578
H           -9.85538041359563       61.86939288159574       21.07726609896287
H           -9.31565099503081       63.50649703339539       20.46339652785360
C           -4.11896819117641       60.94920711806387       17.25196326955710
H           -3.07005500322652       61.26573161203842       17.22482738130152
H           -4.69086299456589       61.68033708214048       17.81908991040432
H           -4.50082397511107       60.96131734182696       16.22725122264877
C           -2.54306170555685       58.28209439880863       16.47228141281435
H           -1.78894372804368       57.53256865217163       16.68830661548118
C           -2.45981790599389       58.97500826726379       15.33747307046355
H           -1.66956617438884       58.81443920792717       14.62089536149212
H           -3.19786402765055       59.71054376987948       15.06459979478257
C           -3.03159881427202       53.10442456941637       17.76586574437162
H           -2.03062405957178       53.50643756047441       17.60607603051430
H           -3.63062263413186       53.33468470652231       16.88100651536293
H           -2.95910255961078       52.02215395741887       17.84934210310760
C           -4.19738810363452       51.57677586205828       20.36549422424332
H           -3.47348156787511       51.04106394001167       19.75509785745501
H           -5.18873588658967       51.16639208815288       20.15603897492777
H           -3.97211130945567       51.37943481879653       21.41235609634958
O           -4.09844252629786       57.60284731860991       22.49017458114303
H           -4.28453688503114       57.16776224508819       23.31095037566262
H           -3.47807731490288       58.30873163608936       22.63202329947654
C           -9.18244534054300       54.98143510162320       16.73671415778423