72
 energy: -105.900283770435 gnorm: 0.232427431549 xtb: 6.7.1 (edcfbbe)
Fe           3.35400000000000       -3.09500000000000       15.07000000000000
N            1.96400000000000       -3.18300000000000       16.56000000000000
N            4.21100000000000       -4.86100000000000       15.67000000000000
N            4.97400000000000       -2.85100000000000       13.78600000000000
N            2.69100000000000       -1.23500000000000       14.62200000000000
C            0.87200000000000       -2.35100000000000       16.74900000000000
C            0.08200000000000       -2.87200000000000       17.84900000000000
C            0.68500000000000       -3.98400000000000       18.28800000000000
C            1.87800000000000       -4.21300000000000       17.48200000000000
C            3.78600000000000       -5.61800000000000       16.73500000000000
C            4.57400000000000       -6.84700000000000       16.74300000000000
C            5.45500000000000       -6.78300000000000       15.71800000000000
C            5.22400000000000       -5.53400000000000       15.02200000000000
C            5.80000000000000       -3.85500000000000       13.32900000000000
C            6.52200000000000       -3.36100000000000       12.16900000000000
C            6.14200000000000       -2.08000000000000       11.95900000000000
C            5.16300000000000       -1.74700000000000       12.97400000000000
C            3.35900000000000       -0.30500000000000       13.84400000000000
C            2.61400000000000        0.93800000000000       13.91500000000000
C            1.55400000000000        0.75100000000000       14.70000000000000
C            1.55800000000000       -0.63800000000000       15.15000000000000
C            0.63500000000000       -1.21500000000000       16.00500000000000
H           -0.34200000000000       -0.74100000000000       16.09600000000000
C            2.77300000000000       -5.26200000000000       17.61499999999999
H            2.67000000000000       -5.87600000000000       18.51000000000000
C            5.90600000000000       -5.09700000000000       13.90200000000000
H            6.59000000000000       -5.80300000000000       13.43100000000000
C            4.51700000000000       -0.53200000000000       13.11800000000000
H            4.96000000000000        0.32600000000000       12.61300000000000
C            0.22000000000000       -4.90800000000000       19.44800000000000
H           -0.86100000000000       -4.74100000000000       19.64399999999999
H            0.79400000000000       -4.67200000000000       20.36900000000000
H            0.37500000000000       -5.97100000000000       19.16600000000000
C           -1.23000000000000       -2.24500000000000       18.38600000000000
H           -2.10100000000000       -2.80000000000000       17.97600000000000
H           -1.29700000000000       -1.18300000000000       18.06700000000000
H           -1.25100000000000       -2.31000000000000       19.49500000000000
C            4.43900000000000       -7.98500000000000       17.78300000000000
H            3.82900000000000       -8.80900000000000       17.35400000000000
H            3.93500000000000       -7.60100000000000       18.69600000000000
H            5.44500000000000       -8.37800000000000       18.04200000000000
C            6.52300000000000       -7.78900000000000       15.23100000000000
H            7.34900000000000       -7.41400000000000       14.61000000000000
C            6.53200000000000       -9.10700000000000       15.50500000000000
H            5.73800000000000       -9.55500000000000       16.12100000000000
H            7.33300000000000       -9.75300000000000       15.11600000000000
C            7.54500000000000       -4.19000000000000       11.37100000000000
H            7.06400000000000       -4.58900000000000       10.45200000000000
H            7.90200000000000       -5.04100000000000       11.98900000000000
H            8.40300000000000       -3.54700000000000       11.07800000000000
C            6.56600000000000       -1.07200000000000       10.85900000000000
H            6.23500000000000       -0.02800000000000       10.95200000000000
C            7.31200000000000       -1.36500000000000        9.78700000000000
H            7.68000000000000       -2.38900000000000        9.62600000000000
H            7.56600000000000       -0.58500000000000        9.05400000000000
C            2.98700000000000        2.27000000000000       13.20700000000000
H            3.36600000000000        2.05300000000000       12.18500000000000
H            3.78100000000000        2.79200000000000       13.78300000000000
H            2.08800000000000        2.91800000000000       13.12800000000000
C            0.48000000000000        1.79400000000000       15.05700000000000
H           -0.24800000000000        1.87800000000000       14.22200000000000
H            0.95700000000000        2.78400000000000       15.21900000000000
H           -0.06000000000000        1.47800000000000       15.97500000000000
O            4.89600000000000       -2.04100000000000       16.44100000000000
H            5.72200000000000       -2.04100000000000       15.95800000000000
H            4.76100000000000       -1.70200000000000       17.25200000000000
C            0.67200000000000       -4.51900000000000       13.84600000000000
H            0.26300000000000       -5.41600000000000       13.33400000000000
H           -0.01100000000000       -3.66700000000000       13.64400000000000
H            0.68400000000000       -4.72300000000000       14.93800000000000
S            2.35100000000000       -4.13100000000000       13.26000000000000
H            2.91800000000000       -5.18400000000000       13.83000000000000
72
 energy: -105.945715567096 gnorm: 0.096666764480 xtb: 6.7.1 (edcfbbe)
Fe           3.41612128129630       -3.04672246433298       15.11099304072039
N            1.95762294955368       -3.20341597646437       16.54108492760686
N            4.20297439373706       -4.86296478287364       15.65776731544738
N            4.95540244574823       -2.84823695648479       13.75569580420611
N            2.69538791403422       -1.23092968643014       14.62757046611592
C            0.87702144506053       -2.37638936030901       16.73530758754108
C            0.07459065249263       -2.87696163897236       17.83995304981770
C            0.69176420883841       -3.99486639669400       18.29717584083645
C            1.88126352719391       -4.20495870403627       17.47895402915292
C            3.79968412309039       -5.62012758745567       16.72447502751227
C            4.58605774997603       -6.84991187199297       16.75444250673563
C            5.46263819479931       -6.79811643816579       15.70471107870803
C            5.21833104434324       -5.53454463751681       15.02572843870118
C            5.78828844201309       -3.83999851906929       13.30947150675344
C            6.53325955809101       -3.35632674937901       12.16006719582317
C            6.15387805576299       -2.05829881257034       11.94837992627443
C            5.16287054833931       -1.74874769471791       12.96781114490156
C            3.35306978657307       -0.30248527574843       13.85948262342266
C            2.61898650330622        0.95050846652341       13.90923901375417
C            1.53248556871762        0.75089656207771       14.68881097086256
C            1.57056489475142       -0.63536403178424       15.13717930472101
C            0.64999169153432       -1.22411952350795       15.99749297995499
H           -0.31043790604029       -0.72919874958633       16.11942255539384
C            2.77810963836306       -5.26124691580279       17.60474393528642
H            2.65556863367938       -5.88605753331003       18.48482285350225
C            5.89969030807163       -5.08856434476998       13.90029798767652
H            6.59021235110972       -5.78901075798021       13.44331664168549
C            4.50756157027993       -0.53358565929890       13.12492403181741
H            4.93285958975556        0.31699454967077       12.60246351992528
C            0.22909838886715       -4.89646277865661       19.43057565283847
H           -0.83606066944777       -4.74035558468240       19.63321052034262
H            0.78812512196884       -4.67702858412618       20.34764844645186
H            0.37762737649878       -5.94914499387979       19.16943269378586
C           -1.20816938080529       -2.25515118623183       18.37138859798541
H           -2.08098759534902       -2.79264224183074       17.97945267701091
H           -1.29023165083369       -1.20606668661043       18.07179974397547
H           -1.24220897981014       -2.30902384434463       19.46556543856187
C            4.43948772254143       -7.96458104731072       17.77238730814189
H            3.83792280988722       -8.78567168694301       17.36082009120963
H            3.94645734558960       -7.60426157301822       18.68034047696104
H            5.42518136103377       -8.36233814404206       18.03709382227043
C            6.49902506507655       -7.77962785007206       15.24994766510476
H            7.31034399019089       -7.39236374743146       14.63246721480242
C            6.52097854419620       -9.08594945548973       15.51459744125953
H            5.74764080601371       -9.55601397632113       16.10737425312249
H            7.30994760855111       -9.72701061540969       15.12816915835817
C            7.53424214309921       -4.18220073263496       11.38368678001768
H            7.07180049925166       -4.58089316962428       10.47152604251271
H            7.89547564911367       -5.02448888977025       11.98074679588548
H            8.39199651900919       -3.56459472105632       11.09763568118939
C            6.56879370640946       -1.09454963452413       10.87912346792891
H            6.22599737847968       -0.06526614783588       10.98178565960896
C            7.30424640665659       -1.37275211198500        9.80414957201889
H            7.67053995831211       -2.37068140695508        9.61032791930344
H            7.55546778282635       -0.60351314026068        9.07846156073063
C            2.98898185429998        2.24870162929421       13.21200833129254
H            3.36258912558027        2.05135369759569       12.20219656559001
H            3.76664719184822        2.77940430623202       13.77373109097605
H            2.10985030243030        2.89645408175924       13.13210579054622
C            0.48372937132925        1.77804928423647       15.05278351978057
H           -0.24047638458524        1.87537819074204       14.23515941262770
H            0.94664047878528        2.75721885245703       15.21836466569909
H           -0.05121457810463        1.48388666207907       15.95988959261038
O            4.85891046741538       -1.93846668498488       16.39400310252103
H            5.73413657283283       -2.16786394307618       15.99695126270618
H            4.79452687292011       -1.66810956424528       17.29796463979321
C            0.65146193488113       -4.53321604195841       13.85381741450054
H            0.26777491485054       -5.41373746857143       13.32881456159619
H            0.00478982013526       -3.67614280097094       13.64667560998421
H            0.67955802324818       -4.71901460644666       14.93065500205514
S            2.33070061508642       -4.12536539290235       13.28985788386468
H            2.90583634524766       -5.21114475921014       13.80352156762009
72
 energy: -105.958464513672 gnorm: 0.070520050364 xtb: 6.7.1 (edcfbbe)
Fe           3.45189783723719       -3.01742666894283       15.11663050091884
N            1.96890299842328       -3.21623944841302       16.52869274410644
N            4.21753374584734       -4.84380070962251       15.66407143668774
N            4.93433171760843       -2.84128143419268       13.73313137952576
N            2.71024078538024       -1.22678366283146       14.64263812985279
C            0.89471409209819       -2.40258807644111       16.71813792181012
C            0.07650710006579       -2.88396935030466       17.82145207586049
C            0.70667000061711       -4.00494180818045       18.29830365072495
C            1.89147493490170       -4.19640970591401       17.47050952191025
C            3.81930786345290       -5.61267003958110       16.71731011214296
C            4.59270879308605       -6.84457841905125       16.76332001588680
C            5.46496836754495       -6.80497906272942       15.69056868691708
C            5.21489142789782       -5.52547267229086       15.03245089671461
C            5.77052279753987       -3.82233885205882       13.29428212437081
C            6.53773826910200       -3.35430958621511       12.15714281152203
C            6.16046406661028       -2.04015331655902       11.94176329613534
C            5.15803259158842       -1.75139649714844       12.96456366120781
C            3.35172539881763       -0.30222997325391       13.88131603230877
C            2.62616432048940        0.95767829101075       13.90570189825726
C            1.51584223217226        0.74512017931021       14.67848481025134
C            1.59265350827224       -0.63447761398230       15.12911165761627
C            0.67694111439645       -1.23274551085490       15.99384869298669
H           -0.26071104579084       -0.71052499941798       16.15867661650121
C            2.78211149550490       -5.26332076012062       17.58928769809801
H            2.63008930672774       -5.90739886292741       18.44649773851242
C            5.88986274226148       -5.07522650960358       13.89986871889215
H            6.58994367352262       -5.76786681364337       13.45787145284366
C            4.49396672312420       -0.53714503057144       13.12792240852600
H            4.89353008860817        0.30489746553753       12.57971745412457
C            0.24698530370734       -4.88125269558927       19.40703223689210
H           -0.80572056874007       -4.72944809745709       19.61233616416103
H            0.79251207159120       -4.67779736588683       20.32397730846765
H            0.38759675964524       -5.92763055645757       19.16557077651157
C           -1.17642591084400       -2.26930679255513       18.34764050655499
H           -2.05432291860638       -2.79037802834953       17.97273398778885
H           -1.26888491852983       -1.22927906293145       18.06602452434677
H           -1.21650060791262       -2.31585485975048       19.43086272641526
C            4.43923625836277       -7.93521589653601       17.75923769653616
H            3.84321998034952       -8.75293885516380       17.36019761383331
H            3.95548177801899       -7.59396848731640       18.66403832016665
H            5.40865134015212       -8.34044430642360       18.02759875870296
C            6.46016037737596       -7.75866279800275       15.26802308845608
H            7.25959091415448       -7.35611512116826       14.65804011366336
C            6.49726497744798       -9.05929150564100       15.52350263365789
H            5.74655907108082       -9.55926227779067       16.09596954022549
H            7.28380371154108       -9.69002887434015       15.14724397926607
C            7.52033789737821       -4.17235252881365       11.40223716392799
H            7.07392136637762       -4.56950810136985       10.49398452551906
H            7.88030503311993       -5.01009594523340       11.98314022381218
H            8.38023080886212       -3.57693809235231       11.12148648294124
C            6.56687455203380       -1.12548997436504       10.91228487908731
H            6.21591630626022       -0.10904077873575       11.03011313697238
C            7.29193427867861       -1.38588214956227        9.82809761050004
H            7.66101171970329       -2.35886119512744        9.59300883367166
H            7.53838781524610       -0.62165430513172        9.11304420055820
C            2.99327249387979        2.22076609800487       13.21881902143480
H            3.36392706896719        2.03848783677685       12.21892753987533
H            3.75991425887947        2.75893290892281       13.76775953887762
H            2.13057542749277        2.87029646793405       13.13864257221122
C            0.48824262262282        1.75503399787178       15.04500997907629
H           -0.23740388394149        1.86864837802655       14.24485559559296
H            0.94351563785568        2.72438668617333       15.21410211635704
H           -0.04087728849223        1.48039408927098       15.94566873226198
O            4.85290665081738       -1.96209270834027       16.38377974965455
H            5.70483075724199       -2.05026959040987       16.00080204537948
H            4.82133994913485       -1.78055267467494       17.35803595742119
C            0.62655614717312       -4.54544054945336       13.86599929188425
H            0.26928787374751       -5.41058633719546       13.32690995608534
H            0.01229960457403       -3.68440159219565       13.65091070693951
H            0.66391824291304       -4.71776290270371       14.92916831645684
S            2.30276425185535       -4.12433347535429       13.30028964948692
H            2.88677584171662       -5.24022853160868       13.75961805315511
72
 energy: -105.965383557022 gnorm: 0.036891188892 xtb: 6.7.1 (edcfbbe)
Fe           3.44901206659163       -3.02013964064498       15.10563101361415
N            1.98752628772938       -3.21579653458600       16.52448619871230
N            4.22871329073413       -4.82320373016995       15.67352220317904
N            4.92357993962078       -2.83698644195466       13.73537536786600
N            2.72524743434528       -1.22736420814564       14.65115371067553
C            0.91252961103761       -2.40471224661666       16.70969793486027
C            0.09374584087916       -2.89084915919281       17.80367708839716
C            0.71986448729870       -4.00743085546657       18.28010127955800
C            1.90204351337899       -4.20042408979862       17.45913889715847
C            3.82288139458635       -5.59787982069425       16.71869656985310
C            4.58469353730101       -6.82736183661521       16.75931040586759
C            5.45373614772863       -6.78584705314969       15.69124863680579
C            5.21406354701498       -5.50933595025480       15.03354244578518
C            5.75875424721763       -3.82020738206056       13.29857329640999
C            6.52700535466286       -3.35746520463266       12.16775638166253
C            6.15244401390974       -2.04749574907910       11.95058534934608
C            5.14833481451401       -1.75002209613018       12.96331536423057
C            3.35682056064594       -0.30471617009545       13.88112786106828
C            2.62587546230499        0.94727624144064       13.90469820406461
C            1.52161338312136        0.73474332538534       14.67669504028453
C            1.60431616740021       -0.63830143872325       15.13508921954265
C            0.69548757821785       -1.23064195522348       16.00197936157030
H           -0.22757727761585       -0.69244558463681       16.19515739363167
C            2.78161212635442       -5.26764938350795       17.58191523397402
H            2.60624442248527       -5.93475535966513       18.41875063794236
C            5.88499778120724       -5.06652901194061       13.90229769202561
H            6.59442989219035       -5.75359307646867       13.46545650012300
C            4.48685515079898       -0.53715794041313       13.11504984701374
H            4.86592393261181        0.30102195689529       12.54452153928678
C            0.26326980026296       -4.88113881102467       19.39727152514417
H           -0.79325982013316       -4.71787648364898       19.59672995763428
H            0.81436850534351       -4.67236660571375       20.31493046276010
H            0.40288673907942       -5.93221700715699       19.15433314724728
C           -1.16038444213083       -2.27581329927255       18.32954547639356
H           -2.04014649393680       -2.79961527541217       17.95158087032646
H           -1.24440595262249       -1.23112085626674       18.04512812069812
H           -1.18791296527084       -2.32906121643284       19.41690760906037
C            4.43690649496225       -7.91833140879775       17.75975499705273
H            3.83540330851550       -8.73369580489963       17.35432943073122
H            3.95399565731671       -7.56835409762535       18.66755306829483
H            5.41278862260816       -8.32446457788153       18.02183131502381
C            6.44746607258309       -7.74157379212119       15.26909255838912
H            7.24651156279019       -7.33235801091372       14.66174436040447
C            6.48579759715904       -9.04631113610723       15.52912382486485
H            5.72555225644036       -9.55670141591970       16.09107038554233
H            7.28333377214840       -9.66880406445970       15.15826594628795
C            7.51887339429724       -4.17297418300657       11.41678759933604
H            7.07256303513997       -4.56372149365120       10.50094226363446
H            7.86638283844556       -5.01721103972971       12.00504186623854
H            8.38514951676862       -3.57346264480106       11.14506598639887
C            6.56519527346603       -1.12681504749170       10.92620742556994
H            6.21713668094477       -0.10961689790528       11.05852011633527
C            7.28556130223781       -1.38392816039738        9.83457527066488
H            7.64432594042489       -2.36297474410726        9.57829743328493
H            7.52662091198480       -0.60859471604016        9.12726194869049
C            2.99960509546143        2.21224337428489       13.21617718622629
H            3.37331023011347        2.02075206092929       12.21375249578186
H            3.77297139950263        2.74515842877950       13.76997226304922
H            2.13250083388111        2.86340822309719       13.13737228595574
C            0.48417970297156        1.74156798956755       15.04019492277338
H           -0.24769510860061        1.85535668458591       14.23963585107612
H            0.94698630950698        2.71226909094744       15.20840610000500
H           -0.04254836252364        1.46174869215716       15.94699565435275
O            4.83532365264620       -1.91413961897330       16.38759891614161
H            5.75161210296680       -2.12582063008919       16.09741028778489
H            4.80280348820925       -1.76980912478029       17.35575692418748
C            0.61153972185322       -4.55045425190433       13.87456527767589
H            0.25532604722868       -5.41508482440103       13.32551116464546
H           -0.00478099598812       -3.68561008834627       13.65985293162796
H            0.63901358840838       -4.73286443198701       14.94093411500982
S            2.28944936316441       -4.12830068449450       13.30530922827934
H            2.85864861410013       -5.28404770244302       13.70011075490863
72
 energy: -105.967096349449 gnorm: 0.047344253611 xtb: 6.7.1 (edcfbbe)
Fe           3.46196692589626       -3.01132750894004       15.11488625018484
N            2.00600658342889       -3.21924686699494       16.51417263802464
N            4.22769780566922       -4.80681403708701       15.67216457347110
N            4.90461032118784       -2.83358024841174       13.73483773028938
N            2.73753597476405       -1.23250858416505       14.65188755484800
C            0.93392599836109       -2.40618780472189       16.70101717549796
C            0.11350351295235       -2.89822935535026       17.78395737703358
C            0.73306985978511       -4.01254727601734       18.25817841617524
C            1.91187931641035       -4.20711866958165       17.44447034365443
C            3.82159357714470       -5.58449395068708       16.71468111178730
C            4.57498544655328       -6.80925413101803       16.75258279281062
C            5.44084182877736       -6.76622115510679       15.68909528471005
C            5.21067890490338       -5.49253887429971       15.03276205192162
C            5.74470998994736       -3.81655256678578       13.30422099153648
C            6.51535135149619       -3.35931173044596       12.18044203171748
C            6.14298907096157       -2.05440522122203       11.95905010820781
C            5.13426839102423       -1.74933430933700       12.95871539952611
C            3.35945309132074       -0.30949145130220       13.87495474744006
C            2.62510850260600        0.93576181760593       13.90047276017164
C            1.52850901840428        0.72407124151818       14.67407256762498
C            1.61746086873675       -0.64217232987407       15.14091792481641
C            0.71948667804451       -1.22403734285484       16.01630746988264
H           -0.18640564430365       -0.67226567990845       16.23886321288584
C            2.77686501865766       -5.27684510220989       17.57054434984978
H            2.57873027081520       -5.96692765813148       18.38343533490452
C            5.88158903926249       -5.05574594939342       13.90632166610708
H            6.59865389742592       -5.73668368641927       13.47265681058698
C            4.47570963783396       -0.53831141943320       13.09430773731688
H            4.83229716580873        0.29500712831538       12.50270078684178
C            0.28078629167438       -4.88458760440872       19.38337103701629
H           -0.77699313791708       -4.71208501302890       19.58299410760482
H            0.84130420863306       -4.66959910122354       20.29711233841389
H            0.41840157344537       -5.93907848110468       19.14068624496239
C           -1.14212105775246       -2.28179201319057       18.30769476220973
H           -2.02149957183439       -2.80663495102653       17.92431472987749
H           -1.21863013848951       -1.23414524068203       18.02129137132332
H           -1.16202876819166       -2.34125284640844       19.39733978753654
C            4.43187185772635       -7.89848955600573       17.76005130072269
H            3.82343978500445       -8.71207920200695       17.35506929419445
H            3.95474758902485       -7.53892302968347       18.67113870282257
H            5.41298929271168       -8.30440210093993       18.01404283199924
C            6.43788908905771       -7.72474803486568       15.26911467483719
H            7.23926902910820       -7.31119759264823       14.66718409990712
C            6.47214013218630       -9.03078393716035       15.53316777628016
H            5.70197968443724       -9.54596836732093       16.08387298308949
H            7.27993088574600       -9.64608126997945       15.16941225184486
C            7.51762765396223       -4.17331517112346       11.43586689331706
H            7.07757266762185       -4.55665988297254       10.51060786780169
H            7.85308633501965       -5.02406394647342       12.02817110841332
H            8.38903801313450       -3.56919864626494       11.17856263549563
C            6.56420577145080       -1.12433902065228       10.93823492799048
H            6.23211728441229       -0.10345788697403       11.09135913222043
C            7.27435694345259       -1.38049952635850        9.83898982147791
H            7.62276112438379       -2.36312667843259        9.56642181017371
H            7.51991696307295       -0.59116050172284        9.14640599094185
C            3.00908714436447        2.20232093519531       13.21082088155360
H            3.38421103152348        2.00302005486403       12.20672755392158
H            3.79050222527623        2.72518044187829       13.76900814745665
H            2.14329943554320        2.85969837702132       13.13283580395521
C            0.48086474198489        1.72628462989102       15.03628971853325
H           -0.25551326238081        1.83424846310689       14.23556795115800
H            0.94420102291540        2.70017325746565       15.20260077788429
H           -0.04347513326774        1.44053947294061       15.94698238255511
O            4.85966202164877       -1.98813218591827       16.47047925030949
H            5.74548845371797       -2.12993663698269       16.14629356032458
H            4.81214038538352       -1.71568061586474       17.35839024899667
C            0.59132576095662       -4.55570064050879       13.88495366562023
H            0.23580906652756       -5.41697162436515       13.32334971805677
H           -0.02676719751934       -3.68718106264665       13.67368126818057
H            0.60412394027097       -4.75250754776923       14.95280952433887
S            2.27696750125945       -4.12738369542300       13.33194625887526
H            2.82384095683892       -5.33098929796674       13.64210760598017
72
 energy: -105.969872482446 gnorm: 0.015900956746 xtb: 6.7.1 (edcfbbe)
Fe           3.45576668089058       -3.01920472592507       15.10666022382468
N            2.01819687351209       -3.22021228172573       16.50835059788902
N            4.22404658739925       -4.79916553982398       15.66811761778232
N            4.89435778105414       -2.82956271240539       13.73774819447817
N            2.74513323345937       -1.23606935155553       14.65262699555123
C            0.94946737016026       -2.40441832118745       16.70065964726468
C            0.12421666435023       -2.89919006977344       17.77681463836228
C            0.73893481791247       -4.01637692860915       18.24810527635142
C            1.91628276704739       -4.20996169706512       17.43617068316833
C            3.82044857839416       -5.57940740599531       16.70952886250235
C            4.57379049588263       -6.80145157354280       16.74944833109184
C            5.44011019161483       -6.75807864525198       15.68700947698972
C            5.21055741927329       -5.48367759666369       15.03418379369463
C            5.73943362995951       -3.81034555417740       13.30992905977310
C            6.51097715487214       -3.35729315508271       12.18665310066948
C            6.13799180773971       -2.05436321551275       11.95975839886499
C            5.12591293852901       -1.74959726235295       12.95470976836800
C            3.35897279142638       -0.31246755840092       13.86932863149848
C            2.62525579022527        0.93232962965774       13.89453680232576