87
 energy: -124.476001642123 gnorm: 0.296788927289 xtb: 6.7.1 (edcfbbe)
Fe         -20.40900000000000       21.64000000000000      -51.20200000000000
N          -21.30100000000000       22.05000000000000      -52.95099999999999
N          -19.50200000000000       23.41500000000000      -51.27600000000000
N          -19.52000000000000       21.23600000000000      -49.46999999999999
N          -21.33599999999999       19.86300000000000      -51.13000000000000
C          -22.24500000000000       21.28900000000000      -53.59900000000000
C          -22.63800000000000       21.91900000000000      -54.82899999999999
C          -21.93100000000000       23.07500000000000      -54.92499999999999
C          -21.07600000000000       23.12700000000000      -53.76100000000000
C          -19.44300000000000       24.29700000000000      -52.32299999999999
C          -18.60300000000000       25.42700000000000      -52.01300000000000
C          -18.20200000000000       25.26700000000000      -50.70900000000000
C          -18.75800000000000       23.99300000000000      -50.27400000000000
C          -18.80000000000000       22.11900000000000      -48.70300000000000
C          -18.38000000000000       21.48900000000000      -47.46699999999999
C          -18.83500000000000       20.20300000000000      -47.53200000000000
C          -19.55200000000000       20.07500000000000      -48.76499999999999
C          -21.13600000000000       18.86700000000000      -50.20699999999999
C          -22.03300000000000       17.74800000000000      -50.50000000000000
C          -22.76200000000000       18.11000000000000      -51.58700000000000
C          -22.31200000000000       19.41900000000000      -51.97000000000000
C          -22.73700000000000       20.08600000000000      -53.11900000000000
H          -23.53300000000000       19.61500000000000      -53.69500000000000
C          -20.17700000000000       24.13400000000000      -53.51000000000000
H          -20.01899999999999       24.87000000000000      -54.29899999999999
C          -18.48300000000000       23.42000000000000      -49.05300000000000
H          -17.97900000000000       24.03500000000000      -48.30800000000000
C          -20.25600000000000       18.95000000000000      -49.13999999999999
H          -20.10700000000000       18.04800000000000      -48.54599999999999
C          -23.63400000000000       21.33800000000000      -55.81799999999999
H          -24.47800000000000       21.24400000000000      -55.10100000000000
H          -23.14000000000000       20.34900000000000      -55.92499999999999
H          -24.03100000000000       21.67200000000000      -56.80000000000000
C          -22.01400000000000       24.10100000000000      -56.01799999999999
H          -20.92400000000000       24.10700000000000      -56.23400000000000
H          -22.25700000000000       24.96700000000000      -55.36600000000000
H          -22.57100000000000       24.17899999999999      -56.97599999999999
C          -23.89500000000000       17.37000000000000      -52.26600000000000
H          -23.22700000000000       16.49200000000000      -52.39700000000000
H          -24.60500000000000       17.41400000000000      -53.11999999999999
H          -24.45400000000000       17.25800000000000      -51.31300000000000
C          -22.01900000000000       16.41400000000000      -49.79700000000000
H          -22.74000000000000       16.23000000000000      -48.98699999999999
C          -21.70400000000000       15.27800000000000      -50.67300000000000
H          -20.99100000000000       15.39400000000000      -51.50300000000000
H          -22.17700000000000       14.29900000000000      -50.50900000000000
C          -18.67500000000000       19.10100000000000      -46.50600000000000
H          -18.20400000000000       18.36400000000000      -47.19200000000000
H          -19.75700000000000       18.86500000000000      -46.41100000000000
H          -18.18300000000000       19.03300000000000      -45.51200000000000
C          -17.58700000000000       22.18200000000000      -46.40199999999999
H          -17.89400000000000       23.21500000000000      -46.27900000000000
C          -16.34600000000000       21.56500000000000      -45.95999999999999
H          -16.15500000000000       20.49800000000000      -46.14800000000000
H          -15.58500000000000       22.15800000000000      -45.43300000000000
C          -17.35200000000000       26.20100000000000      -49.90200000000000
H          -16.55700000000000       26.23999999999999      -50.67699999999999
H          -16.88300000000000       26.30000000000000      -48.90000000000000
H          -18.06400000000000       27.03700000000000      -50.07300000000000
C          -18.20500000000000       26.57300000000000      -52.89700000000000
H          -17.11700000000000       26.44100000000000      -52.71299999999999
H          -18.60200000000000       27.32700000000000      -52.18399999999999
H          -18.35400000000000       26.92200000000000      -53.94100000000000
C          -24.75900000000000       22.48200000000000      -47.74900000000000
H          -25.75300000000000       22.58700000000000      -48.23299999999999
H          -24.65500000000000       23.26400000000000      -46.96700000000000
H          -24.68700000000000       21.47300000000000      -47.28900000000000
N          -23.50800000000000       23.78900000000000      -49.53499999999999
H          -24.07100000000000       24.61200000000000      -49.46400000000000
C          -23.68200000000000       22.64800000000000      -48.77700000000000
C          -22.47700000000000       23.60500000000000      -50.36299999999999
H          -22.13500000000000       24.34900000000000      -51.08100000000000
N          -21.95900000000000       22.40900000000000      -50.17100000000000
C          -22.70300000000000       21.80200000000000      -49.18800000000000
H          -22.46200000000000       20.79800000000000      -48.86199999999999
C          -16.37700000000000       22.19700000000000      -51.99399999999999
H          -15.39600000000000       22.24300000000000      -51.47499999999999
H          -16.98900000000000       23.06800000000000      -51.67400000000000
H          -16.20100000000000       22.24600000000000      -53.09000000000000
C          -17.09500000000000       20.90200000000000      -51.64200000000000
H          -17.25600000000000       20.86600000000000      -50.54400000000000
H          -16.45000000000000       20.04400000000000      -51.92700000000000
S          -18.67700000000000       20.78900000000000      -52.49600000000000
C          -18.80300000000000       18.98700000000000      -52.59700000000000
H          -18.80200000000000       18.52500000000000      -51.58700000000000
H          -17.94200000000000       18.57300000000000      -53.16400000000000
H          -19.74700000000000       18.69600000000000      -53.10599999999999
87
 energy: -124.597298817764 gnorm: 0.156155437703 xtb: 6.7.1 (edcfbbe)
Fe         -20.40671642272300       21.63586106975474      -51.20523333104184
N          -21.30903921464455       22.05187409581682      -52.95614703804766
N          -19.50940498607132       23.41307690244543      -51.27359886738299
N          -19.51499928127268       21.24231274045762      -49.46063320458238
N          -21.33073561993952       19.86797497946433      -51.12627047080881
C          -22.24770759979717       21.29174498467047      -53.59759265134814
C          -22.64151051842265       21.92105274576012      -54.83742026459636
C          -21.93683091057120       23.06520222348938      -54.93454543894322
C          -21.08261322249058       23.12681520705853      -53.76323802205594
C          -19.45070270620412       24.27913392412554      -52.32680569118230
C          -18.61484267284097       25.40062442886493      -52.01366251758887
C          -18.21718422418368       25.23750058914011      -50.70860111730757
C          -18.76875890273493       23.98219566629808      -50.27553942233511
C          -18.81018122614981       22.12464854578135      -48.68951557029885
C          -18.37158958280587       21.49603659948810      -47.45589085876577
C          -18.82188809696949       20.21325089163632      -47.51898455570485
C          -19.54966290393970       20.07743446207375      -48.75813697575958
C          -21.13452223566834       18.86919430725299      -50.21248277566003
C          -22.01381549977162       17.74619192693111      -50.51139502183121
C          -22.75717264145823       18.13662681469387      -51.59301728446258
C          -22.30403495587633       19.43897035200177      -51.97084191625701
C          -22.73892626916573       20.09365411205482      -53.11632347762023
H          -23.52514324697568       19.61314925089265      -53.69038376395952
C          -20.17444470664603       24.13285221702556      -53.50892371681661
H          -20.01993959072063       24.87382751404905      -54.28714026704706
C          -18.49108904587177       23.41883007769752      -49.04783802667505
H          -17.97254421101638       24.03048646501956      -48.31778994979058
C          -20.25464245270019       18.94461545801191      -49.14285590168503
H          -20.11937257309019       18.04857266595860      -48.54571887506614
C          -23.63829858995505       21.30755590208089      -55.78455229907642
H          -24.50773071357621       21.21208712149375      -55.12317050727702
H          -23.17637334861557       20.32576236014360      -55.94395057287743
H          -23.98325660295944       21.69989556397423      -56.75580110997641
C          -21.97875217674684       24.12169586954612      -55.99503229669468
H          -20.91592562753407       24.15382051534059      -56.26170581201877
H          -22.24488013396360       25.00223081542537      -55.39635189985776
H          -22.57065263145624       24.13158932273462      -56.92531954184083
C          -23.87302344108896       17.33489270611182      -52.22680123627583
H          -23.27244397252512       16.43364517290035      -52.40167322060126
H          -24.54710440083542       17.47048995706291      -53.09231722549132
H          -24.48802513430069       17.20864735890825      -51.32652732712614
C          -22.05931136021834       16.39408519496433      -49.87554909839902
H          -22.71452781891906       16.23247604293387      -49.00731833838505
C          -21.71937566751234       15.30682434860788      -50.65238212118605
H          -21.02085714790081       15.40664470326685      -51.48335277391172
H          -22.14293682465087       14.31752745827628      -50.48023011344297
C          -18.69533186142835       19.08034425424133      -46.53666606187401
H          -18.21101310445379       18.32371405583085      -47.16769988071474
H          -19.75199025760664       18.82255100960234      -46.38964067707560
H          -18.19195227666995       19.08558887436680      -45.55621293399382
C          -17.54012347407000       22.16111608143810      -46.43607487844068
H          -17.85601406728874       23.18955280329542      -46.26379968455604
C          -16.38367865168997       21.58771617101239      -45.97319420391874
H          -16.16994957901906       20.53551514442360      -46.15892315696147
H          -15.62603735115742       22.15108576074890      -45.42801259540890
C          -17.36195463261154       26.21799665022411      -49.94956361432704
H          -16.53006039926372       26.29191417401207      -50.66407590992594
H          -16.93036996169312       26.24017641182303      -48.93302191122956
H          -18.02487560245077       27.08833379864603      -50.06109485456609
C          -18.19019841054313       26.57718126092439      -52.85356899706791
H          -17.10106024467902       26.49119003239622      -52.72749961589156
H          -18.57244117899255       27.37748134847989      -52.20423624310586
H          -18.38196102604356       26.85862362251278      -53.90322079197500
C          -24.75629439462744       22.48585637338628      -47.75435673505669
H          -25.74418896333371       22.58640350782285      -48.22389887528828
H          -24.65988749546464       23.25229021280276      -46.97359197421135
H          -24.68633504533376       21.49194515810198      -47.29642341749289
N          -23.51579530079766       23.78818599297160      -49.52996521185132
H          -24.07964373705562       24.61590032460283      -49.46053989858980
C          -23.68116132523186       22.64838994748126      -48.77648101903350
C          -22.47513390036400       23.59985205038599      -50.36040042512130
H          -22.13503946631721       24.33623982117582      -51.07226003750591
N          -21.95575017775112       22.40755631849060      -50.17718160896249
C          -22.69606518094464       21.80458252805442      -49.19416680909315
H          -22.46091785623777       20.80724727556728      -48.86722254644787
C          -16.37458327223329       22.19751138389758      -51.99484575501174
H          -15.40628264389401       22.24498453264654      -51.48130585906095
H          -16.97707323383624       23.05716515591737      -51.68267573207104
H          -16.20361141023687       22.24976737677154      -53.07714030356661
C          -17.08422802710683       20.90204925585604      -51.63440483175529
H          -17.25709998997603       20.86250871057053      -50.55026517128853
H          -16.45894218787855       20.04632556115775      -51.92621175111509
S          -18.67308650050291       20.77962783597786      -52.50327715811693
C          -18.79990329610483       18.97384256811148      -52.59413413614136
H          -18.80382953213248       18.53103985163011      -51.59175981500628
H          -17.94963051096903       18.57800575685749      -53.16315932183478
H          -19.73501335852709       18.70705941409697      -53.10026312628373
87
 energy: -124.660066787319 gnorm: 0.079962909860 xtb: 6.7.1 (edcfbbe)
Fe         -20.40949084152748       21.63553338697628      -51.20515658550752
N          -21.31549627508369       22.05445093897539      -52.96075687591087
N          -19.51293459038403       23.41335661906593      -51.27057774886843
N          -19.51469121763589       21.24629041659116      -49.44998566202910
N          -21.32680963960861       19.87156859942183      -51.12368409317398
C          -22.24979202912483       21.29621387750542      -53.59463258323299
C          -22.64756926127476       21.92195780432831      -54.84609038957254
C          -21.94017715364774       23.06060379914178      -54.94531439172801
C          -21.08769105745960       23.12636329805172      -53.76527551770231
C          -19.45547135075338       24.26853697802290      -52.32975340720593
C          -18.62046998447921       25.38892232068888      -52.01493470717324
C          -18.22522695900920       25.22297861435590      -50.70746504172763
C          -18.77549151475725       23.97791928257856      -50.27577195363504
C          -18.81871646806820       22.12550484395273      -48.67885555138636
C          -18.37055007376968       21.49448256106583      -47.44628610976685
C          -18.81321745983785       20.21129095122566      -47.51027854827704
C          -19.55203019198682       20.07746191181254      -48.75359024853140
C          -21.12958031194751       18.86991816683947      -50.22005881423753
C          -21.99392242504839       17.74587183972691      -50.52157233370576
C          -22.75308601763749       18.15027627323051      -51.59885468257990
C          -22.30043385453022       19.45228926008330      -51.97074573754418
C          -22.74313147395754       20.10109942369161      -53.11386635972194
H          -23.51853342944234       19.61072652539332      -53.68604726891610
C          -20.17330358524283       24.13142653332000      -53.50854837752865
H          -20.02248513630146       24.87843439858677      -54.27526645687888
C          -18.49801630711640       23.41671025764803      -49.04171443999469
H          -17.96419513279922       24.02559478294102      -48.32651788929812
C          -20.25251885432449       18.94087794938516      -49.14610627452225
H          -20.13332817205012       18.05017649477073      -48.54458138375104
C          -23.64274962892119       21.27768289935278      -55.75236745366232
H          -24.54036408541103       21.17641900604699      -55.14520409640174
H          -23.21614159341616       20.29759444638317      -55.96253439947712
H          -23.92851931962733       21.73872454500584      -56.70988447669849
C          -21.94360072589932       24.14181711472218      -55.97286465666771
H          -20.90532997937607       24.20428404706023      -56.29012346696319
H          -22.22932733244099       25.03989485486527      -55.42595124681347
H          -22.57426347366085       24.07204568200244      -56.87195967363520
C          -23.84815826103383       17.30011789336556      -52.18451192469437
H          -23.31718019799085       16.37563317440146      -52.40469305520973
H          -24.47484315305316       17.54515554007325      -53.06388768508018
H          -24.51868613728247       17.15712536315226      -51.33599034551698
C          -22.09223498747360       16.38455911451936      -49.93906358611336
H          -22.70173419045675       16.25131739385792      -49.03462886997996
C          -21.73336650551749       15.33510642995106      -50.63798850709011
H          -21.06233262595713       15.41934789724908      -51.48641959193446
H          -22.09360255022146       14.32908123241091      -50.43734592065815
C          -18.71421615209105       19.05921150248087      -46.56584144510723
H          -18.21861962731543       18.27943077836612      -47.14350531217467
H          -19.74837889218453       18.77804938450446      -46.36958601227653
H          -18.19598317095642       19.15139380037019      -45.60083829332210
C          -17.51284274640522       22.14612365028513      -46.46136075968925
H          -17.81467640362824       23.17563112250637      -46.25732636330725
C          -16.41331439259531       21.60512395784073      -45.98793138755179
H          -16.17094810751314       20.56571961365219      -46.17912731461020
H          -15.66923185864929       22.14354255235097      -45.41039708631703
C          -17.37210030323099       26.23577535098724      -49.99698468363867
H          -16.50638134598133       26.34036402844377      -50.65372928940442
H          -16.98863324481602       26.15925274317452      -48.96355547541219
H          -17.98757867323394       27.13716728345852      -50.05249706390220
C          -18.17595523269663       26.58164844478152      -52.81210496074734
H          -17.08656281864214       26.53850015184369      -52.73952836558691
H          -18.54491709951402       27.42376147347145      -52.22251674945685
H          -18.42323736357831       26.77644146030213      -53.86852101228664
C          -24.75307451640699       22.48854761614666      -47.75883879646465
H          -25.73673819685082       22.58739118753958      -48.21990315692406
H          -24.66157403683584       23.24562856182955      -46.97909654032804
H          -24.68341223094488       21.50431151558533      -47.30249727090708
N          -23.52305600451565       23.78791453636603      -49.52593233031048
H          -24.08656124672444       24.61876097364096      -49.45837438686271
C          -23.67965928215606       22.64850907412564      -48.77694863631942
C          -22.47538173506992       23.59712715261132      -50.35849126827148
H          -22.13490237811489       24.32708490051504      -51.06577287634572
N          -21.95477728114857       22.40903106408955      -50.18122050698076
C          -22.69062258873983       21.80700805150167      -49.20036122549010
H          -22.46057845445672       20.81453383040178      -48.87009952084063
C          -16.37070081680881       22.19755636779368      -51.99458048158109
H          -15.41025870470587       22.24688314671319      -51.48510231446983
H          -16.96919684381071       23.04911546312601      -51.68868187462564
H          -16.20585024782639       22.24988843292364      -53.06857286599242
C          -17.07289180814747       20.90135962498266      -51.62793507636701
H          -17.25991381578775       20.86018398644921      -50.55524205784202
H          -16.46506461891171       20.04629710539551      -51.92679740842567
S          -18.67211290047589       20.77502273143070      -52.51000708821164
C          -18.79622313650347       18.96246571707223      -52.59157222375136
H          -18.80433997521616       18.53635543981747      -51.59318143904974
H          -17.95403740846652       18.57972920180412      -53.16301908649968
H          -19.72669882179666       18.71741227552114      -53.09571160164252
87
 energy: -124.688077923053 gnorm: 0.046259000783 xtb: 6.7.1 (edcfbbe)
Fe         -20.41175861243879       21.63683106286239      -51.20558141783846
N          -21.31972919352599       22.05850434021986      -52.95749588911106
N          -19.51737352883823       23.41547894342920      -51.26667454166164
N          -19.52354218974907       21.24756784105562      -49.44624560400818
N          -21.32541548641154       19.87553228821304      -51.12630813147882
C          -22.25230448419417       21.30212301646667      -53.58711275363250
C          -22.65100367007599       21.92105758859179      -54.84343466333236
C          -21.93564856189217       23.06097346037903      -54.94648151100484
C          -21.08875456341855       23.12611443339835      -53.76227855350883
C          -19.45747655335363       24.26663637187119      -52.32860475307858
C          -18.62194552596637       25.38998172906788      -52.01250679455264
C          -18.22876705547258       25.22485718224154      -50.70843262241321
C          -18.78087393639908       23.97950463166780      -50.27304805251449
C          -18.83113377965198       22.12455293706942      -48.67636282035614
C          -18.37723022255978       21.48658178758525      -47.45143517387835
C          -18.81661985137528       20.20037380452012      -47.51479834477825
C          -19.55931493613058       20.07590901177681      -48.75675035531235
C          -21.12334716080847       18.87186759326227      -50.22950836376183
C          -21.98489528869891       17.75493680881977      -50.53160950301472
C          -22.74865659690249       18.14950692696479      -51.60403421729121
C          -22.30159169122917       19.45713551505762      -51.97155511021369
C          -22.74827236143005       20.10795000130493      -53.11038167915995
H          -23.51483927160646       19.60989278852664      -53.68403837008957
C          -20.17404240273166       24.13066716467100      -53.50609038716612
H          -20.02766270227966       24.88573042734626      -54.26370807781957
C          -18.50618342782020       23.41501308988945      -49.03818090514187
H          -17.95259480754626       24.01825463545238      -48.33421173741868
C          -20.25275190332997       18.93935420302994      -49.15115973752464
H          -20.15098303461009       18.05132711744088      -48.54335608686652
C          -23.64574329540279       21.26198689312841      -55.73127549482298
H          -24.57417873974411       21.14267784896788      -55.16958493911472
H          -23.25827599636055       20.27185082505088      -55.98166973380189
H          -23.87794370407874       21.78351166833788      -56.67160562382293
C          -21.92093281746247       24.15124333482545      -55.95928643345600
H          -20.89670027905012       24.25419693966933      -56.32066361264951
H          -22.21260736029881       25.07630267558745      -55.45783335230438
H          -22.58135106607267       24.01175605522365      -56.82767585413271
C          -23.83111951727858       17.28134366373915      -52.16042949116076
H          -23.36588501919181       16.32324503161908      -52.40981261479435
H          -24.40791684987825       17.61916100694769      -53.04393384545136
H          -24.54628454181548       17.10821815390433      -51.35022507686447
C          -22.12670316354023       16.40698103920645      -49.96079244238433
H          -22.71570314216454       16.28899819798361      -49.05045440387505
C          -21.70898337718936       15.32521751076180      -50.62109792797841
H          -21.10032298007219       15.42084793575611      -51.51568886621341
H          -22.02351053877573       14.31464814911649      -50.37892687403525
C          -18.72472669285889       19.04514788594849      -46.58360741514841
H          -18.22453721933904       18.23202517163428      -47.11472189497931
H          -19.74321883233010       18.73036351448109      -46.34621798512794
H          -18.19254414461978       19.21942821614569      -45.63719484087535
C          -17.50892597416966       22.14967395021956      -46.49220596984491
H          -17.78679650005308       23.17851158646755      -46.26708559698586
C          -16.41630291998045       21.59891744976128      -45.97418761967170
H          -16.14969680831913       20.57529263472198      -46.20171537377814
H          -15.70217769073796       22.13554668673374      -45.36529294824599
C          -17.37957303209041       26.24372472684993      -50.02287002470948
H          -16.48410469596623       26.38579687942474      -50.63655472615700
H          -17.04427310837742       26.07413566550554      -48.98275529679425
H          -17.94675076534730       27.18243073463022      -50.04029427845037
C          -18.17276997620020       26.58190885471821      -52.79062501123965
H          -17.07761535324539       26.58603435143053      -52.75840965419130
H          -18.51996102963260       27.46829861170039      -52.24741272058923
H          -18.47269573519026       26.69098837911906      -53.84665120926147
C          -24.74915514346887       22.49053847948198      -47.76216167898119
H          -25.73290615938824       22.58915268199620      -48.21977311302713
H          -24.66021864206272       23.24460791129394      -46.98125582475058
H          -24.67823561437925       21.50877988802668      -47.30592836707682
N          -23.52661708416942       23.78870144471015      -49.52540369249230
H          -24.09128155607843       24.61954853971513      -49.45779550713183
C          -23.67687845240781       22.64898561753576      -48.77891187398517
C          -22.47679585564134       23.59823424146515      -50.35867108667370
H          -22.13382167916439       24.32558156972242      -51.06392979013295
N          -21.95447453488097       22.41156179987272      -50.18527752767205
C          -22.68676982293928       21.80923134674369      -49.20488124981760
H          -22.45824727669232       20.81853310323745      -48.87199525157065
C          -16.36561242952604       22.19493488877243      -51.99426452196825
H          -15.40593095627123       22.24919275391730      -51.48698580573853
H          -16.96447290754359       23.04560265960140      -51.69230973292397
H          -16.20486020163033       22.24761383965654      -53.06724037913435
C          -17.06547784344250       20.89974113688187      -51.62533623452686
H          -17.26360474507389       20.85691807494996      -50.55661146844563
H          -16.46749542527776       20.04177526497057      -51.92804266970042
S          -18.66875843179364       20.77354941033055      -52.51558648839581
C          -18.79257650107802       18.95751786972843      -52.59009763920819
H          -18.80351359442996       18.54006641708770      -51.58974102024924
H          -17.95411286382136       18.57711053919899      -53.16511505013600
H          -19.72463661155712       18.72589158960325      -53.09353871541852
87
 energy: -124.698045095103 gnorm: 0.048594793755 xtb: 6.7.1 (edcfbbe)
Fe         -20.41571430281597       21.63961761716338      -51.20449789974275
N          -21.32205388162686       22.06170610516098      -52.94830712108444
N          -19.51942880033272       23.42115529299810      -51.26117998044467
N          -19.53574863864277       21.24867895330534      -49.44605207660692
N          -21.32862550670335       19.87564589622665      -51.13182472831938
C          -22.25523273632944       21.30796621135338      -53.57615444092727
C          -22.65315147063171       21.92095894547242      -54.83420396114747
C          -21.92872958381229       23.06201531268182      -54.94164575877966
C          -21.08876436179155       23.12573640224533      -53.75460354149484
C          -19.46023403357175       24.27191239706876      -52.32371259732228
C          -18.62376519920899       25.39859801127964      -52.00756874486866
C          -18.23047251267678       25.23491445124817      -50.70665553418119
C          -18.78258230433855       23.98482438064756      -50.26715715376712
C          -18.84057810422368       22.12106869523588      -48.67603741235762
C          -18.37616021472997       21.47258825596176      -47.46005060356936
C          -18.81916555268932       20.18402451375250      -47.52662010612538
C          -19.56857044622699       20.07414058652266      -48.76302064468031
C          -21.12007768253384       18.87101759486392      -50.23822373414187
C          -21.97315278507934       17.75239928666505      -50.54082357759029
C          -22.74837302021561       18.13885512822584      -51.60463796344356
C          -22.30673224142120       19.45320053641555      -51.97383785314175
C          -22.75458970687533       20.11192384283715      -53.10659750430847
H          -23.51593864875832       19.61265855456919      -53.68423125461160
C          -20.17739607956114       24.13297096693735      -53.49952623382627
H          -20.03638779038182       24.89416863967027      -54.25149979875312
C          -18.50995414188332       23.41226708631851      -49.03546890712293
H          -17.93882289534677       24.00688790994923      -48.33842505677419
C          -20.25677092414545       18.93780238812244      -49.15620204122488
H          -20.16956222477734       18.05180477851318      -48.54349908212595
C          -23.64672021901116       21.26394187371184      -55.72264048810714
H          -24.59616599471993       21.13382033296678      -55.19588149666617