87
 energy: -124.720510948020 gnorm: 0.000035954546 xtb: 6.7.1 (edcfbbe)
Fe         -20.38424253414033       21.57435478557568      -51.23666805209908
N          -21.27203867553838       21.98187981371114      -52.97826566073307
N          -19.48642601253997       23.36443335161264      -51.27744927055161
N          -19.49055770943366       21.17233192246126      -49.48291879559886
N          -21.34328442534342       19.81599390578872      -51.15164452179835
C          -22.13200676402708       21.18259108821512      -53.66066160200839
C          -22.52704203371404       21.80275686078033      -54.90751104436619
C          -21.88449016721339       22.99885230503952      -54.95803098435196
C          -21.10776412450531       23.09258856366496      -53.74063573480258
C          -19.59783247175511       24.31276041702508      -52.24423392161727
C          -18.82329843988551       25.48526826135145      -51.90240202566170
C          -18.24150165325926       25.22085388241796      -50.70172722555090
C          -18.66847351970911       23.89074912148862      -50.32881449567826
C          -18.65367219597882       21.98271200091090      -48.78693255298823
C          -18.19864442283350       21.33038335600599      -47.57481682686498
C          -18.81909039155096       20.10920353884650      -47.54758329504659
C          -19.62659575025498       20.04011165193402      -48.73805303691917
C          -21.25749151986939       18.88489712104696      -50.16693590073695
C          -22.11090410032836       17.74955613902653      -50.45971618894119
C          -22.72574901629310       18.03900881385467      -51.64910109337683
C          -22.22923669042959       19.32750893915124      -52.05894345688727
C          -22.59288775253049       19.95300075497288      -53.23889818877684
H          -23.28539720721088       19.43423644837524      -53.88383653567227
C          -20.33555187004623       24.18914117516455      -53.40713440202361
H          -20.31064527008343       25.01377379997096      -54.10320572283393
C          -18.26390463562792       23.25232116561596      -49.17223177413747
H          -17.58913823225683       23.78718844757521      -48.52173398080148
C          -20.44326025164528       18.96712867712171      -49.05378674681346
H          -20.44628564193040       18.13025830398892      -48.37219233672100
C          -23.45952425152916       21.18827129624244      -55.89409663760267
H          -24.43400600098726       21.00627876079561      -55.43985127908503
H          -23.06753036124391       20.23432111717789      -56.24691051225263
H          -23.59891191941692       21.83996881413114      -56.75319112070294
C          -21.92097735087643       24.04900863807738      -56.01504222406181
H          -20.92038877785787       24.22982174763264      -56.40786643988026
H          -22.30084120012132       24.98883593209837      -55.61260295294654
H          -22.56262917823088       23.74631092297076      -56.83883583043099
C          -23.75765876127624       17.24780816160467      -52.37405966784092
H          -23.31042372495720       16.68194595563712      -53.19313869486647
H          -24.51962325239134       17.90276397835400      -52.79393940578193
H          -24.23673917450417       16.54649762807783      -51.69375693824690
C          -22.25932056184692       16.58869598809149      -49.61051194531997
H          -22.17293325516644       16.77230373917686      -48.54552244906614
C          -22.47853555917057       15.34747649026677      -50.03238778651740
H          -22.52554572455186       15.09771317380253      -51.07792971881040
H          -22.59294582979782       14.52926935491706      -49.34080341528667
C          -18.76311698677476       19.06673593569522      -46.48593177103030
H          -18.08223975542317       18.26058318319672      -46.76518155350165
H          -19.74753091114085       18.63156403955844      -46.31911954002678
H          -18.41381701158953       19.50362791434941      -45.55262596576835
C          -17.29232712310804       21.91657287750728      -46.61254974335260
H          -17.36812807809442       22.99111480707522      -46.49152581442099
C          -16.39335403073381       21.25017542756980      -45.89546980446189
H          -16.24062312340292       20.19095237941482      -46.00862212677585
H          -15.75686404077168       21.75028224868436      -45.18438317447593
C          -17.33430285129631       26.07381034149512      -49.88338183953666
H          -16.36925341766764       25.58504415729860      -49.74644411696898
H          -17.76361494255935       26.25546191166241      -48.89775537291422
H          -17.16577793283832       27.03359643897659      -50.36569508736576
C          -18.72306527587012       26.70432298699699      -52.75405782511685
H          -18.08701269452913       27.45159944880187      -52.28603226696521
H          -19.70778014629836       27.14422035321503      -52.91506878713769
H          -18.30091419321917       26.45688328945480      -53.72847802444790
C          -24.48800150643055       22.78831295059233      -47.65460350391763
H          -25.51282931571212       22.77225922748564      -48.02543359252524
H          -24.36775695838119       23.66862304222325      -47.02315849066817
H          -24.32269760202006       21.90175833233062      -47.05051755152698
N          -23.49483156093020       23.81517101529144      -49.71177199971607
H          -24.10669306835448       24.61445205768460      -49.73171390666037
C          -23.51999610163643       22.81034852009957      -48.78020907632882
C          -22.50536634424676       23.53569936827263      -50.58937816535692
H          -22.25466930211430       24.15080538621660      -51.42863592633051
N          -21.90316657990110       22.41645564391581      -50.27030756698021
C          -22.52270872156370       21.95327378389596      -49.14771940355988
H          -22.21298616366774       21.04113776135710      -48.68198409522095
C          -16.58660957037498       22.41644975408499      -52.88254080051259
H          -15.64466081995735       22.84826506708843      -52.55011198893837
H          -17.34563643642820       23.19293571484685      -52.87896195716699
H          -16.46846453156415       22.05451497461929      -53.90113903384865
C          -16.99055122485632       21.28094028400760      -51.96243654515391
H          -17.10419618986920       21.62548513500659      -50.93600034242102
H          -16.25979220392901       20.47319065018349      -52.00322167074305
S          -18.59802871781234       20.56736261691153      -52.50222015578859
C          -18.36131327135374       18.89062754839050      -51.83759563624312
H          -18.20591007007899       18.93823572011048      -50.76452011191073
H          -17.51296951952939       18.42852546947743      -52.33573154666521
H          -19.26649334010931       18.33348592324166      -52.05225172447390
