87
 energy: -124.720522095411 gnorm: 0.000082493444 xtb: 6.7.1 (edcfbbe)
Fe         -34.48044829532752       -2.80396991106630        2.38417311198466
N          -34.25222273831801       -2.55420451289076        0.41620874139849
N          -35.92059312787354       -1.41146265349111        2.39173032273047
N          -34.71678768141030       -3.05076350792000        4.36373813038315
N          -33.09795934525363       -4.25569866801531        2.36719477098425
C          -33.38291068201588       -3.21312867927140       -0.39259049290562
C          -33.47393507863198       -2.72061016771042       -1.75070950554677
C          -34.42455986455673       -1.74989949766595       -1.74071445690614
C          -34.90068653232515       -1.66401142865178       -0.37690806243843
C          -36.38456305199468       -0.70955156332453        1.32467044203257
C          -37.45383191367031        0.17917432431430        1.72258530598849
C          -37.62366193929050       -0.00386726333575        3.05957679231113
C          -36.65639383885426       -1.00192330723303        3.45791804804082
C          -35.59460279494974       -2.40201469826234        5.16983603575211
C          -35.44893998213198       -2.84004324974106        6.54420183131618
C          -34.47505486367435       -3.80357223296343        6.53202821803912
C          -34.04397072328137       -3.92457465022349        5.16321790496383
C          -32.67159066776281       -4.99064244620202        3.42644786721687
C          -31.67115766815598       -5.95495893224455        3.01122226932953
C          -31.52210821344995       -5.78312267825795        1.66036764574649
C          -32.41816409641062       -4.71939481855456        1.28580322584967
C          -32.53411763955028       -4.22800249888239       -0.00294148681724
H          -31.90645053748003       -4.66930425765027       -0.76182788833866
C          -35.90322498463799       -0.80505891123413        0.03186878659079
H          -36.34661964872220       -0.16268814568623       -0.71376640919300
C          -36.50281908370945       -1.44412476978136        4.75795313191661
H          -37.14317241418360       -1.00667483981007        5.50839314294241
C          -33.08640645185145       -4.82842088619799        4.73430188430473
H          -32.62979610818311       -5.45780627292978        5.48281972684185
C          -32.65214784116866       -3.22703606501568       -2.88589761130629
H          -32.83134682513850       -4.29077194564555       -3.04542622884779
H          -31.59066355822234       -3.09027037178786       -2.67933940061176
H          -32.89317265561651       -2.69800143179178       -3.80470789376962
C          -34.92563192108037       -0.90404165007025       -2.86093551285769
H          -34.76890571076905        0.15206962157246       -2.64121446804500
H          -35.99358241011832       -1.06194074249740       -3.01612938939786
H          -34.40742129996515       -1.14170028402557       -3.78665334450937
C          -30.67374625381801       -6.56156009319247        0.71658699663860
H          -29.74953113467443       -6.02655151342084        0.49150200212090
H          -31.20009043614417       -6.73373830636408       -0.22104188692448
H          -30.41550328126108       -7.52414646349643        1.15354776487802
C          -31.02060178883252       -6.89921719690861        3.89202513307647
H          -31.62206207585591       -7.26113299272145        4.71825955263471
C          -29.77087419175248       -7.33471963679272        3.76861148727817
H          -29.11223689604174       -6.97480332671454        2.99764227031698
H          -29.35368457815648       -8.05176216884400        4.45610220808719
C          -33.98491443777503       -4.63752770471757        7.66394916058942
H          -33.03710590880338       -4.25647657765618        8.04854840367790
H          -33.82801063179026       -5.66730161272748        7.34587486030223
H          -34.71171739716268       -4.63098314213465        8.47369868131963
C          -36.22713658460640       -2.34164673055416        7.65639723944666
H          -37.24834761288861       -2.06089610883120        7.42550832965990
C          -35.78677627565279       -2.19915643959074        8.90229007105605
H          -34.76976702292707       -2.41608473133585        9.17927574480843
H          -36.42687416504265       -1.83271036551591        9.68769624175319
C          -38.58390432975661        0.65539693497683        3.98886247948394
H          -38.05025532633334        1.19534347437447        4.77159606598431
H          -39.22543580369494       -0.08533820440927        4.46695449995755
H          -39.21518923127589        1.36224867979404        3.45586893611693
C          -38.17481247356324        1.09551192013030        0.79416806536236
H          -37.48201089728919        1.80706231848853        0.34382064830323
H          -38.94327818011359        1.65462195648356        1.32225244008002
H          -38.65092772028706        0.53347581747708       -0.00989580663662
C          -37.70490705855552       -7.35788908213269        2.48392777483769
H          -37.68567747786990       -8.01395022580054        1.61370376535538
H          -38.74110483613750       -7.24468238407752        2.80262874277736
H          -37.14357324371409       -7.82718314009639        3.28573746992315
N          -37.60605011039307       -5.21726038147086        1.18733409142437
H          -38.40465902227609       -5.41338124645393        0.60648212480926
C          -37.10431941093788       -6.03849811922258        2.16300062541075
C          -36.83628620942733       -4.10664251654674        1.15071333334752
H          -36.99451612491673       -3.28750332893753        0.48024404918281
N          -35.87889328578282       -4.17469930465342        2.04287880967869
C          -36.03221911282115       -5.36993222544977        2.68049886233314
H          -35.36649738417566       -5.66816887880703        3.46322994371780
C          -33.91979947816598        1.34108366990611        2.92577191670350
H          -34.30916337368417        2.12906821059833        3.56740448312465
H          -34.72005997961813        0.98980085820299        2.28121198530782
H          -33.12993233551191        1.75249639933173        2.30177107679548
C          -33.38538378527650        0.20035373281698        3.76976176459381
H          -34.16207779516254       -0.21666951901627        4.40865838084898
H          -32.54370948280867        0.53188401326702        4.37793676120169
S          -32.75718345087690       -1.14830821351727        2.68781331974479
C          -31.54611918609989       -1.85264847946993        3.84803841502176
H          -32.04736872000038       -2.16753089485506        4.75769608062046
H          -30.78350725109870       -1.10768300124701        4.05970547430456
H          -31.10057505948861       -2.71194973400627        3.35925397437676
