78
 energy: -116.057529342045 gnorm: 0.000073438330 xtb: 6.7.1 (edcfbbe)
Fe         -10.73136173520554        2.80303253535451       -8.02503945814779
N          -10.35432726349066        2.48006055300429       -9.97595116432964
N           -9.20482877093211        1.57843752531923       -7.54084797091711
N          -11.14972842464462        3.05205090218553       -6.09491979722095
N          -12.25623138546828        3.98307795397473       -8.52197442539755
C          -10.99431268521998        3.04403846493556      -11.03510082556692
C          -10.42226791565748        2.58630387720569      -12.28060530237470
C           -9.41462378109495        1.73369516950012      -11.94981919948468
C           -9.38051420091448        1.68721185979130      -10.50562290838650
C           -8.37349974551290        0.92056658048453       -8.39854154175299
C           -7.35899108471267        0.19967936634588       -7.67643077944810
C           -7.58139743296485        0.44929893994323       -6.34670801008570
C           -8.74878254670040        1.30556870139706       -6.28987684177394
C          -10.44868419317724        2.55820897106922       -5.03924062254420
C          -11.05735701123330        2.95071862883361       -3.79383206984588
C          -12.17218399657998        3.67334882913946       -4.11985755177926
C          -12.18899166354351        3.74660980293372       -5.56888728139453
C          -13.09319385333478        4.62813337730874       -7.66936659084379
C          -14.03279758710487        5.45321329377066       -8.39870281984163
C          -13.74358918282294        5.28523809594581       -9.71583232129955
C          -12.62945670963355        4.36255638199774       -9.77166916897111
C          -12.05136986432789        3.93081527079208      -10.94986292204464
H          -12.45684337059023        4.31162979285652      -11.87463054024366
C           -8.46183426298565        0.95223377059639       -9.78129384949566
H           -7.73545596469987        0.38114046244346      -10.33913318302350
C           -9.31429719261964        1.77073084345274       -5.11888588617440
H           -8.84536252202426        1.48587209661141       -4.18957721726462
C          -13.07902996392408        4.51824302658850       -6.29244512300614
H          -13.80519786418817        5.09085512270235       -5.73680329998425
C           -8.49216590309665        0.97097090015806      -12.83828333333772
H           -8.72797364707106        1.14949656053948      -13.88442581417914
H           -8.57186759553637       -0.09951552445613      -12.64705554842614
H           -7.45719771657564        1.26802210734935      -12.66526177923595
C          -10.89894318963856        3.00611235382917      -13.62863106472327
H          -10.80496406386603        4.08563297622241      -13.74868446569327
H          -11.94804140512418        2.74200295797612      -13.76354728685080
H          -10.32064942331958        2.52278616382791      -14.41232826462879
C           -6.33355060622057       -0.68731845024120       -8.29268906991156
H           -6.75009896979804       -1.22762231553354       -9.14166859830361
H           -5.97827201974368       -1.41006950042136       -7.56096586783670
H           -5.47824683279437       -0.10959487973031       -8.64779702663421
C           -6.86118946051537       -0.04056914496027       -5.19271499126202
H           -7.45910742534450       -0.20690143391863       -4.30423738874632
C           -5.55556526410381       -0.28480674674495       -5.14314469436165
H           -4.90353484724611       -0.09345225115822       -5.97748717488064
H           -5.08720968131868       -0.66259220203650       -4.24943088189195
C          -10.56743788085208        2.56321310204913       -2.44155740065018
H           -9.52538087076492        2.85638248710803       -2.31110230511317
H          -10.63359629685809        1.48325504262660       -2.30450925243607
H          -11.16372188789847        3.04000849502757       -1.66763497956222
C          -13.14104034220203        4.24000221449417       -3.20424781237844
H          -12.72982215605557        4.64161973806891       -2.28391879791157
C          -14.45639906049064        4.26147995151651       -3.38693321514624
H          -14.91805881497167        3.82536786738166       -4.25633437545648
H          -15.12042075990595        4.69385836370673       -2.65666187092756
C          -15.08916789395643        6.28759972052906       -7.75977665618840
H          -14.64575057033127        7.01086329682554       -7.07505494461284
H          -15.77677761983108        5.66249007486782       -7.18994571204747
H          -15.66065154706093        6.82984470280161       -8.50913590092666
C          -14.39613055397306        5.88926057180466      -10.91188706047555
H          -15.19754196085426        6.56194601405002      -10.61654492192672
H          -14.81837490102224        5.11332825320858      -11.55093772806218
H          -13.67223652565988        6.45437035995365      -11.49954259362473
O          -12.04483321782094        0.92478133495733       -8.12878814290933
H          -11.41249537963839        0.26962039992744       -7.81402109970068
H          -12.10405009579013        0.82433668139019       -9.08511234732197
C           -8.33108072108173        7.76375622386373       -7.19561110679715
H           -8.15834548337389        8.40297556576398       -8.06137852232456
H           -7.44353866440184        7.79837964899000       -6.56390921082384
H           -9.17290790440730        8.15726739522088       -6.63471454465168
N           -7.73871753806615        5.62095146050370       -8.34824771994342
H           -6.83079957601206        5.92239068275419       -8.66188250985033
C           -8.62342535068292        6.37071842984625       -7.61822560896867
C           -8.30566729453627        4.41251771690482       -8.56299395753171
H           -7.83896416508956        3.61916858223315       -9.10917264480741
N           -9.49440411259748        4.35174454353331       -8.01406452817988
C           -9.70648977805151        5.56250873029010       -7.42250067464279
H          -10.61768084913368        5.76884058062825       -6.89983993054706
