78
 energy: -115.922942171966 gnorm: 0.275723633538 xtb: 6.7.1 (edcfbbe)
Fe         -10.77700000000000        2.78200000000000       -8.08000000000000
N          -10.32000000000000        2.30100000000000       -9.99800000000000
N           -9.14500000000000        1.64000000000000       -7.65700000000000
N          -11.24900000000000        3.07300000000000       -6.09000000000000
N          -12.52500000000000        3.69600000000000       -8.50000000000000
C          -10.92400000000000        2.97500000000000      -11.00500000000000
C          -10.32600000000000        2.51800000000000      -12.23800000000000
C           -9.39800000000000        1.59900000000000      -11.96100000000000
C           -9.37800000000000        1.43800000000000      -10.52700000000000
C           -8.39100000000000        0.77800000000000       -8.43300000000000
C           -7.41200000000000        0.12300000000000       -7.56900000000000
C           -7.58500000000000        0.57000000000000       -6.32100000000000
C           -8.67200000000000        1.52400000000000       -6.35100000000000
C          -10.40800000000000        2.71600000000000       -5.09600000000000
C          -11.07700000000000        2.97800000000000       -3.83400000000000
C          -12.28900000000000        3.48600000000000       -4.08000000000000
C          -12.41800000000000        3.55400000000000       -5.52500000000000
C          -13.35000000000000        4.36000000000000       -7.59000000000000
C          -13.99400000000000        5.48100000000000       -8.25200000000000
C          -13.48600000000000        5.44100000000000       -9.70100000000000
C          -12.59100000000000        4.30300000000000       -9.75900000000000
C          -11.91400000000000        3.91200000000000      -10.89300000000000
H          -12.20300000000000        4.41200000000000      -11.81700000000000
C           -8.56400000000000        0.60700000000000       -9.79400000000000
H           -8.04300000000000       -0.20600000000000      -10.29800000000000
C           -9.14800000000000        2.19700000000000       -5.24700000000000
H           -8.45700000000000        2.32900000000000       -4.41400000000000
C          -13.49000000000000        4.00400000000000       -6.26500000000000
H          -14.46900000000000        4.08000000000000       -5.79300000000000
C           -8.52000000000000        0.85400000000000      -12.98500000000000
H           -8.20000000000000        1.55900000000000      -13.78100000000000
H           -9.10200000000000        0.02800000000000      -13.44800000000000
H           -7.61800000000000        0.44700000000000      -12.48000000000000
C          -10.70100000000000        3.01900000000000      -13.62700000000000
H          -10.20000000000000        3.99200000000000      -13.81800000000000
H          -11.80100000000000        3.16200000000000      -13.69000000000000
H          -10.36900000000000        2.28600000000000      -14.39300000000000
C           -6.34300000000000       -0.89700000000000       -7.99400000000000
H           -6.41600000000000       -1.07700000000000       -9.08800000000000
H           -6.50600000000000       -1.85700000000000       -7.45900000000000
H           -5.33200000000000       -0.50000000000000       -7.76100000000000
C           -6.77400000000000        0.17500000000000       -5.06700000000000
H           -7.11200000000000        0.48300000000000       -4.06700000000000
C           -5.64500000000000       -0.54800000000000       -5.16400000000000
H           -5.18500000000000       -0.73600000000000       -6.14500000000000
H           -5.16700000000000       -0.96100000000000       -4.26300000000000
C          -10.43600000000000        2.70700000000000       -2.47300000000000
H           -9.74200000000000        3.53600000000000       -2.21800000000000
H           -9.86300000000000        1.75600000000000       -2.51100000000000
H          -11.22400000000000        2.64400000000000       -1.69300000000000
C          -13.34300000000000        3.91400000000000       -3.04100000000000
H          -13.07400000000000        4.55400000000000       -2.18800000000000
C          -14.61100000000000        3.50300000000000       -3.17300000000000
H          -14.90500000000000        2.86200000000000       -4.01700000000000
H          -15.37400000000000        3.80100000000000       -2.43900000000000
C          -14.98400000000000        6.49500000000000       -7.64100000000000
H          -14.65500000000000        6.76100000000000       -6.61400000000000
H          -15.99800000000000        6.04500000000000       -7.58900000000000
H          -15.00900000000000        7.41600000000000       -8.26200000000000
C          -13.84000000000000        6.40500000000000      -10.85600000000000
H          -14.54900000000000        7.17800000000000      -10.49000000000000
H          -14.31900000000000        5.83900000000000      -11.68400000000000
H          -12.91900000000000        6.90600000000000      -11.22200000000000
O          -12.18900000000000        0.62700000000000       -8.16400000000000
H          -11.74300000000000       -0.00300000000000       -7.59800000000000
H          -12.93800000000000        0.48500000000000       -8.62100000000000
C           -8.40200000000000        8.04000000000000       -7.33600000000000
H           -8.61000000000000        8.75900000000000       -8.15700000000000
H           -7.33300000000000        8.12600000000000       -7.04500000000000
H           -9.05300000000000        8.28400000000000       -6.46900000000000
N           -8.03700000000000        6.07000000000000       -8.87700000000000
H           -7.33000000000000        6.52100000000000       -9.42100000000000
C           -8.68800000000000        6.64500000000000       -7.80700000000000
C           -8.49700000000000        4.84300000000000       -9.06000000000000
H           -8.15900000000000        4.16700000000000       -9.84400000000000
N           -9.41600000000000        4.60000000000000       -8.14000000000000
C           -9.55500000000000        5.71100000000000       -7.34900000000000
H          -10.26200000000000        5.73300000000000       -6.52900000000000
78
 energy: -115.993116896438 gnorm: 0.117888877320 xtb: 6.7.1 (edcfbbe)
Fe         -10.78348019866338        2.71430360301689       -8.06475744069553
N          -10.31684096984363        2.30970396075340       -9.98594648797919
N           -9.14617917117915        1.61280260050760       -7.62883175207262
N          -11.25829251289974        3.06780174470931       -6.09796048702489
N          -12.47536362585539        3.73986266612983       -8.49724804878982
C          -10.92279911079266        2.97253558147151      -11.00583770558831
C          -10.33469403921104        2.52525557313195      -12.25410529903660
C           -9.40200578138182        1.58768169486276      -11.96541840148202
C           -9.39280958301025        1.44580231306153      -10.52304321609568
C           -8.39377254825821        0.76825833361700       -8.40761647557845
C           -7.39936686494593        0.11296859352370       -7.57204271756752
C           -7.54889636014332        0.59011027967803       -6.30424140921795
C           -8.65196269577953        1.53166772761749       -6.34869883712841
C          -10.41398067938273        2.73902617260023       -5.09306623486533
C          -11.06451257446868        2.99666599294669       -3.81932495159641
C          -12.30539450440295        3.48343015016452       -4.07676456656311
C          -12.42550987642630        3.52984596267347       -5.53276338396698
C          -13.34578444140704        4.37031427951740       -7.63564802242940
C          -13.99935829092815        5.46794860116231       -8.30643281927108
C          -13.51137690180220        5.44480933064396       -9.66286337153687
C          -12.59535971735973        4.33416796728309       -9.73682835095394
C          -11.92222006699029        3.92293450727994      -10.88693562578927
H          -12.21019492549609        4.41518917558891      -11.80984154098593
C           -8.56824385386604        0.61593554896517       -9.77861415150562
H           -8.03001541832919       -0.17633927233384      -10.29202142651972
C           -9.14411762709671        2.20390565689707       -5.24173585815826
H           -8.47383797930543        2.28850010730915       -4.39248316884293
C          -13.48311240227701        4.01281295254208       -6.28245442137154
H          -14.44657333062804        4.13905452953050       -5.79404791088748
C           -8.52757985508952        0.85982142679285      -12.96839909940330
H           -8.20618628684191        1.54610846716683      -13.76168544969409
H           -9.08924259362809        0.04035732362631      -13.43543300273384
H           -7.63460317139797        0.45042647902369      -12.48576804478758
C          -10.70247661914713        3.02190691266803      -13.62429232242717
H          -10.21017524553129        3.98268773733345      -13.82075164266857
H          -11.78578148859335        3.16117214272983      -13.69657897361153
H          -10.38026341784827        2.30145128880515      -14.38318456087950
C           -6.36351314108381       -0.89181507759871       -8.02046233508358
H           -6.42588255836944       -1.08190445981599       -9.09298674647527
H           -6.50263760209491       -1.83655259317133       -7.47644836166776
H           -5.35918729981560       -0.50502683637538       -7.80725543461027
C           -6.77534815398986        0.18048911627996       -5.08994931016655
H           -7.14135258010697        0.47374585903610       -4.10539573950044
C           -5.65485664191116       -0.54194196795389       -5.15036765146567
H           -5.17946362758748       -0.75383740391297       -6.09191295170425
H           -5.17096117411146       -0.92957772458391       -4.26010905156122
C          -10.43817324175923        2.71344678604666       -2.47831973909592
H           -9.74821865697849        3.52469133823767       -2.21584594321048
H           -9.87463113576019        1.77381870481739       -2.50866384679214
H          -11.21042993295569        2.64407966015974       -1.70499198234803
C          -13.34083187524544        3.90027701855370       -3.07335167048681
H          -13.05306160372610        4.52954593549036       -2.22713659712470
C          -14.60423666665171        3.50331914440803       -3.17988557200228
H          -14.91199196832123        2.86382281862401       -3.99858397266420
H          -15.35860627821976        3.79535460541416       -2.45357293843702
C          -14.95721514900453        6.46706543685587       -7.66579919207722
H          -14.64955285923201        6.74078265105475       -6.64557872324440
H          -15.97211622852955        6.04938626432682       -7.59728425795615
H          -15.00671990714715        7.39063637158731       -8.25551973333977
C          -13.83929589593645        6.38556641782644      -10.81580154223781
H          -14.53959453198074        7.16232052080519      -10.49024867351705
H          -14.30442900607015        5.84462126023432      -11.65350081373931
H          -12.93806232745278        6.88511601355140      -11.20229061471427
O          -12.15210388379095        0.65797727104236       -8.14690479883268
H          -11.74433757638914       -0.00789460418411       -7.59830729111277
H          -12.94344854855028        0.49119777487296       -8.62657786241805
C           -8.40066393389732        8.03644242981805       -7.34065199199358
H           -8.60450310303137        8.75548508442800       -8.14372474060692
H           -7.34849236699571        8.13178385190924       -7.04570822417187
H           -9.03831574223951        8.27819702934855       -6.48491422910764
N           -8.03691994439122        6.07921806231260       -8.87200859751625
H           -7.32436019389200        6.52922399890895       -9.42042953841022
C           -8.68643596629216        6.64817044959575       -7.80556261366054
C           -8.51525817887890        4.83858150710590       -9.04763920177979
H           -8.17522471790362        4.16985004547083       -9.82253515013641
N           -9.44620629081469        4.58204029147878       -8.15021810064401
C           -9.55672814925787        5.69688116869132       -7.36134423946743
H          -10.25526662942525        5.72452766630527       -6.54454284521272
78
 energy: -116.020488977872 gnorm: 0.046727121703 xtb: 6.7.1 (edcfbbe)
Fe         -10.78255961769222        2.68609167397455       -8.05898330850377
N          -10.32721657077616        2.31306403438555       -9.97177732781239
N           -9.15967689495092        1.59127111220852       -7.59772151405221
N          -11.26377224101308        3.03903503982486       -6.10935763793571
N          -12.43083992220595        3.77623444777415       -8.49786254259160
C          -10.92391079648133        2.97400308082237      -11.00108263506802
C          -10.34597814827518        2.53064276937911      -12.25720003723901
C           -9.41115207520578        1.58153891903853      -11.95811488554730
C           -9.41280040202322        1.45486069900166      -10.51171368472995
C           -8.40900312291583        0.76125867227664       -8.38165304030523
C           -7.39422269784159        0.11191741303546       -7.57891705837414
C           -7.51938052413084        0.60775947897926       -6.29693772540480
C           -8.64143562576431        1.53297750896623       -6.34315408439718
C          -10.41621442094176        2.74871042674900       -5.09233742966020
C          -11.05183508530334        3.01653779465716       -3.81727417581406
C          -12.31668150198551        3.47164369367539       -4.08870304395709
C          -12.42468659183852        3.49795680487438       -5.55053457919345
C          -13.32061895628115        4.38257136068561       -7.66655851271767
C          -13.99832077373037        5.45630677362831       -8.35661571643616
C          -13.53506767240211        5.44466660068781       -9.63098400624049
C          -12.58114988742131        4.36216912454879       -9.71911101845509
C          -11.92034146010778        3.93933787782127      -10.87856204271315
H          -12.21780052514486        4.41902993042063      -11.80159909834445
C           -8.57734339931742        0.63265609446238       -9.75999778958580
H           -8.00924884872775       -0.12929202532555      -10.28390360820274
C           -9.14527061219312        2.19603190662717       -5.23115626727097
H           -8.49899474821378        2.23126690779124       -4.36225233684084
C          -13.46052768991765        4.03323336224749       -6.30240160496152
H          -14.40566837850021        4.23370091937108       -5.79940687108847
C           -8.53964918897285        0.86480941098390      -12.94458642802277
H           -8.21688185061763        1.54175939282859      -13.73590821915023
H           -9.08476587172480        0.04648079029900      -13.41820853761218
H           -7.65102417463876        0.45394534958729      -12.47505406429167
C          -10.70636810084885        3.02473266240984      -13.61669531513616
H          -10.22017495093350        3.97921729238596      -13.82036231074089
H          -11.78021541417438        3.16381765860033      -13.70136206385070
H          -10.38895173661204        2.31281162067812      -14.37376478182711
C           -6.38418172108305       -0.88176272835071       -8.04622043639730
H           -6.45805780863300       -1.08300176698952       -9.10646144926616
H           -6.50276708428271       -1.81887041771010       -7.49690263456970
H           -5.37837305802319       -0.50567205125991       -7.85565193205635
C           -6.77883156507410        0.19593402747833       -5.12032870448993
H           -7.18203655436268        0.47287699813190       -4.15041086544442
C           -5.65912796390025       -0.52814937473307       -5.13629892554351
H           -5.16473035843880       -0.78082206298311       -6.04828883411396
H           -5.18173117452898       -0.89030792433422       -4.24212383754351
C          -10.44073771816115        2.72880404271327       -2.48677467811094
H           -9.74710160579644        3.52257025179670       -2.20985401206590
H           -9.88732863380703        1.79195153553240       -2.51252429956113
H          -11.20554323947254        2.65265786504725       -1.71827056007425
C          -13.33128900919764        3.87699134611861       -3.11631134144449
H          -13.01817196658523        4.49743482720066       -2.27774154931744
C          -14.60075603983025        3.49938804647828       -3.19324917947396
H          -14.93120191677219        2.85942786922569       -3.99137546391092
H          -15.34230245815865        3.79435574784705       -2.46775675029589
C          -14.93718650706559        6.43542251892179       -7.69743220096736
H          -14.62093683316121        6.69884589036087       -6.68500326650898
H          -15.95015506379895        6.03232160285145       -7.61471484161964
H          -14.99790759460848        7.36206331003617       -8.26728191352879
C          -13.84561646223540        6.36796698474104      -10.77654337171143
H          -14.53949948189540        7.14871281428423      -10.47475049112090
H          -14.29663333912848        5.83124198914579      -11.61550615791100
H          -12.94548608540351        6.85478692322804      -11.16374145655135
O          -12.11513154171003        0.70427873394965       -8.12260828060862
H          -11.75446794993907       -0.02000898967892       -7.60568068222412
H          -12.91384374501670        0.51092497549884       -8.61729536754633
C           -8.40231102308598        8.02983274741054       -7.34203736736431
H           -8.60182876621807        8.74817256571172       -8.13632984073720
H           -7.35905990308647        8.13114824687925       -7.04608589248759
H           -9.03146489255359        8.27167565205998       -6.49259160720643
N           -8.03879740606961        6.08091659941250       -8.86875628333708
H           -7.32323826307656        6.52782174306234       -9.42050094007914
C           -8.68902069758927        6.64642432965028       -7.80371289505494
C           -8.53299203588214        4.83413176642604       -9.03948564690678
H           -8.19281737176278        4.16892227671606       -9.80730548117768
N           -9.45871067102695        4.56857113711720       -8.15077965623743
C           -9.56393269248741        5.68675019404500       -7.37286164911934
H          -10.25594131726476        5.72051317659842       -6.55663395223848
78
 energy: -116.032188181550 gnorm: 0.030645657320 xtb: 6.7.1 (edcfbbe)
Fe         -10.77804462843338        2.67522513667590       -8.05322588690435
N          -10.33999222602740        2.32378636736324       -9.96340048079911
N           -9.17201330904751        1.58074304668558       -7.57643050742063
N          -11.25283774067758        3.01022328263315       -6.11719352452535
N          -12.38518396720582        3.80944207007707       -8.49993014289507
C          -10.92663977696462        2.98284329435782      -10.99907397355181
C          -10.35620381692489        2.53356137760059      -12.25183388125461
C           -9.42478453222306        1.58275221660210      -11.94486926666127
C           -9.42909479627548        1.46470559394689      -10.49983001366268
C           -8.42185014865715        0.76434049254610       -8.37138596642616
C           -7.39219380020009        0.12190826915863       -7.59271756936274
C           -7.50353011884125        0.61427751775019       -6.30606585763719
C           -8.63609722465578        1.52644745740867       -6.33370293972979
C          -10.40891971956966        2.73641435070119       -5.09157719566950
C          -11.04304655754234        3.02174422233563       -3.82581550505251
C          -12.31392835019637        3.45441610874878       -4.11103139143442
C          -12.41091441076636        3.47424791056962       -5.56881739960731
C          -13.28778261894345        4.39015142310275       -7.66935920849846
C          -14.00161052333652        5.44332761939377       -8.36227293935500
C          -13.52975411464897        5.44616335341808       -9.64021664166100
C          -12.55327002845867        4.38004338526145       -9.72332872801895
C          -11.91210805188916        3.95652452183668      -10.88327956158311
H          -12.22049529291630        4.42908197285044      -11.80561838750015
C           -8.58644627977560        0.65232471119096       -9.74934480910703
H           -7.98213248494071       -0.07593379639180      -10.28149797306858
C           -9.14440432612316        2.17133981702705       -5.21458719987966
H           -8.52338196731659        2.16051962247563       -4.32328425229688
C          -13.42893852736630        4.05432384682310       -6.31255529717235
H          -14.35116255824535        4.34385755610536       -5.79467080780549
C           -8.55025575307876        0.86360547426149      -12.92019566980245
H           -8.22593634620944        1.54149958508060      -13.70949512624223
H           -9.09002524175171        0.04281152294115      -13.39571156327352
H           -7.66353824840257        0.45419633146563      -12.44596578940255
C          -10.71385046794234        3.02857604664912      -13.61116703283175
H          -10.22857196151417        3.98356314093912      -13.81693129287676
H          -11.78753799981842        3.16907827851330      -13.70311052192662
H          -10.39596147015169        2.31725565751344      -14.36873711325044
C           -6.40117416309694       -0.87478387603405       -8.08441819554888
H           -6.51282460368317       -1.08704560257571       -9.14193135807380
H           -6.50472948848253       -1.80704677852443       -7.52382669618416
H           -5.38777077846461       -0.50124920115496       -7.92786541753158
C           -6.78118234978976        0.20151579887623       -5.13163831101680
H           -7.21699152925722        0.48283298782190       -4.17761488574414
C           -5.65842575979147       -0.52153503494532       -5.10574380856425
H           -5.13719015425612       -0.80818152174154       -5.99839657920716
H           -5.19183930206063       -0.83830611066445       -4.18704105430371
C          -10.44156973025110        2.74563867663671       -2.49085565150628
H           -9.74253053249018        3.53251386908402       -2.20591008316308
H           -9.89505697212664        1.80454833864564       -2.51157723953568
H          -11.21162688501874        2.67276211578256       -1.72752356933188
C          -13.32627269010923        3.85657906450001       -3.15242217048825
H          -12.98876629077850        4.46645893800483       -2.31764126521205
C          -14.60304473706146        3.49571955851515       -3.21288939052992
H          -14.95617958754605        2.85169049531795       -3.99989760676057
H          -15.32917445248369        3.79918821779287       -2.47734591380099
C          -14.93805215844954        6.41002779138226       -7.70994330316746
H          -14.59767064869947        6.65928943337301       -6.70494413243455
H          -15.94530518983842        6.00058780564115       -7.62752353507065
H          -14.99587870604914        7.33374986764013       -8.28247537132074
C          -13.85274126871589        6.36333414193862      -10.77072905709244
H          -14.54730546312238        7.13885485937667      -10.46146796840773
H          -14.30018028775444        5.81434991992447      -11.59960319564319
H          -12.94536563800666        6.84118304303516      -11.14315085208508
O          -12.08977113732238        0.75052807466107       -8.07780557253180
H          -11.74898426906119       -0.02706143684062       -7.61344321953944
H          -12.86564144163278        0.54756058019817       -8.60963335107551
C           -8.40719240639433        8.01871381827511       -7.34248644731169
H           -8.60350786890603        8.73958887233416       -8.13549241711904
H           -7.36404329570100        8.12067099723461       -7.04603193757166
H           -9.03383713680186        8.26286536617463       -6.49218891688112
N           -8.04752517632488        6.06955645734369       -8.86756561958238
H           -7.32916140088186        6.51331117019599       -9.41841541006777
C           -8.69868897346170        6.63614196679329       -7.80302512585012
C           -8.54841027693427        4.82330665599772       -9.03668689854147
H           -8.20901937589664        4.15552917178644       -9.80089668651556
N           -9.47672846810202        4.56160424686968       -8.15323642999666
C           -9.57775441546748        5.67838448052992       -7.37591345145985
H          -10.26944560268941        5.71723399517860       -6.56057048608315
78
 energy: -116.039263650750 gnorm: 0.026710088734 xtb: 6.7.1 (edcfbbe)
Fe         -10.76416558052409        2.68919798829415       -8.04688704583893
N          -10.35637605888168        2.34046984078517       -9.95487739800653
N           -9.18410856903600        1.57875706469494       -7.55732535630192
N          -11.23073896392137        2.98580205920900       -6.12594742617112
N          -12.33971194327309        3.82983772108269       -8.50386911904822
C          -10.93254995150733        2.99507968364096      -10.99825736910424
C          -10.36739754947730        2.53791278926358      -12.24559338856717
C           -9.44043481729380        1.58737767205488      -11.93064942020069
C           -9.44505082397373        1.48047561413080      -10.48758822088753
C           -8.43266206849360        0.77625240218891       -8.36483668471615
C           -7.39473806576301        0.13064975758393       -7.60752491041216
C           -7.49921233159148        0.60624266084258       -6.31662730732861
C           -8.63796526122246        1.50857860725499       -6.32137176549283
C          -10.39882372586740        2.71439469765990       -5.08930969591494
C          -11.03568102137626        3.02015427786976       -3.83525392517951
C          -12.30601302293797        3.43873295781919       -4.13610762534072
C          -12.38545409532864        3.45984947400623       -5.58839404602140
C          -13.24416146605878        4.39948465212706       -7.67083806959216
C          -13.98969225619849        5.43092331734873       -8.36643828219228
C          -13.52424097273674        5.43847084692409       -9.64708854814751
C          -12.52529855608563        4.39269845613182       -9.72688310390508
C          -11.90477299579066        3.97769669574260      -10.89069369575442
H          -12.22049700774232        4.44979640261230      -11.81000557514617
C           -8.59201637242382        0.68243365588798       -9.74157762373162
H           -7.95969200593885       -0.01482650085084      -10.27869285887373
C           -9.14642379394943        2.12921339618104       -5.19259435944305
H           -8.54903419738195        2.08653483393696       -4.29002171559467
C          -13.38095222599638        4.09142902461234       -6.32136487019730
H          -14.27378869152356        4.43383247479539       -5.79977304769910
C           -8.56168524071864        0.85971397431702      -12.89359043628919
H           -8.23253865237869        1.53536370371058      -13.68308993856948
H           -9.09816067322387        0.03488311733394      -13.36656499898797
H           -7.67870078349126        0.45375932125599      -12.40769833143057
C          -10.72386498477515        3.03308270187284      -13.60579724462325
H          -10.23947443420460        3.98998368764383      -13.80967884445909
H          -11.79858495820812        3.17340038666949      -13.70122629561106
H          -10.40343897634913        2.32197087368207      -14.36378307619743
C           -6.41619333864641       -0.86750222759568       -8.11900982433724
H           -6.57176513669253       -1.08888985266242       -9.17274325704373
H           -6.50390105346529       -1.79679932496446       -7.55188103492620
H           -5.39565032269003       -0.49665226844590       -7.99912105191885
C           -6.77802086796329        0.20539520012745       -5.13897921785778
H           -7.23362726291974        0.49859324997477       -4.19979599809485
C           -5.65105529758216       -0.50579534067998       -5.08143232016810
H           -5.11519148354367       -0.82755402467528       -5.95716597552601
H           -5.21022452124267       -0.79654306603888       -4.14123553349923
C          -10.44484122641415        2.76162309000844       -2.49165075603177
H           -9.74104691869374        3.54587115461887       -2.20927753259551
H           -9.90535293329236        1.81501410750963       -2.49730816443786
H          -11.22254890290383        2.70405187391792       -1.73390746975954
C          -13.32326108783318        3.83477062588801       -3.18438125473159
H          -12.96840438477841        4.43307014255848       -2.35017129985865
C          -14.60475604286543        3.49112366061079       -3.23817298738115
H          -14.98170821005151        2.85997934290762       -4.02605781208594
H          -15.31676618078851        3.80705494832215       -2.49399121074910
C          -14.93780054199629        6.38084039041250       -7.72011414792951
H          -14.59022062083496        6.62817297971608       -6.71929032136339
H          -15.93993725180309        5.96223771907603       -7.63716668973596
H          -15.00353391224080        7.30298502827672       -8.29450834315385
C          -13.86150484749525        6.35370618736220      -10.76950217461352
H          -14.55725021833768        7.12531966666713      -10.45265615902387
H          -14.31158486877884        5.80406188528567      -11.59466270188028
H          -12.95565984945770        6.83342780914489      -11.13934202802624
O          -12.08545364281900        0.80805440257193       -8.00936225493318
H          -11.72522668834460       -0.00712805653082       -7.62621357579971
H          -12.80751976313482        0.56000050294401       -8.61137457986055
C           -8.41456144147150        8.00373016649108       -7.34255088495244