78
 energy: -115.984763495787 gnorm: 0.227929701499 xtb: 6.7.1 (edcfbbe)
Fe           9.79600000000000        2.12500000000000       25.56800000000000
N            8.86400000000000        2.28300000000000       27.31100000000000
N            9.80600000000000        4.20700000000000       25.45100000000000
N           10.48000000000000        2.07200000000000       23.59200000000000
N            9.62500000000000        0.23500000000000       25.54400000000000
C            8.50100000000000        1.19900000000000       28.05300000000000
C            7.95800000000000        1.64100000000000       29.28400000000000
C            8.01500000000000        2.99000000000000       29.27400000000000
C            8.57400000000000        3.39300000000000       28.04700000000000
C            9.34300000000000        5.04200000000000       26.39300000000000
C            9.50500000000000        6.38200000000000       25.94500000000000
C           10.04500000000000        6.33300000000000       24.69200000000000
C           10.24500000000000        4.91000000000000       24.40100000000000
C           10.89600000000000        3.12000000000000       22.83000000000000
C           11.49800000000000        2.64200000000000       21.65600000000000
C           11.40500000000000        1.26400000000000       21.68400000000000
C           10.76600000000000        0.95000000000000       22.91700000000000
C            9.94300000000000       -0.61000000000000       24.55000000000000
C            9.59200000000000       -1.98900000000000       24.86500000000000
C            9.08100000000000       -1.94200000000000       26.08700000000000
C            9.09200000000000       -0.52600000000000       26.48900000000000
C            8.59100000000000       -0.11700000000000       27.69200000000000
H            8.24700000000000       -0.87400000000000       28.39700000000000
C            8.78800000000000        4.68900000000000       27.64700000000000
H            8.51500000000000        5.49100000000000       28.33300000000000
C           10.78500000000000        4.45200000000000       23.20000000000000
H           11.14900000000000        5.20000000000000       22.49600000000000
C           10.51500000000000       -0.31100000000000       23.31900000000000
H           10.77200000000000       -1.13200000000000       22.65000000000000
C            7.55300000000000        3.90200000000000       30.38200000000000
H            7.49700000000000        3.33100000000000       31.33299999999999
H            6.54500000000000        4.30300000000000       30.14200000000000
H            8.27500000000000        4.73800000000000       30.50600000000000
C            7.40900000000000        0.78000000000000       30.39700000000000
H            8.22600000000000        0.52500000000000       31.10600000000000
H            6.99200000000000       -0.15900000000000       29.97400000000000
H            6.61700000000000        1.33400000000000       30.94400000000000
C            9.05500000000000        7.60300000000000       26.72400000000000
H            9.88000000000000        7.94600000000000       27.38500000000000
H            8.17500000000000        7.34500000000000       27.35100000000000
H            8.79300000000000        8.42200000000000       26.02000000000000
C           10.47600000000000        7.40000000000000       23.76200000000000
H           10.73400000000000        7.13600000000000       22.72600000000000
C           10.57300000000000        8.68500000000000       24.10600000000000
H           10.32800000000000        9.00900000000000       25.12800000000000
H           10.89900000000000        9.43600000000000       23.37200000000000
C           12.10100000000000        3.48700000000000       20.56200000000000
H           13.20600000000000        3.37000000000000       20.56900000000000
H           11.85100000000000        4.55600000000000       20.73200000000000
H           11.71000000000000        3.15800000000000       19.57500000000000
C           11.88500000000000        0.26800000000000       20.67700000000000
H           11.70200000000000       -0.79800000000000       20.87400000000000
C           12.52500000000000        0.55400000000000       19.54300000000000
H           12.74600000000000        1.59800000000000       19.27400000000000
H           12.84000000000000       -0.25000000000000       18.86200000000000
C            9.79300000000000       -3.21600000000000       24.02700000000000
H           10.87700000000000       -3.45200000000000       23.96900000000000
H            9.40800000000000       -3.03700000000000       23.00000000000000
H            9.26100000000000       -4.07600000000000       24.48700000000000
C            8.49900000000000       -3.13000000000000       26.86000000000000
H            9.12800000000000       -4.02900000000000       26.68600000000000
H            7.46700000000000       -3.33800000000000       26.50700000000000
H            8.48900000000000       -2.90200000000000       27.94700000000000
O            7.40600000000000        2.10800000000000       25.05400000000000
H            6.95500000000000        2.18400000000000       25.89500000000000
H            7.02200000000000        2.04500000000000       24.25500000000000
C           15.53400000000000        2.53900000000000       26.01600000000000
H           16.21700000000000        1.66500000000000       26.08100000000000
H           15.83800000000000        3.29100000000000       26.77600000000000
H           15.60600000000000        2.97800000000000       24.99800000000000
N           13.73400000000000        1.50000000000000       27.46200000000000
H           14.34400000000000        1.31600000000000       28.23300000000000
C           14.12700000000000        2.09500000000000       26.27800000000000
C           12.45800000000000        1.22300000000000       27.40900000000000
H           11.90100000000000        0.72300000000000       28.20000000000000
N           11.98200000000000        1.65400000000000       26.24200000000000
C           13.00400000000000        2.20900000000000       25.53300000000000
H           12.83900000000000        2.63900000000000       24.55300000000000
78
 energy: -116.025803894892 gnorm: 0.082843595446 xtb: 6.7.1 (edcfbbe)
Fe           9.75376130106353        2.12160249530087       25.52606122389435
N            8.90672574952308        2.26850228288559       27.32314317678805
N            9.81266685268188        4.18475808272441       25.45197036525581
N           10.48278669268169        2.06919336161476       23.59695728036957
N            9.60634236731271        0.21097177834365       25.52638107573718
C            8.50885637696065        1.20041151644059       28.07007289484750
C            7.94951149483160        1.64476211730452       29.30675587570703
C            8.01246625040261        3.00109696341506       29.29362893636695
C            8.59622216305717        3.38692927166111       28.04674224421165
C            9.35202064745921        5.04135097831259       26.39247865896001
C            9.50128865725187        6.39564267828587       25.93930271174001
C           10.06060541768750        6.34083719840736       24.68813408256829
C           10.24418335200774        4.91572889016723       24.40221844738325
C           10.90745765562810        3.11915824375517       22.83983077564535
C           11.50218450066293        2.64461920384988       21.63329506483394
C           11.42008531225853        1.26826079549923       21.65687324946085
C           10.77943818470239        0.95102972760292       22.90444069602482
C            9.94392956365328       -0.63828118624118       24.53027090749837
C            9.59644379701819       -2.00599668813823       24.86606967526550
C            9.06740080757804       -1.96090231518442       26.10320073752529
C            9.08364767684368       -0.55688638271985       26.50038046356832
C            8.59091330708303       -0.12563304612237       27.70583177080524
H            8.23885140834540       -0.87009125758277       28.40457456365313
C            8.80377471445600        4.68585056483071       27.63030960097185
H            8.52022036276779        5.48185311286192       28.30926507262684
C           10.78439137157016        4.45098861969616       23.21242449709697
H           11.13996974995733        5.19313864331548       22.50940908988287
C           10.51817643967068       -0.32888354980034       23.31547432967842
H           10.76884908988182       -1.14266330633644       22.65315342283449
C            7.55309305949382        3.91129027895692       30.38551797075036
H            7.49473305389814        3.35475507368707       31.32529664788627
H            6.56031730150330        4.31277061582719       30.15258620673003
H            8.25749032899622        4.73810380650446       30.51156274017963
C            7.40837568224693        0.77910099022404       30.39992340205917
H            8.20878257741190        0.52075502527875       31.10380565323861
H            6.99242754785392       -0.14600835039559       29.99086436273690
H            6.62381890829079        1.31321388589810       30.94192864629311
C            9.05342162134779        7.59639339264965       26.72126986042100
H            9.86251331310993        7.94589771699628       27.37591620500293
H            8.18792916644143        7.35157583387471       27.34326310841832
H            8.77184292898679        8.40621283473623       26.04415987926846
C           10.46741020666392        7.40371678769402       23.77542000918196
H           10.72046092309361        7.12423355195122       22.75394193446150
C           10.57508824709701        8.68930300238743       24.10364459598966
H           10.36523547793816        9.03033269244298       25.10568166675779
H           10.89482528620608        9.42963242880674       23.38053521328104
C           12.09822170392324        3.49743981804177       20.56212277005955
H           13.18959883550535        3.38186521102311       20.56000085201818
H           11.85898011282532        4.55055303708469       20.72251647635398
H           11.70557841553478        3.19392558120265       19.58676411339756
C           11.88496871238063        0.28431077382442       20.67659910271270
H           11.69228753205416       -0.76657997348908       20.89328874278023
C           12.52773702684037        0.55131224008951       19.54240063727649
H           12.76907392968778        1.56162704743949       19.25514257339207
H           12.83400751398126       -0.24175236655724       18.87128888874110
C            9.79861072421728       -3.21461652418861       24.01925411746731
H           10.86588897672083       -3.45600493471704       23.95751699548414
H            9.41542457887840       -3.04894645644634       23.00758641479833
H            9.27248024080458       -4.06374091914600       24.46404787438539
C            8.50087861050636       -3.12334022784777       26.86989752498383
H            9.11538534339964       -4.01276944345986       26.69849138226786
H            7.48274581976529       -3.33405986896383       26.52401984821465
H            8.48190541695328       -2.91367725644310       27.94098744520848
O            7.43533881848956        2.11388787987687       25.05821355550062
H            6.95608521469835        2.18449473880804       25.88279341691458
H            7.00116887404459        2.04493652485826       24.22744959713950
C           15.53346028840205        2.53473701353438       26.02158308861283
H           16.21661719755011        1.67962348607819       26.07972354711680
H           15.84496451182820        3.28168786398238       26.76039438113192
H           15.60327879557562        2.97069975696028       25.02198183346840
N           13.74889638674165        1.49814043840784       27.45491021561559
H           14.36129235851981        1.30377307842095       28.22922716782615
C           14.13166363850818        2.10449867355840       26.28326925306360
C           12.43943676902535        1.24527490047873       27.39425837095212
H           11.88921692740479        0.74344084579057       28.17290269888278
N           11.94346858731661        1.68867310209647       26.25208452654945
C           12.98954718709933        2.21025288110133       25.54661201298536
H           12.83485405523894        2.62870471693143       24.56970158083989
78
 energy: -116.037070101825 gnorm: 0.027115941958 xtb: 6.7.1 (edcfbbe)
Fe           9.74812714879746        2.12175677225199       25.50762230170124
N            8.94523196155684        2.25067188995869       27.33662870663665
N            9.80885191033377        4.16362221249550       25.44457975677087
N           10.48168200211418        2.05975576198187       23.60363470281291
N            9.58473455182551        0.18936528685286       25.51244348890301
C            8.52607126403775        1.19641084311008       28.08748537914575
C            7.95046906768050        1.64737058445329       29.32501020158458
C            8.02052166435026        3.00766787458716       29.30754558257959
C            8.62778019818168        3.37440248101874       28.04990647292254
C            9.35774409735855        5.03368713738640       26.38905371833605
C            9.50015680349038        6.39777905546523       25.93891835026832
C           10.07430496992076        6.34080608185406       24.69187022277726
C           10.24411760871929        4.91819573323951       24.40307993538278
C           10.91016267288405        3.11411990397935       22.85121340944276
C           11.50265549703593        2.65096911832388       21.62317330992936
C           11.43081319580230        1.27583729804287       21.64222433614754
C           10.78597517978259        0.94709559919428       22.89648926936124
C            9.93371437717119       -0.66480192743518       24.51532132474959
C            9.59754594116519       -2.02447423820309       24.86845038073894
C            9.05880030811898       -1.97844116881443       26.11291613917555
C            9.07013503373208       -0.58438664973704       26.50419765597118
C            8.59393661506064       -0.13417306505848       27.71576308528192
H            8.23021259737847       -0.86954941136253       28.41268203074793
C            8.82423435693903        4.67385208253547       27.61823375689043
H            8.52459546060765        5.46629121852693       28.28896669437206
C           10.78362106818785        4.44534422882325       23.22248926317557
H           11.13536784625089        5.18213748254586       22.51746272310949
C           10.51518401068341       -0.34247811668665       23.31125730692888
H           10.76739525704937       -1.15373714240843       22.65227626709014
C            7.55754603280802        3.92688448922597       30.38412082919480
H            7.49185868313720        3.38404944064374       31.32285228579948
H            6.57261613677481        4.33182582712315       30.15395482393071
H            8.24940690749439        4.75321500491606       30.51300244236191
C            7.40610169094392        0.77884956881081       30.40558278970135
H            8.19565517797428        0.51255776530308       31.10853284981686
H            6.98970679948700       -0.13825046684542       30.00062010997303
H            6.62358031546005        1.29904358771635       30.94949245586038
C            9.04919472899587        7.58627797848857       26.71914615265926
H            9.85083748231019        7.94553420475850       27.36643814174766
H            8.19530024709346        7.34058324864893       27.34424122577665
H            8.75244338280839        8.39153665020561       26.05464589911301
C           10.46558465815075        7.40279776245120       23.79535537810431
H           10.69475358973232        7.10982229174937       22.77832605395254
C           10.58955881269172        8.69199097189035       24.10710265470198
H           10.40734122624819        9.05872425749532       25.09716284946216
H           10.88836238684068        9.42261955592113       23.37645099526458
C           12.09034148254967        3.51571593987806       20.56464145240125
H           13.17491641254925        3.39952878970202       20.54772959466923
H           11.86155878697068        4.56221213860718       20.72882640861355
H           11.69656939933943        3.23290269770630       19.59100661628275
C           11.88451639072843        0.30388776112143       20.67871779862131
H           11.67406157692993       -0.73314864035871       20.91463014608560
C           12.53508535783334        0.54692691076584       19.54141094760555
H           12.80014520360525        1.53471760757319       19.22825704812384
H           12.82786785702557       -0.24982255533098       18.88100780093491
C            9.80286740810909       -3.22227609645917       24.01178286701806
H           10.86290988796531       -3.46217805237497       23.94016530507651
H            9.42018106836343       -3.05573802308127       23.00837094345333
H            9.28286119929250       -4.07306233963557       24.44086099061448
C            8.50250507469534       -3.12352315616275       26.88227654551463
H            9.10647005958628       -4.01205191769008       26.71631750681113
H            7.48742023665000       -3.33683924557924       26.54728978982261
H            8.47789154050278       -2.91935617572045       27.94609082091718
O            7.47450409913149        2.14657605921537       25.03107370195216
H            6.96222120612853        2.17905168356798       25.84158761513232
H            6.99022570067059        2.04241863837120       24.21062071708659
C           15.53040783579255        2.52865314837910       26.02272218496663
H           16.21037210272399        1.68038875545955       26.07823368844746
H           15.84959114880964        3.27108118144278       26.75254986975468
H           15.59946436627082        2.96600199668520       25.03306035035538
N           13.74951616744752        1.49415886979621       27.44832764821175
H           14.36083594981129        1.27994936582943       28.22141833373612
C           14.12984397263954        2.11228835368481       26.28583849404379
C           12.41561842903672        1.28141307335587       27.38477989216436
H           11.86317767474930        0.78147206752036       28.15391840962292
N           11.92023255392343        1.73112446638302       26.25806457002386
C           12.97857008259871        2.23527469703505       25.55933877343097
H           12.83725884240188        2.64609293489067       24.58215945815076
78
 energy: -116.041581642841 gnorm: 0.029057250785 xtb: 6.7.1 (edcfbbe)
Fe           9.74888291870312        2.12142941002562       25.50059876667548
N            8.97083269694105        2.23553646531965       27.34958064698007
N            9.81936608734879        4.15099400919585       25.44390810507178
N           10.48508780193346        2.05289044810101       23.60923043874207
N            9.57199052130835        0.17272704179756       25.50701584800425
C            8.54333433650394        1.18751176676435       28.10179773916689
C            7.96148960774339        1.64564652152128       29.33921800313422
C            8.03812104116517        3.00666176594886       29.31825438316921
C            8.65667841574107        3.36066103164629       28.05792770771826
C            9.36750851818525        5.02229658799592       26.39059562551499
C            9.50488851061733        6.39015630313240       25.94663066985908
C           10.08439381692762        6.33693253565236       24.70234125439499
C           10.25259923675559        4.91839269468376       24.40786060259013
C           10.91065090801774        3.11122126135752       22.86000904355680
C           11.50226711445522        2.65937229998401       21.62366120088301
C           11.43537752725593        1.28456001460238       21.63811154102282
C           10.78935468878157        0.94324979623790       22.89419042224872
C            9.92353940503819       -0.68313996865065       24.50850013498617
C            9.59416997765974       -2.04080951963456       24.86818765041132
C            9.05328358822658       -1.99351257901460       26.11570266885785
C            9.05994810188694       -0.60314507411439       26.50492632631167
C            8.59694238608366       -0.14306454631536       27.72158083371758
H            8.22408274521069       -0.87424077040641       28.41949830524532
C            8.84234627594106        4.65881385146377       27.61785424075489
H            8.53044130568750        5.44986981504035       28.28321583184115
C           10.78638239813305        4.44176260358808       23.22863786554461
H           11.13624920581347        5.17536760999560       22.52002595028409
C           10.51140176426774       -0.34910558654000       23.30808129679930
H           10.76594789396559       -1.16111881412058       22.64871021899197
C            7.56728309902097        3.94161816450964       30.37961392247644
H            7.49091420505628        3.41321896123297       31.32624351452423
H            6.58512887222143        4.34915901753962       30.13967013982040
H            8.25538475766352        4.77195690516369       30.50634931486969
C            7.40502755672431        0.77707090473568       30.41377886445837
H            8.18802827668499        0.49969909597125       31.12002981252326
H            6.98308656785488       -0.13540457622383       30.00391601357516
H            6.62238341387160        1.29565963118116       30.95974896978688
C            9.04201139726668        7.57330076750073       26.72282885514466
H            9.84257428588270        7.95110400882435       27.36064300682159
H            8.19789498312225        7.31686554294547       27.35716180999107
H            8.72378148480705        8.37143501195014       26.05798309618115
C           10.45954907360310        7.40231777403670       23.80853122621726
H           10.66440552494679        7.10046340704671       22.78918468613228
C           10.60145072905206        8.69391432129079       24.10629236549612
H           10.47405811052655        9.08160794810700       25.10142530273750
H           10.88882777501544        9.41308487750049       23.35952877501869
C           12.07986631333779        3.53637429715951       20.56907059634979
H           13.16366220792518        3.41714115226568       20.53375717940358
H           11.85986783621600        4.58277302535423       20.74901511927699
H           11.67413485216665        3.27291168220013       19.59382655697447
C           11.88266856707460        0.31574526450817       20.67636987039930
H           11.65456678805479       -0.71332950555463       20.92404355782477
C           12.54243054452308        0.53604607576764       19.53816180760442
H           12.84010890115065        1.51127475375158       19.20675879257205
H           12.82242140635612       -0.27571145147196       18.89007834651370
C            9.80449047087930       -3.23415409122871       24.00368789475596
H           10.86518332809159       -3.46886054882658       23.92308074187610
H            9.41925170188247       -3.06016129128582       23.00222737840649
H            9.29085395055402       -4.09400465699675       24.42212374960935
C            8.50214698316938       -3.13275225679616       26.89629653905185
H            9.10100965654729       -4.02535290965749       26.73531577628717
H            7.48290539107962       -3.34777029375797       26.57290072724249
H            8.48083731010015       -2.92265425896998       27.95970379385452
O            7.50596041282282        2.24036180973170       24.98345407709067
H            6.96447728735765        2.14827939626534       25.78781762682495
H            6.99197220302488        2.01676750621794       24.18536640940116
C           15.52489978824741        2.52088007112896       26.02269816433198
H           16.19789851413120        1.66766242268525       26.07600644766588
H           15.85456976587188        3.25983821242911       26.75177209409168
H           15.59609956431607        2.96048397639763       25.03453956804414
N           13.73232515229000        1.49613866527874       27.44295616671645
H           14.34128107958830        1.25575393329729       28.21117146013869
C           14.11979715504367        2.12115517965716       26.28604622834203
C           12.38646092188447        1.31907062525522       27.37730151399288
H           11.82408215940482        0.82526861225818       28.14209458155256
N           11.89954315753612        1.79144308146309       26.26051382933795
C           12.96835847890694        2.27753931371417       25.56508002580831
H           12.84051924084590        2.69385346919186       24.58898038040540
78
 energy: -116.044479965088 gnorm: 0.024871366185 xtb: 6.7.1 (edcfbbe)
Fe           9.75855265702684        2.12273197922328       25.50093057598833
N            8.98497514228042        2.22102708807018       27.35912120874711
N            9.83624931681755        4.14231728078580       25.44759393747534
N           10.48966173164661        2.04801696185575       23.61440324523415
N            9.56206927775823        0.15853550965318       25.50547167434112
C            8.55609681677657        1.17533586925528       28.11320124600535
C            7.97618040012729        1.64038258456171       29.35206318822258
C            8.05975370622857        3.00064340368831       29.32779789504527
C            8.68076478164473        3.34580448254822       28.06664248166549
C            9.37974132774624        5.00912808069192       26.39576831361252
C            9.51308729375729        6.37819598719169       25.95810742135166
C           10.09483888795432        6.33075528757720       24.71611880680346
C           10.26488788135349        4.91651404570759       24.41515639239952
C           10.91116792564109        3.10873661518842       22.86756739289174
C           11.50166739049812        2.66553438208771       21.62847888407712
C           11.43715651042381        1.29116011911669       21.63943428677657
C           10.79087604552634        0.93913910255332       22.89539859064345
C            9.91378768528193       -0.69761363655772       24.50578202093373
C            9.58855959889506       -2.05626883512985       24.86680363810450
C            9.04869021407267       -2.00848822550799       26.11586131346483
C            9.05138334001486       -0.61866391917577       26.50509733322256
C            8.59819404005132       -0.15355918703018       27.72555024540417
H            8.22100350514170       -0.88261172219904       28.42590061358773
C            8.85980223505113        4.64226399193894       27.62364804203878
H            8.54116231166352        5.43217795492880       28.28657686810251
C           10.79231863194547        4.43893218739105       23.23420749083963
H           11.14026228833164        5.17079885787433       22.52235493419869
C           10.50710236022860       -0.35292781296916       23.30707659931449
H           10.76339276443174       -1.16639234151455       22.64656285155677
C            7.58242009993495        3.95399419571207       30.37273910121425
H            7.49291710550009        3.44342684637721       31.33022853267076
H            6.60313474717840        4.36314609787643       30.11527026986736
H            8.27114018446500        4.78739147721360       30.49311477499316
C            7.40600440417757        0.77396029831713       30.42360088426963
H            8.18275288349743        0.48280901521142       31.13355671119070
H            6.97399614451510       -0.13305594610904       30.00711349911019
H            6.62565647820833        1.29836042330504       30.97052111068583
C            9.03786473271882        7.56136529897005       26.72605332637634
H            9.83647949369262        7.96060302978662       27.35511025294943
H            8.20146782215774        7.29557830846848       27.36970911580955
H            8.70625737803123        8.34855055789129       26.05132040313717
C           10.45888630143677        7.40056756602132       23.82220603016870
H           10.61959991380450        7.09917940557392       22.79211958619318
C           10.62527102032921        8.68998996154466       24.11538351777542
H           10.52184220819368        9.09171071587252       25.10855040039793
H           10.88351258823195        9.40338367577483       23.34812280681036
C           12.06925525062353        3.55057819826423       20.57303772540404
H           13.15307433518689        3.42994103611655       20.51886061661487
H           11.85701594241245        4.59821641980064       20.76875364628679
H           11.65020064959331        3.30011424315702       19.59807751352057
C           11.88187214271700        0.32313171566345       20.67376498410703
H           11.63248784532760       -0.70091156138438       20.92178173007083
C           12.55230749316033        0.52776094977223       19.53940405600840
H           12.86835504690226        1.49513940740402       19.19430887359395
H           12.81676565761624       -0.29852315640580       18.89929701698422
C            9.80501869246886       -3.24653304952134       23.99573784861550
H           10.86840115210992       -3.47335935553216       23.90706284170884
H            9.41538292910933       -3.06600184494764       22.99497081738918
H            9.29991603028550       -4.11682022863655       24.40680056385164
C            8.50309072953264       -3.14548517370271       26.91042040218453
H            9.09860686094634       -4.04229155113350       26.75304579665104
H            7.47780568769279       -3.36222177580040       26.60166702441125
H            8.49258571687645       -2.92499404770964       27.97428779613256
O            7.53640464747938        2.28436819651183       24.93356144103373
H            6.98002251861847        2.15104641503933       25.71813657891011
H            7.01735153399061        2.01418553636132       24.15549441891458
C           15.51502124227884        2.51200751837474       26.02315874076152