78
 energy: -116.058135082904 gnorm: 0.000056189243 xtb: 6.7.1 (edcfbbe)
Fe           9.69379879744325        2.14703713707895       25.39749319600495
N            8.89734184249187        2.21439691948526       27.24454774054457
N            9.79048087569735        4.13690556544312       25.36373746073260
N           10.42676967310672        2.05908757605867       23.54444415049382
N            9.53205924183315        0.13871477483055       25.42454949026996
C            8.50977746669617        1.16155257789476       28.01557447487010
C            8.03158678446758        1.61780974316244       29.30074811786910
C            8.15079509051679        2.97323912924847       29.29341720448719
C            8.69337687783669        3.32714148987205       28.00144748381957
C            9.44560759984289        4.99210238325834       26.36319395298476
C            9.67867140805857        6.36039041894457       25.97270825622154
C           10.18207839921273        6.31595911511169       24.70072189254016
C           10.23455221298154        4.91048137404836       24.34195888480824
C           10.79282278754029        3.11278922188698       22.76655458206472
C           11.30459165087664        2.66177792831765       21.49668199595623
C           11.24680587071463        1.29422113644316       21.52401784358399
C           10.68554278289708        0.94457147148289       22.81578781344809
C            9.93600113132294       -0.72239890018345       24.45178005708495
C            9.70605030983681       -2.09112395623871       24.85359716174798
C            9.15366459118716       -2.03812227727314       26.09632651375256
C            9.06046044221616       -0.63775397082687       26.43929428529626
C            8.57041454468199       -0.17017261505848       27.64527603809746
H            8.22785414838478       -0.90199935481753       28.36083275473485
C            8.94532598964717        4.62344878523285       27.59970589555051
H            8.73517836793944        5.41037532590500       28.30769490425772
C           10.71165854398027        4.44461448775937       23.13264830178203
H           11.05775871276643        5.17653515414957       22.41871040062521
C           10.47778192987609       -0.35608696272931       23.23465066723189
H           10.75908254533379       -1.15029800724425       22.56040947934796
C            7.80645683645811        3.95663368116348       30.35875121615433
H            7.42778234880498        3.45208140572438       31.24432234142929
H            7.04291785996084        4.65097972401604       30.00701508816589
H            8.68469359108683        4.53660950758415       30.64282930140058
C            7.52333560457639        0.71954458356277       30.37632870975649
H            8.29791940267179        0.01967901627207       30.69170274908232
H            6.67011591182936        0.14042913654588       30.02209779635096
H            7.20917769590245        1.29473868228859       31.24370003232094
C            9.34803869348135        7.55586006632376       26.79635493814142
H           10.13176694810097        7.75272088748228       27.52993799874761
H            8.41285475661689        7.40661363061334       27.33395815690301
H            9.24667323662130        8.43148957533636       26.15850733835670
C           10.56654833316989        7.40472235895995       23.82997117461784
H           10.38317010144737        7.24609236767959       22.77360155166361
C           11.11796726820526        8.54849545621965       24.22281374154657
H           11.36540801855277        8.74131167415570       25.25218998355305
H           11.36591640603353        9.32566576573938       23.51893524688429
C           11.72699803422560        3.54957158857427       20.37873380667260
H           12.74613965267962        3.90978718513311       20.52971066953799
H           11.07054226732033        4.41532610300900       20.30679228708526
H           11.69064106216086        3.00621872288718       19.43674854319761
C           11.61742225069045        0.34235783352224       20.50038591937679
H           11.01292308126092       -0.55625343952783       20.45508676089986
C           12.62194575902793        0.48506550982150       19.64176612165873
H           13.28397775734983        1.33282175488895       19.67047636623306
H           12.83302411167602       -0.25997778243185       18.89253692294222
C           10.03054015956838       -3.27927034725617       24.01491670747897
H           11.09276656467107       -3.29650848430240       23.77048142728070
H            9.46988679826196       -3.25327691234465       23.08011338897964
H            9.78345942841183       -4.20096249345929       24.53615199854843
C            8.71256750312521       -3.15249015122752       26.98273559228926
H            8.87016636656803       -4.11442382408765       26.50138018328082
H            7.65265395128843       -3.05798867185383       27.22043839107254
H            9.27009536966749       -3.14307621392998       27.91995059577230
O            7.53965286729512        2.16123712456743       24.61016979938112
H            7.06918825321742        2.27231329167181       25.44362563439315
H            7.45475013492160        1.23505127380235       24.35882841700864
C           15.11376409316660        2.79652723235768       26.52859009576406
H           15.77734214528767        1.95575024886425       26.32668431545502
H           15.39142942369294        3.22653948345344       27.49084742935542
H           15.25801744236956        3.54660650057315       25.75743987849078
N           13.21738196374646        1.42149435585206       27.41439086020505
H           13.75673732363145        0.94781653479176       28.12028185340165
C           13.69511257801752        2.35854091570152       26.53602811447180
C           11.90097933262876        1.25229639110255       27.15695919030707
H           11.26667442833821        0.57665163030006       27.69236732070361
N           11.51653872898185        2.02447940531503       26.16999448130173
C           12.62154097235589        2.71906736229259       25.77316974227330
H           12.57050656148624        3.42684468104460       24.97168881993431
