72
 energy: -105.980614362201 gnorm: 0.000108030130 xtb: 6.7.1 (edcfbbe)
Fe          25.29413398929923       28.07024540693513       18.90955040408038
N           25.53908456766619       26.53802391415673       20.15672568270604
N           23.71483759725479       28.69126185799877       19.94780544344783
N           25.03012512703556       29.57927947791967       17.59738131495020
N           26.83657835540460       27.39915093734134       17.79877054548150
C           26.45322422767775       25.53793644715782       20.06679164995563
C           26.32502624012381       24.62426725819455       21.18161886194250
C           25.30981999283264       25.10096062119116       21.94873085219390
C           24.82427352444540       26.29190963459158       21.28439832298863
C           23.23397870891600       28.14765988879504       21.09549714889440
C           22.08156039025902       28.87589859180150       21.56651613193609
C           21.87225620287455       29.88482479929154       20.66703702201716
C           22.91145263070906       29.74652444888425       19.66329768786297
C           24.07254292493949       30.54646078778602       17.65397558718376
C           24.23362326398230       31.48834786028844       16.57817885590753
C           25.32521822471185       31.07288636214892       15.86129550731920
C           25.80999675991697       29.88090216841237       16.52517505754903
C           27.35070648224981       27.97408032725833       16.67603235944597
C           28.45431236528126       27.19515332203498       16.16456698444465
C           28.59261320403522       26.13080255745363       17.00168510847464
C           27.57625513006863       26.27685027464749       18.01703283080367
C           27.40056540971082       25.39909196051451       19.07005951136910
H           28.06039326307381       24.54727107636127       19.12261692338661
C           23.75954788599255       27.04215559548181       21.73846488389541
H           23.28816637942043       26.72858297126180       22.65686710175205
C           23.07138141371600       30.61865412447451       18.60558293333299
H           22.36855836740043       31.43260618328167       18.52169278495148
C           26.88761380234175       29.13466040946855       16.08472253410592
H           27.40075713809645       29.47498618641534       15.19914143537986
C           24.74766891835897       24.55857087209356       23.21699232256323
H           25.29955477420664       23.67930897460703       23.53983853859656
H           23.70314860925026       24.27733621416858       23.08173570410277
H           24.79708597736007       25.30568248541931       24.00924707870547
C           27.17889379224125       23.42009695859534       21.38287000053528
H           28.22857228693235       23.70262091680972       21.46945492164436
H           27.08081766200801       22.73659254063586       20.53941475535552
H           26.89147340615368       22.88998963322313       22.28728183792798
C           21.26801011157764       28.51323894866757       22.75863363275037
H           21.73498933652840       28.88098739741172       23.67366263176518
H           21.16725919255822       27.43225297737475       22.84148224421184
H           20.27507349733099       28.95087817755713       22.67947011723650
C           20.83529923863778       30.89340218209733       20.64562178268779
H           20.48811325638877       31.18787604512608       19.66192738772910
C           20.30100917031062       31.46895209770125       21.71741672746160
H           20.64135396032505       31.24941108943208       22.71423878494694
H           19.51937905522639       32.20528757013256       21.63076140111277
C           23.39891340044562       32.70289253307413       16.37262009614108
H           23.14459326254942       33.15969491067058       17.32763189525541
H           22.46915765885059       32.45459968454931       15.85789931938540
H           23.94066209136162       33.42999515874986       15.77136030417311
C           25.93499334436832       31.66923685456931       14.69286860647797
H           27.01286303937248       31.57540044909041       14.62750125861082
C           25.28226644988262       32.29744387316608       13.72088439798313
H           24.20939495304331       32.37924122174365       13.71091542434413
H           25.80190387819635       32.73216030253449       12.88335790564533
C           29.23849059190623       27.54838093684508       14.94829811749391
H           29.71464168998834       28.52191662131082       15.06802200342258
H           28.58965250316076       27.59544710730108       14.07336100932629
H           30.01350872536198       26.80962148161354       14.76047143231749
C           29.56881607980059       25.00684854968056       16.94794462845205
H           30.18707724784364       24.99127195323337       17.84603190913483
H           30.22231908391325       25.10357679411469       16.08465354231084
H           29.04872180738517       24.05123856714371       16.87974482427124
O           23.96646011219823       26.86100734638928       17.56714199551668
H           23.50451695514912       27.55917914728455       17.08889173064224
H           24.61796687024200       26.48671372368843       16.96273101599825
C           28.04352852334101       28.46521802772822       20.87920845713244
H           27.60455148446759       27.98396104159983       21.74687749375056
H           28.86263085697986       29.11010060019690       21.18230427266156
H           28.37290964358049       27.71384408891330       20.16987867884895
S           26.72723576312339       29.48420561216568       20.12564164696459
H           27.46991816865009       29.89088288007055       19.09049669663264
