72
 energy: -105.889274522525 gnorm: 0.239817993253 xtb: 6.7.1 (edcfbbe)
Fe          25.42300000000000       28.07900000000000       18.86900000000000
N           25.51400000000000       26.35400000000000       19.99600000000000
N           23.71000000000000       28.65400000000000       19.84900000000000
N           25.05100000000000       29.55300000000000       17.46800000000000
N           26.88600000000000       27.24900000000000       17.67700000000000
C           26.51100000000000       25.38300000000000       19.96200000000000
C           26.37100000000000       24.55800000000000       21.15100000000000
C           25.32800000000000       25.02300000000000       21.85800000000000
C           24.76700000000000       26.15600000000000       21.14800000000000
C           23.23200000000000       28.07900000000000       21.01600000000000
C           22.19300000000000       28.93400000000000       21.56600000000000
C           22.05300000000000       29.98000000000000       20.72900000000000
C           23.02300000000000       29.82900000000000       19.65100000000000
C           24.18800000000000       30.61000000000000       17.63100000000000
C           24.47100000000000       31.59900000000000       16.61500000000000
C           25.49000000000000       31.13500000000000       15.86700000000000
C           25.87300000000000       29.83500000000000       16.40100000000000
C           27.31400000000000       27.82500000000000       16.49600000000000
C           28.34000000000000       26.96300000000000       15.94100000000000
C           28.49300000000000       25.91300000000000       16.75700000000000
C           27.57700000000000       26.07100000000000       17.87200000000000
C           27.44300000000000       25.22200000000000       18.95700000000000
H           28.11900000000000       24.36900000000000       19.02200000000000
C           23.68000000000000       26.89699999999999       21.56300000000000
H           23.11800000000000       26.50700000000000       22.41100000000000
C           23.20900000000000       30.70300000000000       18.60000000000000
H           22.52000000000000       31.54400000000000       18.52800000000000
C           26.87500000000000       29.00700000000000       15.93700000000000
H           27.37700000000000       29.32400000000000       15.02300000000000
C           24.80300000000000       24.46400000000000       23.20900000000000
H           25.60100000000000       23.86600000000000       23.69800000000000
H           23.92300000000000       23.81100000000000       23.02800000000000
H           24.52100000000000       25.30400000000000       23.87900000000000
C           27.29400000000000       23.38500000000000       21.55200000000000
H           28.01800000000000       23.72900000000000       22.32200000000000
H           27.85600000000000       23.02900000000000       20.66200000000000
H           26.68600000000000       22.55600000000000       21.97400000000000
C           21.39400000000000       28.62200000000000       22.86300000000000
H           21.92200000000000       29.05700000000000       23.73800000000000
H           21.31600000000000       27.52200000000000       23.00000000000000
H           20.37900000000000       29.06900000000000       22.79600000000000
C           21.10800000000000       31.20200000000000       20.80800000000000
H           20.86800000000000       31.74200000000000       19.88100000000000
C           20.54600000000000       31.66600000000000       21.93500000000000
H           20.74100000000000       31.17500000000000       22.90000000000000
H           19.88300000000000       32.54300000000000       21.90800000000000
C           23.69800000000000       32.93800000000000       16.47800000000000
H           23.34200000000000       33.26500000000000       17.47800000000000
H           22.82000000000000       32.79800000000000       15.81200000000000
H           24.37000000000000       33.71900000000000       16.06200000000000
C           26.18000000000000       31.78600000000000       14.63700000000000
H           27.18800000000000       31.44400000000000       14.36200000000000
C           25.64600000000000       32.74700000000000       13.86500000000000
H           24.64099999999999       33.14000000000000       14.07800000000000
H           26.20700000000000       33.15300000000000       13.01000000000000
C           29.07900000000000       27.23300000000000       14.61200000000000
H           29.61400000000000       28.20499999999999       14.67600000000000
H           28.34700000000000       27.27900000000000       13.77800000000000
H           29.81900000000000       26.42600000000000       14.42300000000000
C           29.47600000000000       24.73100000000000       16.57600000000000
H           30.49100000000000       25.03800000000000       16.90800000000000
H           29.52000000000000       24.44000000000000       15.50500000000000
H           29.14200000000000       23.86800000000000       17.19000000000000
O           23.03800000000000       27.26400000000000       17.36100000000000
H           22.29100000000000       27.43600000000000       17.93500000000000
H           23.00300000000000       26.92600000000000       16.53900000000000
C           27.58900000000000       28.50800000000000       21.36000000000000
H           26.96000000000000       28.30400000000000       22.25300000000000
H           28.54500000000000       28.95200000000000       21.70900000000000
H           27.80000000000000       27.53900000000000       20.86000000000000
S           26.74700000000000       29.64900000000000       20.19900000000000
H           27.62300000000000       29.48300000000000       19.21800000000000
72
 energy: -105.941104990403 gnorm: 0.097833533366 xtb: 6.7.1 (edcfbbe)
Fe          25.30355502370744       28.00384580621694       18.78193061700013
N           25.53128853912882       26.37314557069546       20.01918849834465
N           23.71912549090470       28.67463211296556       19.87125072455751
N           25.07813462647345       29.57580089418329       17.48389201566804
N           26.87946658618679       27.26008848971011       17.68037142079131
C           26.50258041093817       25.39589174488254       19.97731889267081
C           26.37718293160041       24.55121970623701       21.15443039639601
C           25.32013277499873       25.01509492625782       21.86730962086379
C           24.77743344764857       26.15219179730712       21.14676537963878
C           23.22795460872310       28.09457021455038       21.01377022683900
C           22.17509781702799       28.93339800586455       21.56651259296606
C           22.03678470766485       30.00163251649052       20.72792512718257
C           23.01464492502381       29.82561831591388       19.65696193356864
C           24.19923216691848       30.61245580423397       17.62296454439259
C           24.46272457705706       31.60751520692240       16.60057948475867
C           25.49588220773840       31.14111342793948       15.83931926582787
C           25.87676744208688       29.84985028724293       16.40800744485144
C           27.31763260168402       27.81877793864266       16.50434325859891
C           28.34310929761468       26.96465795990430       15.92957593713115
C           28.50015909739351       25.90566610969103       16.75976059032305
C           27.57747874080511       26.09215529906912       17.86883575603364
C           27.43351150031061       25.24292145767872       18.95923311214596
H           28.10447563820063       24.39032360962864       19.02015421203216
C           23.68418379300545       26.90191792602083       21.55789993643046
H           23.13677413503351       26.51909618555713       22.41323475543478
C           23.21258055386369       30.69770447752970       18.59761533103326
H           22.53530421811478       31.54145587865947       18.53226905587371
C           26.87717394926090       29.00848644989727       15.94279153670076
H           27.37533502522062       29.31729728563632       15.03006487183695
C           24.80951318827640       24.47353297979556       23.19134401551896
H           25.58787736852837       23.88130250912317       23.68322789661334
H           23.93833001380101       23.82846998298032       23.02889244023670
H           24.52465420625787       25.29067649441493       23.86191109868032
C           27.28574952991743       23.40112311572498       21.54264181379470
H           28.00443655847203       23.72712896547598       22.30547623171945
H           27.84584917277276       23.03401242037145       20.67832715580623
H           26.69893633613317       22.57555958975287       21.95967092863082
C           21.40605705022671       28.62304117111885       22.84036608114728
H           21.91748158274136       29.04768587566416       23.71373233850252
H           21.31856652225326       27.54223904384470       22.99079018014002
H           20.40069674429494       29.05280525434368       22.78814452986440
C           21.11785620218314       31.17821157513637       20.81622962540735
H           20.89408803979779       31.70517616558718       19.88886144199480
C           20.55547143717032       31.64784467744271       21.92819589098604
H           20.74220978676559       31.19307569758167       22.89207434965356
H           19.90152245274002       32.51557923966113       21.90536133602448
C           23.70784320261128       32.91910243942276       16.48316533323436
H           23.35093378008640       33.25242861861265       17.46292608614380
H           22.83949510191185       32.79713178377339       15.82407738692046
H           24.35867913672039       33.69812051280987       16.07441273022695
C           26.16166691873036       31.77865892164586       14.65660886252671
H           27.16030074032675       31.42694355889681       14.39704173400111
C           25.64195435419640       32.73158833468696       13.88335499647692
H           24.65105860370776       33.12813483491176       14.06026516056216
H           26.19361569629529       33.13587873758133       13.03815973195196
C           29.07018036163558       27.23368223789605       14.62845588808168
H           29.60339421774588       28.19009126628060       14.67768466093109
H           28.35932467311169       27.27736571748456       13.79580833838241
H           29.80074993258362       26.44367782901669       14.42944711401773
C           29.46294473277768       24.74560443229576       16.58402071056048
H           30.47107598209605       25.03601256255981       16.90514446636630
H           29.51464987023549       24.44636354627808       15.53164791218378
H           29.14682961717767       23.88344105191929       17.17734565522096
O           23.07862222484308       27.27039350012868       17.40106647980604
H           22.30446522568133       27.44840560799275       17.93155503734030
H           23.00593330145210       26.93204340979843       16.52557162523105
C           27.60371730798040       28.49677700230616       21.36595388195458
H           26.95662599252167       28.31843461161167       22.23045550347153
H           28.53742402429835       28.95680121962672       21.70413746451949
H           27.80007781486153       27.54532719687621       20.86579299526883
S           26.73715821247417       29.59910332433159       20.19342033704662
H           27.64027594726986       29.49049757770699       19.22095601295895
72
 energy: -105.958598312813 gnorm: 0.030339703655 xtb: 6.7.1 (edcfbbe)
Fe          25.24126568978488       27.97676403434722       18.74771775260322
N           25.51630611239138       26.38146260424551       20.01482019362867
N           23.71366944581908       28.67264114350726       19.86607725889457
N           25.08887427504500       29.57636116596573       17.49588366367556
N           26.83556991506175       27.25449255874414       17.66086730730793
C           26.48452642126945       25.41804949578085       19.98149902855522
C           26.37872948890638       24.55953556803891       21.14941121037551
C           25.31355718233855       25.02012362556730       21.86808706194245
C           24.78132307502611       26.15655619770197       21.13875929677058
C           23.22528608536454       28.10149010646375       21.00122876496321
C           22.16908605147344       28.92647819309577       21.56053043738510
C           22.03057209847809       30.00960174692014       20.72181651810268
C           23.01148863408875       29.81577693701176       19.65592685827911
C           24.20977990943510       30.60551829168434       17.62254349200249
C           24.45330749661071       31.60269746127295       16.59690896722359
C           25.49553272928635       31.13521582111878       15.82733817019079
C           25.87513265249072       29.85220502744832       16.42037154034173
C           27.30247100837398       27.80917990238234       16.50516704986788
C           28.33805254493048       26.97075727478423       15.92764294232395
C           28.49676605256765       25.90786380902819       16.76925708826950
C           27.55697640096819       26.10998124186922       17.86057967968647
C           27.41681270403960       25.27113625300456       18.96004710839775
H           28.08815453245140       24.42353029054751       19.02274540378841
C           23.69255226577125       26.91323175508228       21.55583273267166
H           23.16421869695369       26.54170996167106       22.42404972584255
C           23.22311419071769       30.69307392782435       18.60067244050675
H           22.55685228039296       31.54110781824152       18.54009885626152
C           26.87385842014718       29.00903709711277       15.94811071967183
H           27.37399387923634       29.31418227926791       15.03966658961039
C           24.81519617523725       24.48783732355873       23.16965671686690
H           25.58443532495662       23.89891689074246       23.66143891215723
H           23.94731178941205       23.84620532433048       23.02218127838288
H           24.52807209470252       25.29173477335180       23.84155723714566
C           27.27674964578378       23.42643787657243       21.52822089070947
H           27.99357517774739       23.74085560029811       22.28790158616659
H           27.83665045834599       23.05036957801040       20.67939017228749
H           26.70255243500218       22.60170190994167       21.94410297626472
C           21.41800600474000       28.62060690484748       22.81156366129594
H           21.92190734611283       29.04182607537222       23.68237196294196
H           21.32916713515814       27.54975878342644       22.97038323388594
H           20.41676047978198       29.04037363357485       22.76913901851320
C           21.13760347110776       31.14407343400657       20.81781456884053
H           20.92578152101922       31.65724475205214       19.88676302858087
C           20.57252024056682       31.62494953966103       21.92113696912441
H           20.74995534179909       31.20395078992304       22.89156749040150
H           19.91797830536511       32.48106687519699       21.89441988172604
C           23.71656240659622       32.89332586808638       16.48706428428563
H           23.35995182443010       33.22637409054452       17.45725090870757
H           22.85265648495786       32.78934725377134       15.83005554401469
H           24.35836052642646       33.67090778293652       16.08374057671520
C           26.13628854629887       31.75313281646326       14.68558392993375
H           27.13084455240488       31.39406394429425       14.44547266356163
C           25.63091999495462       32.70410519973098       13.90375423956923
H           24.64694712630228       33.10819259909491       14.04227511854382
H           26.18639100682030       33.11134415828305       13.07383517144630
C           29.05827125271721       27.23673226975195       14.64923519887486
H           29.58995547166617       28.18509120812129       14.68909917305645
H           28.36156505049690       27.27839488942461       13.81411300491872
H           29.78383169092775       26.45518445937241       14.44651025356104
C           29.44580907045741       24.76605047384722       16.60011114259135
H           30.45146754340370       25.04567642793624       16.91452661196762
H           29.50264286629769       24.46372130423320       15.55667792419470
H           29.14083824554634       23.90118168820398       17.17908601742417
O           23.17086602748968       27.21684855103625       17.47373478998519
H           22.35229035258142       27.49765606320560       17.91430069496043
H           23.03253673151735       26.99242690354254       16.53348570491245
C           27.61175261873852       28.48526227960441       21.36413137868082
H           26.94988060466794       28.33411119139450       22.20970276962306
H           28.52722747808251       28.96324075279267       21.69373770586286
H           27.80750753480909       27.54022689864612       20.87671939940090
S           26.74075329131789       29.57924368391947       20.19030204821804
H           27.65582851383122       29.49848558716637       19.22022630055675
72
 energy: -105.963382485056 gnorm: 0.054155656114 xtb: 6.7.1 (edcfbbe)
Fe          25.20260477578196       27.95579756912239       18.72083211914265
N           25.49759211691460       26.38945077095009       20.00981766817834
N           23.71263771814391       28.66402760328311       19.85998471452212
N           25.07913684606330       29.56263411673848       17.49680670312752
N           26.80158780979502       27.25146371987747       17.64375081430198
C           26.46846087981150       25.43348483632914       19.97521468699125
C           26.37560540305537       24.57745965236978       21.14206574807598
C           25.31234091937549       25.03318517846114       21.86478688940028
C           24.77442457154574       26.16344540826075       21.13717243823643
C           23.22603951661288       28.09715738749771       20.99624292764255
C           22.17478294375355       28.91679176010582       21.55468586310075
C           22.03621523266607       29.99926163465145       20.71713398307481
C           23.01220682667705       29.80641946327784       19.65229488352053
C           24.20526695371754       30.59396958043105       17.62680573968208
C           24.44047582023155       31.58646684521974       16.60259649276150
C           25.48145769674988       31.11848980567672       15.83354196593889
C           25.86436887641874       29.84102547572518       16.42424327926384
C           27.27955146031512       27.80506712157865       16.49648579950649
C           28.32532493291931       26.97685138132564       15.93219969501132
C           28.48245110429274       25.91806602713274       16.77790521825465
C           27.53022137813227       26.11685170923444       17.85406855524881
C           27.39871741733321       25.28655615960836       18.95630754252048
H           28.08157124536984       24.45123836229365       19.02867930108873
C           23.69410411706056       26.91936602988224       21.56317622284999
H           23.18688951106753       26.56644533912715       22.45148936191375
C           23.22421993176599       30.68850146818890       18.60500532786804
H           22.57193927315512       31.54778542983576       18.55464809122034
C           26.86152334366136       29.00650111333141       15.94270014765142
H           27.37078247612054       29.31769931477242       15.04222570731339
C           24.81584273636259       24.50086669549496       23.16370626832598
H           25.58926166148346       23.91208292832313       23.65079355886365
H           23.94655378743151       23.85942064174085       23.01507646421953
H           24.52836296112414       25.30665031061529       23.83502389683574
C           27.27771867580376       23.44872585116750       21.51425501423280
H           27.99545422650698       23.76643329961158       22.27313101145761
H           27.83592264539121       23.07359571445021       20.66237924294515
H           26.70267464712418       22.62368960671306       21.93108974803820
C           21.42028730986084       28.60826687651075       22.79756922739521
H           21.92413641969804       29.03466427963645       23.66672430371374
H           21.33757880402608       27.53545540208886       22.95341290655768
H           20.41778134212064       29.02665523242129       22.74777537900026
C           21.14257429084446       31.12518690461632       20.81069472068699
H           20.93320391472670       31.62990385275629       19.87470764407490
C           20.57644745657385       31.60900027579086       21.91350181880854
H           20.76877791290093       31.20947104227593       22.89272865977721
H           19.91801977072829       32.46051928677856       21.87872963838528
C           23.71237650968326       32.87790757878116       16.49291345261586
H           23.35562128557855       33.20645224797732       17.46562657922286
H           22.85058061322182       32.78152180396031       15.83011367060031
H           24.36480867409934       33.64995471718930       16.09265788987291
C           26.12570980805593       31.73061491654092       14.69985010653811
H           27.12105931570281       31.36524781628178       14.47372777367736
C           25.62518259835385       32.67892525109632       13.90979783694454
H           24.62985504909581       33.07081285040346       14.01956959798234
H           26.19257800332408       33.08442306271210       13.08861167492176
C           29.05162516181676       27.24521732553784       14.66059197125842
H           29.58129663871161       28.19573154778049       14.70375870307103
H           28.35680718527600       27.28516243916513       13.82218271492792
H           29.77877291488197       26.46220569756819       14.46399737770874
C           29.43488892513916       24.78077614942104       16.62050550058023
H           30.43906395132330       25.06442874811985       16.93917016943867
H           29.49453488287807       24.47957840387392       15.57575206454284
H           29.12773733851832       23.91490843330578       17.19910484968096
O           23.27416148953497       27.16322923970704       17.53344109703619
H           22.44251215681606       27.57486104808611       17.90039599612583
H           23.10546072425110       27.05568694294415       16.55656738464508
C           27.61356505936167       28.48096576141774       21.35764672690807
H           26.93902400384147       28.34439236495338       22.19704131063937
H           28.52136640038868       28.97633033155088       21.68787427703059
H           27.82271383135036       27.52727836952403       20.88994978058455
S           26.73787258724527       29.54893804997134       20.16084699415813
H           27.68172523033402       29.50040043685296       19.21213710855927
72
 energy: -105.963882483810 gnorm: 0.053266878860 xtb: 6.7.1 (edcfbbe)
Fe          25.17417975044565       27.94391165842214       18.70451611706572
N           25.47200652936201       26.40328952706017       20.00201373910273
N           23.71742354285058       28.64994287630033       19.85001121038145
N           25.06968320919113       29.53984412937874       17.50276743895594
N           26.75185192779018       27.24675653390371       17.61956453944648
C           26.44719115348971       25.45704227521682       19.96592015027069
C           26.37229700878167       24.60481275883971       21.13129843065680
C           25.31262352426212       25.05267196665290       21.85892194814858
C           24.76488034920561       26.17352441375476       21.13447065726370
C           23.22950084285364       28.08816476415707       20.98744959727061
C           22.18532640298644       28.89994638016068       21.54324791616084
C           22.04698855330211       29.98001835712553       20.70824830673229
C           23.01580182379005       29.79068603996797       19.64543220777677
C           24.20069222032484       30.57459788689098       17.63446342985026
C           24.42320585678727       31.55855444489536       16.61181871517361
C           25.46059241242969       31.08973591898227       15.84425714070065
C           25.85114234985641       29.82174304219982       16.43133755043383
C           27.24673103963066       27.79864354399290       16.48424437023005
C           28.30764120067132       26.98489706982084       15.94136177602945
C           28.46231661734554       25.93388491325472       16.79275370334100
C           27.49186362095219       26.12679922501302       17.84655825291622
C           27.37556289320245       25.31000436626018       18.95302933893046
H           28.07473594199754       24.49218324817178       19.03912780190449
C           23.69797541400811       26.92761281352951       21.57460525107757
H           23.21914362748522       26.60059879514312       22.48881081139005
C           23.22742758592061       30.68057093218342       18.61121784234671
H           22.59419336731950       31.55473735813464       18.57376995704063
C           26.84600619114510       29.00199381874508       15.93498428312092
H           27.36760047796331       29.32107397404065       15.04530406544798
C           24.81861770615754       24.51919407356293       23.15644684161259
H           25.59830796866040       23.93062118464548       23.63770899582582
H           23.94720083872631       23.87747086277005       23.00581442700596
H           24.53059199930312       25.32824322365774       23.82715167261192
C           27.28156653263602       23.48121184032741       21.49675351699308
H           28.00040250243254       23.80427504209127       22.25515784010549
H           27.83855132932764       23.10715104425198       20.64055624284061
H           26.70562768881603       22.65486497304347       21.91526305355134
C           21.42369994022741       28.58932274138926       22.77697589909112
H           21.92700598214384       29.02329880821060       23.64452452591128
H           21.34875724058695       27.51335652036306       22.92915605798782
H           20.41919487765715       29.00670214686441       22.71623699861952
C           21.15030476057382       31.09738519320272       20.79929418291677
H           20.94040382858930       31.58750160296994       19.85567722769663
C           20.58496077529917       31.58555371823849       21.90276041979805
H           20.79118859883894       31.20923816241083       22.89243578133146
H           19.91698719116057       32.42821736290134       21.85528530782774
C           23.70605213803051       32.85306837304257       16.49897997472315
H           23.34875380667543       33.17739157670714       17.47508825601799
H           22.84693019448015       32.76661059630181       15.82809313078405
H           24.37393064405931       33.61722544156812       16.10153393942446
C           26.10919550619517       31.69545567944659       14.71716568496291
H           27.10835943335148       31.32654186328573       14.51452520077345
C           25.61242607155516       32.63832232968024       13.91525220691511
H           24.60583602113376       33.01987882596561       13.99376274209738
H           26.19851209129215       33.04442532400934       13.10845563333286
C           29.04378561780020       27.25629724657751       14.67752127617100
H           29.57110381096030       28.21030772213043       14.72555642604448
H           28.35120744638777       27.29393521532027       13.83415729060746
H           29.77383027142169       26.47088612580574       14.48954803650258
C           29.42181708274223       24.80193704993733       16.65111157643171
H           30.42430294836156       25.09207346838794       16.97571188993660
H           29.48586967234167       24.50163163603100       15.60404622034824
H           29.11197359818696       23.93426722381694       17.23000306618549
O           23.36744115499839       27.31930679888682       17.49956713787050
H           22.57219926865057       27.56295563956023       17.91793277030899
H           23.18050553369265       27.05453975471274       16.61708761915909
C           27.61377514965494       28.48032818560740       21.35088149760267
H           26.92236665293479       28.36300807530841       22.18224965848938
H           28.51330444737292       28.99577612806078       21.68128070896725
H           27.83992672222419       27.51345297029380       20.90999731942932
S           26.73816413076592       29.52039010574170       20.12651179115325
H           27.71247538824251       29.50613511071936       19.20327340486688
72
 energy: -105.967976011162 gnorm: 0.015538606121 xtb: 6.7.1 (edcfbbe)
Fe          25.23919016440107       27.99540542568455       18.75935031263198
N           25.46610575126812       26.40774823772712       19.99846600456810
N           23.73013273991139       28.65210257425573       19.85682042095888
N           25.07549754924854       29.53928401037427       17.51337992252865
N           26.74365926578489       27.24803938562267       17.61814063511563
C           26.44001771077471       25.45754646072190       19.96160222976357
C           26.36930325478423       24.60696388219868       21.12914657814127
C           25.31230305741742       25.05419741944270       21.85956140103085
C           24.76241768358080       26.17479277457587       21.13573664648860
C           23.23221998279081       28.08926245981740       20.99179540925269
C           22.18196360702965       28.89906942093831       21.54299966113346
C           22.04449825549230       29.97778477720479       20.70735014788703
C           23.01843400170532       29.78894542295863       19.64885941539535
C           24.19874814414571       30.57106928648699       17.63650060150661
C           24.41911837398759       31.55421206088637       16.61045337530778
C           25.45378464640875       31.08436142714991       15.84102925789134
C           25.84363917180405       29.81651269640286       16.42869963806884
C           27.23803990271021       27.79635561373389       16.47893872389397
C           28.30096063731066       26.98297216547954       15.93770900401406