72
 energy: -105.980558272906 gnorm: 0.000070208666 xtb: 6.7.1 (edcfbbe)
Fe           3.05959078566370      -26.17463480119650       16.71740429632777
N            4.35611737722940      -27.57746184099258       17.30264432915569
N            3.60418119229995      -26.47437421947382       14.80042713106826
N            1.80600583927822      -24.72084367986119       16.12684627922673
N            2.57967209891005      -25.81937882107317       18.61877219117654
C            4.64773062248466      -27.93796857166989       18.57916916737173
C            5.64826130627976      -28.98233232912387       18.60093301603749
C            5.95695587601878      -29.24214564069816       17.30288932296709
C            5.14515145008388      -28.34795371573729       16.50638038403681
C            4.47876581546407      -27.41086140019817       14.33709663927572
C            4.59265807322446      -27.33934765134408       12.90457501594929
C            3.76374924839452      -26.32536370197636       12.50183277565843
C            3.14209352258014      -25.81348979104640       13.70581243590769
C            1.57680030371516      -24.30546314300706       14.85002177926584
C            0.57093352910139      -23.27478399448410       14.82056988058367
C            0.18303352221376      -23.07896674664351       16.11916617644676
C            0.96638315397687      -24.00238283205817       16.91482617935404
C            1.66539808113832      -24.92535459877894       19.07604492295798
C            1.59754166942669      -24.95643531807695       20.52142190816473
C            2.50212746648145      -25.88702655583209       20.92478070358671
C            3.10484106225001      -26.41499883140979       19.72014533750763
C            4.07119210976299      -27.40173645774477       19.71483081021169
H            4.40223794089531      -27.78163285767886       20.66875590627486
C            5.19515368284465      -28.29265377091834       15.12796633563613
H            5.86922387167844      -28.97136973031237       14.62929688562215
C            2.21477538800720      -24.79040421291834       13.72259481482974
H            1.95244078873341      -24.34353930645482       12.77663665954302
C            0.89891021406417      -24.08537263979828       18.29235201510856
H            0.20513099298140      -23.43210193271941       18.79795815822997
C            6.92678789729737      -30.22252605591841       16.73939155641484
H            7.40569687021067      -30.79115479020135       17.53247470134986
H            7.70172805456305      -29.70954613474138       16.16950224618538
H            6.42295464926060      -30.92203658795165       16.07175520168292
C            6.18739276749571      -29.60167983943143       19.84381612720018
H            5.38791163268193      -30.06909632756088       20.41955464817557
H            6.65923774538306      -28.84627471287135       20.47209023196711
H            6.92797783481508      -30.36148937132181       19.60720149785834
C            5.41391981849272      -28.25309701895176       12.06453388996537
H            5.37895348062211      -29.26972512444847       12.45325064083171
H            6.45742910485715      -27.93418197735528       12.04696302783555
H            5.03895377472235      -28.25723797220506       11.04323995689095
C            3.49393163237558      -25.84319212698083       11.16490174310141
H            2.48186653756085      -25.49995315649582       10.98585929565394
C            4.37906043837627      -25.78782269531060       10.17551518512830
H            5.40829634459876      -26.07159353232266       10.31049845722081
H            4.10760472530744      -25.42915065849286        9.19671813524293
C            0.03500204049302      -22.63694844848252       13.58739599790881
H           -0.07087411255425      -23.37097093567001       12.79016398287325
H            0.70142525185907      -21.84801537645332       13.23445227750951
H           -0.94025420150533      -22.19903246596946       13.78867355041181
C           -0.81294513869317      -22.17455778254392       16.65131300188943
H           -1.36550226632543      -22.53982525991293       17.50899648538874
C           -1.08088829595697      -20.96217302886753       16.17844862041515
H           -0.53113823821241      -20.53208932715478       15.35934335111448
H           -1.84763231136221      -20.34412316841740       16.61503130376850
C            0.69201641858518      -24.10077147249590       21.33800369970539
H           -0.34985030531191      -24.28163041313189       21.07249604645244
H            0.90605978740265      -23.04560340038610       21.16725674907905
H            0.81614766211559      -24.30823881015142       22.39788841725417
C            2.85593594437420      -26.32792224774327       22.30303162287665
H            2.66188175184038      -27.39366064311606       22.42769221326976
H            2.27401467353028      -25.78518383540249       23.04364109525338
H            3.91319735462911      -26.15104511808920       22.50039023305339
O            4.66275235036309      -24.60398631575853       16.77827519944170
H            4.14632349292287      -23.79760115476677       16.66569138083315
H            5.10661774191361      -24.77594865947540       15.93967247947674
C            1.14956569645910      -28.68185517679765       18.00120868809432
H            0.59767796868160      -29.59737151486759       17.81154219125161
H            0.58134064912589      -28.03088694645492       18.65739110553871
H            2.12061863460573      -28.88733817314180       18.43874940954862
S            1.36552291944130      -27.77643783179563       16.42903981265487
H            2.10722423777615      -28.72464531717270       15.84479308473937
