72
 energy: -105.878206643177 gnorm: 0.291022062316 xtb: 6.7.1 (edcfbbe)
Fe           2.94500000000000      -26.26400000000000       16.71900000000000
N            4.20400000000000      -27.64099999999999       17.30700000000000
N            3.41400000000000      -26.64600000000000       14.77400000000000
N            1.74800000000000      -24.73200000000000       16.08700000000000
N            2.56100000000000      -25.80900000000000       18.58900000000000
C            4.50800000000000      -27.96700000000000       18.58599999999999
C            5.40700000000000      -29.10100000000000       18.61300000000000
C            5.68900000000000      -29.39600000000000       17.35700000000000
C            4.94200000000000      -28.48000000000000       16.51100000000000
C            4.39900000000000      -27.49500000000000       14.34600000000000
C            4.58200000000000      -27.32700000000000       12.91000000000000
C            3.75100000000000      -26.36900000000000       12.52700000000000
C            3.00600000000000      -25.94100000000000       13.68100000000000
C            1.39300000000000      -24.47900000000000       14.78900000000000
C            0.28000000000000      -23.53500000000000       14.80900000000000
C            0.04600000000000      -23.23300000000000       16.06700000000000
C            0.95700000000000      -23.98800000000000       16.88600000000000
C            1.85600000000000      -24.69500000000000       19.00400000000000
C            2.00200000000000      -24.50700000000000       20.42100000000000
C            2.88300000000000      -25.59800000000000       20.88900000000000
C            3.20000000000000      -26.32700000000000       19.68700000000000
C            4.00000000000000      -27.39400000000000       19.68500000000000
H            4.26000000000000      -27.83200000000000       20.64900000000000
C            5.01900000000000      -28.42800000000000       15.14100000000000
H            5.62100000000000      -29.18900000000000       14.64400000000000
C            2.00100000000000      -25.01500000000000       13.68400000000000
H            1.64900000000000      -24.66900000000000       12.71200000000000
C            1.03900000000000      -23.93000000000000       18.23900000000000
H            0.39800000000000      -23.21200000000000       18.75100000000000
C            6.64100000000000      -30.53900000000000       16.94500000000000
H            6.35200000000000      -31.47200000000000       17.47500000000000
H            7.68400000000000      -30.27600000000000       17.22100000000000
H            6.57000000000000      -30.71000000000000       15.85000000000000
C            5.99500000000000      -29.82700000000000       19.87200000000000
H            5.41600000000000      -30.75400000000000       20.07000000000000
H            5.92100000000000      -29.16100000000000       20.75800000000000
H            7.05700000000000      -30.09800000000000       19.68800000000000
C            5.56500000000000      -28.11900000000000       12.00000000000000
H            5.05700000000000      -29.02400000000000       11.60500000000000
H            6.45200000000000      -28.43300000000000       12.59000000000000
H            5.88200000000000      -27.48200000000000       11.14700000000000
C            3.54900000000000      -25.87400000000000       11.08800000000000
H            2.69900000000000      -26.21800000000000       10.48100000000000
C            4.40900000000000      -25.02100000000000       10.56700000000000
H            5.26700000000000      -24.66400000000000       11.15500000000000
H            4.27900000000000      -24.65600000000000        9.53700000000000
C           -0.45400000000000      -22.94900000000000       13.60500000000000
H           -0.01200000000000      -23.35200000000000       12.66900000000000
H           -0.35100000000000      -21.84300000000000       13.60500000000000
H           -1.52800000000000      -23.23100000000000       13.64600000000000
C           -0.99100000000000      -22.27600000000000       16.64300000000000
H           -1.10200000000000      -22.18100000000000       17.73300000000000
C           -1.77300000000000      -21.54600000000000       15.88000000000000
H           -1.69900000000000      -21.60700000000000       14.78400000000000
H           -2.51200000000000      -20.86499999999999       16.32700000000000
C            1.36000000000000      -23.44600000000000       21.30900000000000
H            0.27100000000000      -23.64600000000000       21.39800000000000
H            1.50600000000000      -22.44100000000000       20.85900000000000
H            1.81600000000000      -23.47800000000000       22.32200000000000
C            3.37700000000000      -25.83800000000000       22.32999999999999
H            2.65600000000000      -26.49300000000000       22.86500000000000
H            3.45100000000000      -24.86900000000000       22.86800000000000
H            4.36900000000000      -26.33700000000000       22.30800000000000
O            5.09600000000000      -24.51300000000000       17.18400000000000
H            5.82000000000000      -25.06000000000000       17.48999999999999
H            5.11300000000000      -23.63100000000000       17.07400000000000
C            1.36500000000000      -29.05099999999999       17.48600000000000
H            0.60600000000000      -29.81200000000000       17.20200000000000
H            1.26900000000000      -28.86000000000000       18.57600000000000
H            2.37000000000000      -29.47600000000000       17.28000000000000
S            1.13300000000000      -27.51200000000000       16.55800000000000
H            1.52000000000000      -28.01800000000000       15.39600000000000
72
 energy: -105.938327481478 gnorm: 0.111736187997 xtb: 6.7.1 (edcfbbe)
Fe           2.99975571273429      -26.20761272135628       16.72039530610424
N            4.22048219464462      -27.64705344670331       17.30436633759866
N            3.44863668906827      -26.61954161458548       14.77542452758754
N            1.74276527984379      -24.73859906780575       16.08533898213919
N            2.59258570675410      -25.77388945031393       18.59805112255016
C            4.50305460691429      -27.99834874477412       18.58947360420945
C            5.42099751356771      -29.11518431923089       18.62800761702465
C            5.69924689329707      -29.41980578117196       17.34596176987313
C            4.94996769078576      -28.49321355588847       16.51148208226788
C            4.39483608158211      -27.50191227458140       14.33360351890982
C            4.59006327143599      -27.34291006263367       12.90082513773123
C            3.73058424916061      -26.37800800118296       12.50389521479716
C            3.00680431186626      -25.94253215246534       13.67658222697257
C            1.37779565124000      -24.47709793358845       14.79455506256144
C            0.27902140517384      -23.52114001008464       14.79368981039852
C            0.02791343080684      -23.21252313576214       16.08523977702659
C            0.95162941840387      -23.98527123517383       16.88701986142961
C            1.86105265100253      -24.70381220502385       19.03688571474357
C            2.01330340302522      -24.52873543166396       20.45503451372534
C            2.85489302317826      -25.56288024036850       20.89525585101470
C            3.17978916349311      -26.30534582312722       19.70831643232069
C            3.99419509592961      -27.40499814416628       19.70767414351581
H            4.27082137601343      -27.82669659243314       20.66384039955632
C            5.02189739767251      -28.43670319948828       15.13490787402395
H            5.63313368682321      -29.18185254235947       14.64166738268378
C            1.99113850049107      -25.00947860925538       13.67993451923628
H            1.65259092022172      -24.66050273509392       12.71083431898746
C            1.03637295874419      -23.92689729914763       18.25483682591143
H            0.40283773393138      -23.20996072664355       18.75990099862153
C            6.63156206262503      -30.53358658461925       16.93241080902880
H            6.35556796065308      -31.45374506683394       17.46095328977943
H            7.66232545365908      -30.27958721535924       17.20810918556770
H            6.57737148166827      -30.71265207548981       15.85668923259533
C            5.98372333265826      -29.81386336630542       19.85903589051189
H            5.42164810835392      -30.73395789164311       20.06098837969054
H            5.92304231011743      -29.17077108084095       20.74159141716036
H            7.03093967435952      -30.08610111060549       19.68778482214089
C            5.55619789836655      -28.11363381082023       12.01765234426931
H            5.06418721089822      -29.00849520713992       11.61718932395721
H            6.43981343460735      -28.42493234752065       12.58282301975248
H            5.87048012374677      -27.49179367139240       11.17191629265821
C            3.54983731095473      -25.86681330412822       11.10740301122365
H            2.70595333755179      -26.22201083776961       10.51654346967014
C            4.41064171898484      -25.01907885678343       10.57127125660138
H            5.26088267829837      -24.65941029641190       11.13984181751178
H            4.29031055218698      -24.65834931119258        9.55359792102337
C           -0.43310489877143      -22.96524173943102       13.59193843119508
H           -0.01134768115290      -23.35743255656138       12.66510949106945
H           -0.33285643970984      -21.87265216933260       13.57297668233609
H           -1.49769976945896      -23.23328984724419       13.63367820616537
C           -0.98479030062767      -22.28240434004953       16.63801198526745
H           -1.07855303810694      -22.20316967817157       17.71913530662789
C           -1.78364635140265      -21.53696554924582       15.88836160985302
H           -1.73699747878383      -21.57442648395821       14.81523654658908
H           -2.50913559041928      -20.86574549452496       16.33014255572835
C            1.36937671331572      -23.46307477776393       21.30111809583682
H            0.29057032025077      -23.64547124942627       21.39552686590841
H            1.50701602983810      -22.46484238961349       20.86574807663087
H            1.80610087493168      -23.47495367913856       22.30442338267363
C            3.35930022293391      -25.82913425586831       22.30056440139187
H            2.66355897408256      -26.47945405173085       22.84853710362357
H            3.44810693376426      -24.88800054540672       22.85397635997224
H            4.34129158594137      -26.31962423855868       22.29684561203926
O            5.05831439177538      -24.56610798620473       17.17186639620466
H            5.80867187147015      -25.06422128864571       17.48990016411319
H            5.09895767897339      -23.63089427970442       17.07212014027278
C            1.36861665750538      -29.07109575916817       17.48822496448251
H            0.60595948410614      -29.80274397740945       17.19999298035228
H            1.27230436443976      -28.85486341061049       18.55658419552294
H            2.36358726426315      -29.47546526171154       17.28664402403049
S            1.15077804574840      -27.52162846035040       16.56612134786536
H            1.50396946759795      -28.03380743923912       15.38841265758076
72
 energy: -105.956360693639 gnorm: 0.033265968803 xtb: 6.7.1 (edcfbbe)
Fe           3.03481453474435      -26.16827427895316       16.72175946432474
N            4.24140612160571      -27.64548999770408       17.30648839187912
N            3.48600773588380      -26.58718141995973       14.78183184734116
N            1.74931089476485      -24.73328239258868       16.08879497571381
N            2.62803736003899      -25.73672868612037       18.60825749435289
C            4.50273361717829      -28.01538252345116       18.59378455541656
C            5.42178299554381      -29.12666123409377       18.63460183565881
C            5.70051889039343      -29.43553436937431       17.33800576439349
C            4.96255432010316      -28.49534108158735       16.51503472197011
C            4.40347732843237      -27.49139191822596       14.33185650467487
C            4.59127076780935      -27.35096596062785       12.90172064136223
C            3.71805336839606      -26.38248655974424       12.49562984084997
C            3.01769589728696      -25.93295723105104       13.68112842875582
C            1.37624526361639      -24.46929557709501       14.80352365916710
C            0.28666020731995      -23.51489993566734       14.78430102868567
C            0.01899422737574      -23.19960414940572       16.09385638765617
C            0.95270263079590      -23.97921483849756       16.88853273324446
C            1.87406184324760      -24.69689174226458       19.05610190786016
C            2.01727302257758      -24.54453151559092       20.48376866538452
C            2.83391654180357      -25.53895642451158       20.90137411586585
C            3.18536868077817      -26.28461934193411       19.72050133379048
C            3.99919953053896      -27.40376901001371       19.72185174059207
H            4.28129834585679      -27.81692916092778       20.67528817880709
C            5.03467424872692      -28.43087620231769       15.13362333800911
H            5.64915791282283      -29.16767863517357       14.63879568320279
C            1.99428972966685      -24.99822254444034       13.68126978340251
H            1.66276671179424      -24.65249144986829       12.71232072244956
C            1.04214598857316      -23.91876228318377       18.26595363439606
H            0.40936369125874      -23.20766414130025       18.77110822796027
C            6.62045659570501      -30.52861345044927       16.91757589381029
H            6.35624818409569      -31.44693250449257       17.44089650336376
H            7.64710704957599      -30.28135119587174       17.19088356136378
H            6.57986809096686      -30.71168732047953       15.85071669864454
C            5.97054321394448      -29.80487490680862       19.84243008720809
H            5.41736288816005      -30.72145546101956       20.05143761932846
H            5.91753384023481      -29.17135201038214       20.72241855768362
H            7.01184426224709      -30.07754073360865       19.68077152220749
C            5.54166746414583      -28.10969793406476       12.03743085812928
H            5.06495147733610      -29.00401720426767       11.63353752471346
H            6.42653733781899      -28.41501662947744       12.58894008101060
H            5.85346410158379      -27.49431669496581       11.19539662950084
C            3.55366342768844      -25.86503296266441       11.13251965604320
H            2.70232512102707      -26.22033756500171       10.56200625345348
C            4.41193337156851      -25.02219305011381       10.57925876096173
H            5.26013787552322      -24.65413420186639       11.13034976373156
H            4.29391668980631      -24.66233669723648        9.57051830430199
C           -0.40495845702339      -22.98419192266187       13.57666086431921
H            0.00849543099603      -23.37921611504003       12.65704546726274
H           -0.31176275926131      -21.89771960530132       13.55256862191697
H           -1.46546922701738      -23.23996721944889       13.61564396107040
C           -0.97183377562929      -22.29156871069920       16.62611509212100
H           -1.04695856311164      -22.23093023337065       17.70407916803919
C           -1.79197754381203      -21.52940961910931       15.90211615112332
H           -1.77719202733194      -21.53445672475245       14.83559439340713
H           -2.50641261508317      -20.86847246750452       16.35805179129414
C            1.37239186758169      -23.47696030802816       21.30171454348285
H            0.29920278986800      -23.65159850063540       21.38920507489497
H            1.51429057439265      -22.49051641361880       20.86069743780035
H            1.79634713308735      -23.47203421575953       22.30214514921267
C            3.33797936395213      -25.81935345593886       22.28142890942886
H            2.65461718950348      -26.47307170109697       22.82678009702131
H            3.43480973012269      -24.89316410631040       22.84469049829526
H            4.31449092600125      -26.30193254448236       22.26680040837444
O            4.98994041719869      -24.64195861464475       17.11842823104017
H            5.76597814794370      -25.07339112819976       17.48960027257246
H            5.04880607424018      -23.68362526158572       17.07607078208305
C            1.37609750676191      -29.08980343775103       17.48982169654180
H            0.60638630033906      -29.79635495105089       17.19489658086130
H            1.27562361157271      -28.85146540857032       18.54344004473437
H            2.36428294281363      -29.48625358855265       17.29467198717742
S            1.15989204336106      -27.53299933197092       16.56713555381199
H            1.48258951817269      -28.05060928547130       15.37644333948397
72
 energy: -105.962875273878 gnorm: 0.034111012039 xtb: 6.7.1 (edcfbbe)
Fe           3.06047663964271      -26.14081383590803       16.72527662758401
N            4.25735438812499      -27.63822257644906       17.30899168129510
N            3.51462130806670      -26.56032848325694       14.79476414868986
N            1.76410627686985      -24.71754681712119       16.09533343294572
N            2.65494841094384      -25.70651228761574       18.61363731180086
C            4.50831776492920      -28.01504713287816       18.59485398545754
C            5.41637344285149      -29.13236313365362       18.63068801348630
C            5.69814154560772      -29.43969328247761       17.33197272663125
C            4.97377668529196      -28.48898707674756       16.51686794060490
C            4.41937480744365      -27.47322247263299       14.34206673957716
C            4.59295337152291      -27.34727715294908       12.91291480143794
C            3.72191437165875      -26.37652071063340       12.50672750895470
C            3.03655143016701      -25.91615060534855       13.69493730491781
C            1.39151890133775      -24.45768362823530       14.81019696210760
C            0.30414491565056      -23.51103489570400       14.77835248037092
C            0.02619284454274      -23.18969111350284       16.08921107753496
C            0.96131708092647      -23.96540469697741       16.88903423786682
C            1.88396060645628      -24.67847086128730       19.05812661716909
C            2.00797639781216      -24.53870570079832       20.49219358420208
C            2.83171758210904      -25.53482531654554       20.90763765375932
C            3.20352934844856      -26.27001870534843       19.72261595974688
C            4.01085537542072      -27.39412935146747       19.72474984294103
H            4.29361323694084      -27.80472384022648       20.68040530423767
C            5.05125443922093      -28.41686967565947       15.13658397914935
H            5.66958828015999      -29.14799926640230       14.63727715409351
C            2.01228928858445      -24.98450602203990       13.68837294617503
H            1.68340867113065      -24.64244149634095       12.71746929650565
C            1.05006392846832      -23.90436802131642       18.26855207567759
H            0.41369253477175      -23.19919299633651       18.77835301212408
C            6.61413999430125      -30.53004215475254       16.89918324392200
H            6.35433925347683      -31.45378243316894       17.41562358523294
H            7.64240247148862      -30.28414506550764       17.16923385224098
H            6.57401168906532      -30.70703249470779       15.83041539982300
C            5.96067951585197      -29.80871981218712       19.83744833733468
H            5.40645621310703      -30.72419634212416       20.04968093982935
H            5.90890364838698      -29.17115202221783       20.71510811951115
H            7.00214535512208      -30.08135736965441       19.67560033584114
C            5.53564126017780      -28.11140595735297       12.05145124389862
H            5.06144370664412      -29.01018080299105       11.65411884773350
H            6.42408935339385      -28.40948906816065       12.60194065731214
H            5.84059276630864      -27.49728383090164       11.20609487877324
C            3.55243605871787      -25.85696237278871       11.15139984339689
H            2.68903157997170      -26.20846898237824       10.59614437959043
C            4.40920942070148      -25.02033498936392       10.58686087328736
H            5.26838288733972      -24.65576730436263       11.12461738690308
H            4.28926644216451      -24.66510952223215        9.57778118493414
C           -0.37317625320465      -23.00083071893315       13.55502860283852
H            0.04456923860362      -23.42093664358744       12.64722459446651
H           -0.27166981259851      -21.91582307438621       13.49862939214002
H           -1.43523143143679      -23.24910000124351       13.58858554270626
C           -0.96507827010635      -22.29230959879038       16.62337102915413
H           -1.02147086625397      -22.25028865925857       17.70412754526103
C           -1.80559623522469      -21.51736830623573       15.93164342541025
H           -1.82909446308045      -21.49166005040344       14.86068446636987
H           -2.50996247561302      -20.86726886974894       16.42104997541866
C            1.36014477141461      -23.47530851679501       21.30624548334179
H            0.28776899955814      -23.65135713414451       21.38531740482972
H            1.51150882156320      -22.49584027990371       20.85595643646410
H            1.77827912618783      -23.46505117550890       22.30943642629499
C            3.32560841929806      -25.82020779163195       22.28361487484446
H            2.64080713792872      -26.48001698121990       22.81706111653796
H            3.41663763869971      -24.89695438095877       22.85192557445546
H            4.30303356203253      -26.29612005305178       22.25566987708139
O            4.91912822814474      -24.73746245658368       16.99786705316013
H            5.67508263888623      -25.11384842374058       17.49822566705770
H            4.94885272847006      -23.76218469506519       17.08711687813907
C            1.38480371966090      -29.10191898497080       17.48788406529851
H            0.60651373627920      -29.79735659001017       17.19002112737738
H            1.28130471642670      -28.85151104893335       18.53793386492057
H            2.37102583691675      -29.50586705425879       17.29931248671882
S            1.17856444224642      -27.54143403056181       16.56208343761977
H            1.46144055388259      -28.07179279936223       15.36311613547237
72
 energy: -105.965066357657 gnorm: 0.026625524721 xtb: 6.7.1 (edcfbbe)
Fe           3.05427673991464      -26.14548246741791       16.72385790834182
N            4.26994058820157      -27.63250912134836       17.31179641334725
N            3.54000348640384      -26.53736494607954       14.80969310375702
N            1.78165542768324      -24.70063275032220       16.10372241759491
N            2.67731263334285      -25.68143792054888       18.61448399559545
C            4.51627849617524      -28.01001193563646       18.59583425943814
C            5.41153137302133      -29.13647250105418       18.62634035995598
C            5.69687033477884      -29.44083316192517       17.32784715855055
C            4.98656889359219      -28.48024860216311       16.51947052331462
C            4.43931751876036      -27.45145712746289       14.35671578846751
C            4.59943848933425      -27.33773156855858       12.92777608001648
C            3.73365999342206      -26.36528315369983       12.52351645521528
C            3.06194642678622      -25.89485186069041       13.71310928289172
C            1.41502742189000      -24.44134399438383       14.81754662939065
C            0.32633660514972      -23.50419097235075       14.77454925032592
C            0.03929628680529      -23.17890886052768       16.08285453766267
C            0.97472023721652      -23.94782799893862       16.89011300815984
C            1.89565501846564      -24.66021300177117       19.05610114026611
C            2.00027413756388      -24.53200996246912       20.49456239470004
C            2.83078509242707      -25.53145058978030       20.91016309525842
C            3.22327610475896      -26.25382617293319       19.72057296163042
C            4.02556606024376      -27.37867721432601       19.72499615753077
H            4.30802960942016      -27.78599409469983       20.68404205964224
C            5.07245151730628      -28.39864429205057       15.14164102241505
H            5.69680887723586      -29.12197983407233       14.63717477645227
C            2.03995300408240      -24.96565350210479       13.69822094679407
H            1.71601335282163      -24.62590172612923       12.72482984225961
C            1.06196943310537      -23.88774100607607       18.27025429219167
H            0.42272218925624      -23.18860060921102       18.78707716385385
C            6.60816249914671      -30.53143161398210       16.87850630417633
H            6.35135390737097      -31.46243910811553       17.38503362063749
H            7.63977497653588      -30.28792824538525       17.14175510896314
H            6.56082776762058      -30.69656220995024       15.80624115046357
C            5.95105140805569      -29.81698337730586       19.83537816734378
H            5.39208390399212      -30.72994306849145       20.04865654024961
H            5.89960968247453      -29.17420830910807       20.71067943851312
H            6.99255244111231      -30.09189784199218       19.67257659500647
C            5.53354842787593      -28.11342107311370       12.06611507654649
H            5.05713285309424      -29.01821004651229       11.68356124781284
H            6.42670981790945      -28.40269516809099       12.61589464656787
H            5.82907030934104      -27.50507542552385       11.21243709524260
C            3.55100598788969      -25.84647152675333       11.16999779165915
H            2.67033487454996      -26.18876618265894       10.63366451253543
C            4.40761088965963      -25.01984690794627       10.59227578710456
H            5.27945343170503      -24.66027132187272       11.11655926516686
H            4.27633877629703      -24.66143217494875        9.58530398159251
C           -0.34266742343919      -23.01397348719539       13.53749101340488
H            0.08201529340942      -23.46295804688845       12.64269794485166
H           -0.23704944349561      -21.93027958450197       13.45078983326557
H           -1.40608635200859      -23.25549322904201       13.56587643488199
C           -0.95715442343451      -22.29053263818025       16.62201172288120
H           -0.99984378238833      -22.26496395473090       17.70503074208639
C           -1.81326824891816      -21.50849589633143       15.95882780701111
H           -1.86467424851082      -21.45262344913825       14.88437422033421
H           -2.51229626600771      -20.87411653963068       16.48279042296168
C            1.34487894896727      -23.47481553876796       21.30924584241464
H            0.27215289435508      -23.65228600159924       21.38003800589092
H            1.50203203785054      -22.49807906699121       20.85483341297383
H            1.75506982928745      -23.46090171173219       22.31685574087233
C            3.31032109375938      -25.82244548432266       22.28821252928688
H            2.62353458237302      -26.49095231331187       22.80796336423396
H            3.39032175282012      -24.90265459765050       22.86497080563413
H            4.29046399157787      -26.29114671061529       22.25593709506720
O            4.80379178373116      -24.78923523690391       17.02063349616700
H            5.57249430138209      -25.18365587931219       17.40033389433452
H            4.89769081368050      -23.83953258428740       17.02404416547868
C            1.39132865298888      -29.11832659522541       17.48568592538856
H            0.61265276556746      -29.81331296675129       17.18913883036614
H            1.28696362958565      -28.85785736611297       18.53380830291179
H            2.37933349770686      -29.52398451346695       17.30147512923492
S            1.16826958411534      -27.56295607995537       16.55178642453943
H            1.43641743125466      -28.09755597687289       15.35164753890232
72
 energy: -105.967114844985 gnorm: 0.022591157764 xtb: 6.7.1 (edcfbbe)
Fe           3.02214308876121      -26.17201824671699       16.72255125645374
N            4.26890049238713      -27.63336025291958       17.31436679749245
N            3.54690961961455      -26.53133294757672       14.82046126165853
N            1.78627329591454      -24.69675883143636       16.10911685112285
N            2.66823532663759      -25.68543910327762       18.61442525151406
C            4.51853539959805      -28.00670756093085       18.59771829637296
C            5.41053589445730      -29.13732003252568       18.62757699698060
C            5.69774641951190      -29.43950932364272       17.32943967485509
C            4.99143250164477      -28.47616005593513       16.52326084102263
C            4.44984618026396      -27.44003863620042       14.36762344159241
C            4.60955038758483      -27.32734131771707       12.93835074114948
C            3.74626908570063      -26.35437515058794       12.53564942232171
C            3.07771951105626      -25.88275057821630       13.72577529525774
C            1.42990646750166      -24.42999120685927       14.82198975730763
C            0.34031206129167      -23.49441551952596       14.77479896434096
C            0.04987001264993      -23.16969818264492       16.08092010310116
C            0.98209286681603      -23.93836796291879       16.89157789047417
C            1.89661673838099      -24.65888221877918       19.05483250299881
C            1.99939083510735      -24.53150628001549       20.49260323151000