78
 energy: -116.057995238544 gnorm: 0.000056235541 xtb: 6.7.1 (edcfbbe)
Fe          -4.77211673619229       78.34628887013517       83.19568833350861
N           -3.03619799552597       77.54023245447398       82.57565878422568
N           -4.87878810673945       79.38738090204103       81.47351767785942
N           -6.46999490860061       79.19599396971273       83.80923208165215
N           -4.61781228127044       77.36111121826285       84.92086960501317
C           -2.28334586499882       76.62227758803493       83.24123529328972
C           -1.13314756920819       76.23850920396164       82.45463657991243
C           -1.20881895600950       76.94588128575336       81.29476988305949
C           -2.40645025997045       77.74943263193056       81.38711104042520
C           -3.99650681047100       79.35973081608107       80.43634526296751
C           -4.43850161650992       80.22474549616489       79.36683996270365
C           -5.61656846395127       80.76861662193043       79.77746909348343
C           -5.87657717471521       80.23044516738210       81.09300276962945
C           -7.25490293493757       80.05730424882374       83.11485749788255
C           -8.41365792527599       80.44231462295974       83.89897979293384
C           -8.30222669646333       79.77352867554505       85.08828458650909
C           -7.08509618022259       79.00551185442947       85.00701257324978
C           -5.47311042205620       77.42539079253552       85.97173405817979
C           -5.01772022527032       76.57639506730689       87.05763211294278
C           -3.86789415188904       75.98195631314404       86.61265060540127
C           -3.63944967282264       76.48865465849400       85.28222087542349
C           -2.55415961379092       76.13005245367334       84.50201018719326
H           -1.85550546714979       75.41890530883401       84.91529676733501
C           -2.83871388164833       78.60452846570331       80.38893262903446
H           -2.23344516327461       78.67651086975593       79.49818796655404
C           -6.98660036456675       80.54945456732946       81.85144692520092
H           -7.69357271899373       81.24365251265878       81.42390882958225
C           -6.61879507243409       78.19441378332311       86.02642389211432
H           -7.19494469679377       78.16604787822740       86.93867236111268
C           -0.10420645448771       75.25436811903565       82.89433013027130
H           -0.56127660398822       74.28393340327037       83.08912781767533
H            0.37951403364948       75.58976951525466       83.81200480429769
H            0.66028863037436       75.12604611361350       82.13190003705250
C           -0.28543556501981       76.94393816325774       80.12451693232572
H            0.11790541766243       77.94207659697240       79.95148392749920
H           -0.80960524466203       76.63113094187491       79.22085547629008
H            0.54622170272934       76.26354107033684       80.28969882819676
C           -3.02769411258105       74.96210141975877       87.29874511047386
H           -2.14987648392806       75.42360733563874       87.75394559876342
H           -2.68384358196494       74.20717947932853       86.59310376566928
H           -3.60208426824549       74.47110665709904       88.08170790365506
C           -5.70375349653862       76.41145210685478       88.31996218901220
H           -6.78481568418331       76.48099867925163       88.27928809171972
C           -5.11844382477383       76.19649356601494       89.49372509524821
H           -4.04858004747043       76.16770710103336       89.60350218696968
H           -5.69429427882222       76.07038669165858       90.39563933443860
C           -9.25480017386373       79.75242217019343       86.23225738126132
H           -8.91561329776948       80.41272871980543       87.03190662915951
H           -9.34467584355157       78.74719521882845       86.64167288681162
H          -10.23822412090874       80.08443214170751       85.90565749264155
C           -9.45622689853111       81.33611831530014       83.44526467518369
H           -9.67518854759507       81.29947601092499       82.38411059959314
C          -10.13807910045425       82.17906625227324       84.21400175299217
H           -9.92995020459699       82.29293448237074       85.26344677164199
H          -10.91405374726865       82.80822231340002       83.81016339583992
C           -6.50864569625165       81.73118094496445       79.07173185095478
H           -6.09877449397220       81.99963123983075       78.10107163495999
H           -6.62866903406526       82.64268643248101       79.65771442282988
H           -7.49661666666288       81.29622348066864       78.91889443170275
C           -3.69593141390515       80.43195398603321       78.09102452133369
H           -4.22280071692053       81.13132732095069       77.44670515919150
H           -3.58291963954963       79.48983636898856       77.55360628226059
H           -2.69970911988627       80.82982181859970       78.28641750881987
O           -3.53187355892489       80.09707940715130       83.99970760320679
H           -2.64935414450512       79.78217398252809       83.77557437184562
H           -3.76241937371580       80.77587408302252       83.35619536815184
C           -8.30371835745794       74.15537664030198       82.17297021587234
H           -7.88948292340999       73.15346572568194       82.06086273407830
H           -9.05780453116438       74.30092318529766       81.39956235927720
H           -8.78314622413262       74.22702587898598       83.14410936459849
N           -6.45645773577748       75.32364963456752       80.95078827607597
H           -6.52223174543299       74.76856183842351       80.11346844183403
C           -7.23619971930462       75.18208180936452       82.06873347932894
C           -5.59194856098524       76.33761873380924       81.17995735800181
H           -4.85922126381605       76.67274493097004       80.47547028277886
N           -5.77665217114233       76.84611596001849       82.37387373989407
C           -6.79639612321481       76.13788446325302       82.93908018945530
H           -7.14261305727239       76.36206125044241       83.92683356047921
