78
 energy: -115.728397409854 gnorm: 0.392792349477 xtb: 6.7.1 (edcfbbe)
Fe          -4.75100000000000       78.39300000000000       83.16500000000001
N           -3.03400000000000       77.56000000000000       82.53400000000001
N           -4.92200000000000       79.35699999999999       81.40400000000000
N           -6.46600000000000       79.22799999999999       83.80799999999999
N           -4.58100000000000       77.43500000000000       84.91300000000000
C           -2.30900000000000       76.59200000000000       83.21199999999999
C           -1.12900000000000       76.24600000000000       82.45399999999999
C           -1.14700000000000       76.97599999999998       81.30399999999999
C           -2.34900000000000       77.78300000000000       81.33900000000000
C           -3.96500000000000       79.38799999999999       80.43000000000001
C           -4.45600000000000       80.26000000000001       79.38599999999998
C           -5.65900000000000       80.70799999999998       79.75600000000000
C           -6.00800000000000       80.14099999999999       81.02200000000001
C           -7.34600000000000       80.02900000000000       83.06399999999999
C           -8.46200000000000       80.38999999999999       83.87399999999998
C           -8.26500000000000       79.84800000000000       85.11000000000000
C           -7.00100000000000       79.14600000000000       85.07500000000000
C           -5.46600000000000       77.48399999999999       85.98900000000000
C           -5.11900000000000       76.45500000000000       86.94900000000000
C           -4.06000000000000       75.81000000000000       86.43699999999998
C           -3.70900000000000       76.39300000000000       85.18399999999998
C           -2.64500000000000       76.02900000000000       84.41400000000000
H           -2.01000000000000       75.22399999999999       84.78500000000000
C           -2.76800000000000       78.69799999999998       80.39700000000001
H           -2.10100000000000       78.89300000000000       79.55800000000001
C           -7.15000000000000       80.35799999999999       81.73000000000000
H           -7.98100000000000       80.82999999999998       81.20499999999998
C           -6.47500000000000       78.40900000000001       86.11000000000000
H           -6.89100000000000       78.57099999999998       87.10400000000000
C           -0.05900000000000       75.24500000000000       82.91900000000000
H           -0.75000000000000       74.38700000000000       83.06300000000000
H            0.13400000000000       75.72099999999999       83.90399999999998
H            0.89300000000000       74.87200000000000       82.48399999999999
C           -0.12300000000000       76.97899999999998       80.14199999999998
H            0.07400000000000       78.07199999999999       80.15300000000001
H           -0.84500000000000       76.75100000000000       79.32899999999998
H            0.83300000000000       76.44299999999998       79.96200000000000
C           -3.31600000000000       74.62100000000000       87.05000000000000
H           -3.01300000000000       75.23800000000000       87.92300000000000
H           -2.52300000000000       73.86900000000000       86.84799999999998
H           -4.27400000000000       74.10899999999999       87.28499999999998
C           -5.85300000000000       76.16299999999998       88.28399999999999
H           -6.55700000000000       75.33400000000000       88.44899999999998
C           -4.91400000000000       76.56300000000000       89.45300000000000
H           -4.19400000000000       77.38599999999998       89.33400000000000
H           -4.95800000000000       76.02800000000001       90.41300000000000
C           -9.19700000000000       79.95499999999998       86.30200000000001
H           -8.43300000000000       80.36099999999999       86.99900000000000
H           -9.29700000000000       78.86199999999999       86.47399999999999
H          -10.16700000000000       80.45999999999999       86.49700000000000
C           -9.74800000000000       81.14599999999999       83.34699999999999
H          -10.08000000000000       80.86499999999998       82.35800000000000
C          -10.01600000000000       82.42300000000000       84.11100000000000
H           -9.60500000000000       82.56600000000000       85.12099999999998
H          -10.62500000000000       83.22300000000000       83.66500000000001
C           -6.62300000000000       81.64199999999998       78.99200000000000
H           -5.79400000000000       82.36899999999999       78.86100000000000
H           -7.58000000000000       82.19900000000000       79.08199999999999
H           -6.65600000000000       80.97100000000000       78.10699999999999
C           -3.66800000000000       80.58099999999999       78.10499999999999
H           -3.69500000000000       81.67399999999999       78.30200000000001
H           -4.54100000000000       80.30700000000000       77.47399999999999
H           -2.72400000000000       80.33299999999998       77.57499999999999
O           -3.58000000000000       79.95999999999999       83.85700000000000
H           -2.67700000000000       79.73199999999999       83.63600000000000
H           -3.84900000000000       80.69700000000000       84.27499999999999
C           -8.14900000000000       74.01900000000001       82.36899999999999
H           -7.60500000000000       73.05200000000001       82.31200000000000
H           -8.92800000000000       74.04200000000000       81.57700000000000
H           -8.62200000000000       74.10700000000000       83.36999999999999
N           -6.41600000000000       75.32500000000000       81.01000000000001
H           -6.49100000000000       74.76600000000001       80.18400000000000
C           -7.17500000000000       75.15999999999998       82.16100000000000
C           -5.58300000000000       76.34999999999998       81.20799999999998
H           -4.81900000000000       76.65899999999999       80.49500000000000
N           -5.83700000000000       76.91399999999999       82.39200000000000
C           -6.80100000000000       76.16700000000000       83.00500000000000
H           -7.14400000000000       76.41700000000000       84.00100000000000
78
 energy: -115.889355986644 gnorm: 0.215325332539 xtb: 6.7.1 (edcfbbe)
Fe          -4.76475172780009       78.37927980624478       83.16270498278543
N           -3.02587324363764       77.54893813919595       82.52808799642655
N           -4.91825715903121       79.34758452501103       81.42863638582723
N           -6.47311545409220       79.24603049716241       83.80796476261601
N           -4.59636946003530       77.42735242800275       84.90993654893117
C           -2.29882497057461       76.59405417935366       83.19796857572369
C           -1.11427708116602       76.24371996754380       82.44043087918553
C           -1.13662189869119       76.97120071701633       81.30211618844105
C           -2.34162557686112       77.78313417516254       81.35075864633089
C           -3.97409361322687       79.38591664312973       80.44705108222482
C           -4.44387369057656       80.24910497272431       79.39614349922806
C           -5.67244168368474       80.69650121879489       79.76568587447916
C           -5.98797786698641       80.12282853562840       81.03379617168997
C           -7.35618388668850       80.00913148326811       83.06132887038012
C           -8.49323917599932       80.38760191403773       83.85774488870067
C           -8.28060476785343       79.86883231141181       85.09820366709090
C           -7.01311320751242       79.15885923060004       85.06386047984215
C           -5.45710856656823       77.48867571302139       85.98667138028742
C           -5.12420773775610       76.45911515421864       86.95604745316668
C           -4.05735058843426       75.80142774706373       86.42217233434928
C           -3.72070737764383       76.40576109818583       85.17714392277082
C           -2.64301701344904       76.03214856992189       84.40762674670185
H           -2.01444968764595       75.23031093388387       84.78514461707697
C           -2.77001236599807       78.69723766363568       80.40405976563031
H           -2.11260813834658       78.88911412014279       79.55948413806118
C           -7.14787297104630       80.34937037184336       81.73562320828805
H           -7.96693395735306       80.83867637578170       81.21183494529103
C           -6.47840842856768       78.41436901522695       86.10790129929789
H           -6.90235487212980       78.55648178644014       87.09816104050215
C           -0.08789188428547       75.24518383233135       82.94516545808813
H           -0.72900588387809       74.36607634124320       83.08402833032892
H            0.15119022654744       75.69240119414103       83.91806191885001
H            0.85069801163312       74.91357662302933       82.46587607668870
C           -0.15416361587986       77.00666803187774       80.13608738695356
H            0.08764540484399       78.07601938672440       80.12075970225999
H           -0.82505203494715       76.76138890655515       79.30366825436241
H            0.78832622412880       76.44229533279814       80.00865416396445
C           -3.34670641276853       74.63464479156016       87.08625134999210
H           -3.00451110102631       75.20040202921996       87.96136464649030
H           -2.55018424864152       73.91960126743699       86.80731093189632
H           -4.25693067115503       74.07344256661710       87.32601793917564
C           -5.75160148519770       76.16284088644178       88.31281124463756
H           -6.52081159873888       75.37700843304414       88.44450477838161
C           -4.94786835986680       76.54238904667521       89.41463165075227
H           -4.21924513402117       77.35309506976108       89.31861391817313
H           -4.98812229611507       76.04761975239323       90.38834951402396
C           -9.16515899809952       79.93478832458199       86.31813444234187
H           -8.44996931688772       80.35369673449401       87.03628469626375
H           -9.30917186134970       78.86399863585444       86.51054501697928
H          -10.13166517379578       80.45272042520192       86.44873677109018
C           -9.69111822804626       81.20511878886769       83.38103001667587
H          -10.07513301799324       80.89728075831277       82.40246338392043
C          -10.00636088814331       82.37736826047797       84.07721559602342
H           -9.60391473225726       82.54949735035994       85.07912938477448
H          -10.62779064014400       83.17974247549303       83.66831238493272
C           -6.57669206069835       81.63485568664352       78.96224425708795
H           -5.80935283669380       82.40266410384753       78.81301226487592
H           -7.54338907716228       82.15058843187668       79.12744040400953
H           -6.66889619634501       81.00261385654115       78.07018752297608
C           -3.71209164046538       80.60705518137181       78.10560262032980
H           -3.68950909237694       81.69359039732760       78.25669915503042
H           -4.52926681968196       80.33278723473113       77.42689842567484
H           -2.75330694298531       80.31135265358949       77.63777744320878
O           -3.57582693976778       79.94474950153331       83.85182767223719
H           -2.66630566076011       79.74287495250968       83.64028485931951
H           -3.84587293955857       80.72603681138129       84.29006631229250
C           -8.14520635606500       74.02351690195084       82.36388589511597
H           -7.61332648099150       73.06222661104827       82.31170872972685
H           -8.92215116243922       74.03890343157869       81.58717488582111
H           -8.61483250948992       74.10832877644224       83.35234011077240
N           -6.42011339068814       75.31418208186525       81.01963121706540
H           -6.49267128488255       74.75717675617868       80.18667894399867
C           -7.18084347108910       75.15515054768726       82.16111391583966
C           -5.59133350764325       76.35461543227110       81.21295391353408
H           -4.83386806109655       76.66249340302309       80.50575265935220
N           -5.82125509534748       76.90136506567934       82.39372961803079
C           -6.79807213850064       76.16547911644028       82.99718906941111
H           -7.14002244982962       76.41476852533347       83.98850079494083
78
 energy: -115.970217949139 gnorm: 0.128518106621 xtb: 6.7.1 (edcfbbe)
Fe          -4.78034896896308       78.36965096114638       83.15641110166534
N           -3.01672134322654       77.53667469913529       82.52317234345136
N           -4.91800738795908       79.33889195882026       81.44643529016172
N           -6.48912051472081       79.25508627751979       83.80671008946248
N           -4.61299297330182       77.41780692210932       84.90639954217734
C           -2.29239756422570       76.59389957357541       83.18723183538751
C           -1.09957572739770       76.23941170442265       82.43155179919059
C           -1.12590080482135       76.97000969466954       81.29859336482056
C           -2.33844504845168       77.78332382130152       81.36194068307844
C           -3.98134432151436       79.38656479839918       80.45893312633576
C           -4.43464226388039       80.24195546582042       79.40214251451053
C           -5.68514158422559       80.68856298858967       79.77056129927190
C           -5.97117372599677       80.10742724041626       81.04221100529634
C           -7.36457570085861       79.99301196964703       83.06161518896702
C           -8.52038817692491       80.39256164716033       83.85291618771494
C           -8.29149945672051       79.88824095444866       85.09675885470249
C           -7.02381076193714       79.16714739023264       85.05527392167751
C           -5.45128150058845       77.49396015638901       85.98243155838517
C           -5.12245952727546       76.47354899633812       86.96589791508481
C           -4.05350554466874       75.79701312992169       86.41578084062064
C           -3.73676877912229       76.41199575563755       85.16818801928758
C           -2.64572953731625       76.03290821616139       84.40064641559474
H           -2.02124449636700       75.23839195590311       84.78743862232112
C           -2.77200534523558       78.69553199202333       80.41122623435419
H           -2.12548420093481       78.88328518454274       79.56166189156554
C           -7.14653688808044       80.34408552433595       81.74178914329222
H           -7.95107850794452       80.85010458762871       81.21925216189524
C           -6.48473667528926       78.41720749593895       86.10283013858755
H           -6.91749024879377       78.53787698811090       87.08889775639830
C           -0.11637224373960       75.24541513117431       82.97043158089791
H           -0.70806121070389       74.34250947758271       83.10829779628732
H            0.16807122555857       75.66165177206737       83.93574088748279
H            0.80553264311640       74.96276849774088       82.43801501086132
C           -0.18583390251858       77.03544396706913       80.13030434126792
H            0.10099986519972       78.08424170656785       80.08391954701590
H           -0.80629279648463       76.77503873436386       79.27399225640056
H            0.73972773278506       76.43753420063750       80.06765614522844
C           -3.38131393627858       74.65291526350620       87.12354644063089
H           -2.99580828804711       75.16003472143174       88.00549922111612
H           -2.58265650011430       73.98296672257862       86.75132283296851
H           -4.24147504536863       74.03729151550785       87.37392428341525
C           -5.65787514513443       76.16132630270906       88.33630330935304
H           -6.47812925148057       75.41413714629851       88.42803622047356
C           -4.97178227553899       76.52129164844753       89.36541396838510
H           -4.22496467352804       77.31481968637522       89.30071484553457
H           -5.03597267243822       76.08013094219719       90.36315482325661
C           -9.13265614619202       79.91521371272952       86.33446185947626
H           -8.46601154733875       80.34410618744045       87.07850880650825
H           -9.31922857962676       78.86432097869148       86.54874314160001
H          -10.09412421494235       80.44960558779901       86.38949089957556
C           -9.64536811472335       81.24232203053076       83.40631515475056
H          -10.06375252792855       80.93574277747398       82.43341006616404
C           -9.98229710836477       82.32977508764698       84.04539658244622
H           -9.58996571268867       82.54254330727534       85.04083067896103
H          -10.63616241467475       83.12240116688459       83.67314331296333
C           -6.52671547674894       81.62193136654419       78.93509625782285
H           -5.82273501980239       82.43310552414366       78.76273296880538
H           -7.50042018361981       82.08910367278560       79.18933508840576
H           -6.67747945433436       81.03603243788676       78.02875666202529
C           -3.75950684060464       80.63211485500385       78.11133640521584
H           -3.68789912453457       81.71466733003240       78.21030078214639
H           -4.52039149717134       80.36218540231748       77.38046450419397
H           -2.78533771405590       80.28007498998268       77.71872726773370
O           -3.57739426852465       79.93488257323192       83.85535087180158
H           -2.65679385336383       79.76983751195532       83.65202639540136
H           -3.82905463177131       80.74241911388907       84.29615984852870
C           -8.14246697702639       74.02845977063343       82.35918562670329
H           -7.61872965885214       73.07111041645412       82.30969015064316
H           -8.91844132113568       74.03734390163640       81.59310247238774
H           -8.60953346185064       74.11144097083674       83.33888373184006
N           -6.42386902231985       75.30260653953616       81.02788664278941
H           -6.49314885167253       74.74895018048952       80.18957298578336
C           -7.18444293122781       75.15131293519559       82.16193037660152
C           -5.59746007918346       76.35581613157136       81.21844136353815
H           -4.84858493111849       76.66531413010804       80.51388040131917
N           -5.80922555635333       76.89397869946852       82.39474951830043
C           -6.79239707853078       76.16293113299615       82.99307018286960
H           -7.13679164825877       76.41169409022731       83.97884663686307
78
 energy: -116.010410125356 gnorm: 0.061312756811 xtb: 6.7.1 (edcfbbe)
Fe          -4.78746653284606       78.36451442105734       83.15221042409698
N           -3.01721198011495       77.52900125030497       82.52118005837974
N           -4.91759707510414       79.33352646881727       81.45466051481644
N           -6.49344351639289       79.25202116588001       83.80624097650697
N           -4.62509866170526       77.40809035987749       84.89559636973108
C           -2.29411625374481       76.59156263104188       83.18248993497429
C           -1.09890093473869       76.23848789300332       82.43056118897204
C           -1.12722299911463       76.97669844433446       81.29770008644138
C           -2.34073246877312       77.78679347492572       81.36922109350424
C           -3.98301127293992       79.38690059653774       80.46487934027755
C           -4.43549089652597       80.23970568836260       79.40507438107568
C           -5.68719818137408       80.68129574204620       79.76975196597189
C           -5.96567283274985       80.09836372002006       81.04571041024990
C           -7.36613651941000       79.97406148086733       83.05937349256166
C           -8.51864273767787       80.37929554545909       83.85560035742490
C           -8.28672454411977       79.88890263238193       85.10425294501115
C           -7.02433535093823       79.16636280303669       85.05265005902226
C           -5.44941775658224       77.50045410191112       85.97425153714703
C           -5.11445702667286       76.48556041857393       86.95206668836185
C           -4.05061377556750       75.79908862928332       86.41474633944165
C           -3.74629967902624       76.40818878481711       85.15817554190569
C           -2.65106282532326       76.03137676501110       84.39397707038590
H           -2.02615098798665       75.24498083300523       84.78993675814517
C           -2.77491288330426       78.69519559876584       80.41806370236263
H           -2.13949155002057       78.87461043772663       79.56126561546607
C           -7.14363533125146       80.33678432397338       81.74502947838000
H           -7.93282313290093       80.86842122288355       81.22842096286081
C           -6.48936560962931       78.41580939340939       86.09726112311817
H           -6.94070627928860       78.51028111924130       87.07770728167226
C           -0.13655654405218       75.24523958411041       82.98612580039251
H           -0.68506057644514       74.31352474651685       83.13625166950096
H            0.18670330101548       75.62522457006637       83.95766604807898
H            0.76450363179347       75.01492987175638       82.39737385102231
C           -0.21012913389571       77.05870081960438       80.12475565404753
H            0.11521728357362       78.09742894625602       80.03874085167504
H           -0.78847283493875       76.79319972402111       79.23720468538828
H            0.69361302312506       76.42577931177262       80.13500614150294
C           -3.40474608279955       74.66698781110554       87.14891551538012
H           -2.98824854825795       75.11242868295217       88.05703143300521
H           -2.60945406256721       74.04657717634193       86.68586575354547
H           -4.22330871900991       73.99896869548105       87.43053777949105
C           -5.62792267774046       76.13950875071082       88.29191458967080
H           -6.44816192922014       75.41441572541845       88.38147610898598
C           -4.98158944224737       76.55284330269667       89.39461204413779
H           -4.18629801368983       77.28917428044231       89.30669975727979
H           -5.09327928637732       76.12375696247038       90.38467182623369
C           -9.10758865446873       79.90269117746793       86.34761868859499
H           -8.48280027027036       80.33329053624652       87.13125378104674
H           -9.32796133054022       78.86339830582590       86.59638039103336
H          -10.06084261552939       80.45319169918487       86.32445296932950
C           -9.59445359320564       81.24623256770811       83.39027858706102
H          -10.03815283900972       80.96357928848336       82.43046688955745
C           -9.99430249035731       82.32540918027884       84.05483639059698
H           -9.56363340777247       82.56235541871877       85.02231298702777
H          -10.67645765849218       83.08073161596120       83.67960017762267
C           -6.49091218974919       81.60991468012956       78.91624336547689
H           -5.83663200235913       82.46249636429305       78.70392957415660
H           -7.46288715918423       82.02520496436047       79.26123519100071
H           -6.68356601581491       81.07506468106291       77.97949902371444
C           -3.79342661796759       80.64894920010897       78.11705512205077
H           -3.68978957621642       81.73828126704339       78.15690817439723
H           -4.51230214480149       80.39811722983291       77.32946022930932
H           -2.80980028347879       80.24124677216039       77.80600450937524
O           -3.57337189233378       79.93517685135711       83.87102752702147
H           -2.64605594631313       79.80153093824354       83.66385502961079
H           -3.81043570971277       80.75749217734435       84.30041569681089
C           -8.14347676177920       74.03121408908484       82.35559367465045
H           -7.62306054603242       73.07469717097885       82.30677940097455
H           -8.92010287528264       74.03751897574372       81.59332584593827
H           -8.60913135659287       74.11638980198792       83.33205908478111
N           -6.42465223345220       75.29185119472869       81.03185784611296
H           -6.49306205845950       74.73763936706443       80.19397480015103
C           -7.18517742016055       75.14839007856941       82.16309949062489
C           -5.60212314167574       76.35136032420141       81.21949707590716
H           -4.86339946290013       76.66938390621561       80.51307057410078
N           -5.80135463475875       76.88554236057232       82.39792235748710
C           -6.78776415379707       76.15772215244938       82.99335238433468
H           -7.13519274997361       76.40791075431153       83.97472795253809
78
 energy: -116.026558528080 gnorm: 0.056650087603 xtb: 6.7.1 (edcfbbe)
Fe          -4.79267095864803       78.36060009512730       83.14973974988276
N           -3.02608516375219       77.52459074485228       82.52325081497912
N           -4.92010141740432       79.33284505838124       81.45421452412826
N           -6.49633097261904       79.23688345768178       83.80223065173409
N           -4.63860196893832       77.39097290270387       84.88591138137414
C           -2.30453971279591       76.58758717422707       83.18116238643216
C           -1.10659971799571       76.24008619080551       82.43391358246430
C           -1.13585550833791       76.98808354945524       81.30075713107804
C           -2.35043478598048       77.79099508103219       81.37742630403362
C           -3.98469920070762       79.38889308351885       80.46303957783725
C           -4.43988850139372       80.24187626550220       79.40104451327647
C           -5.68955914716931       80.67870323003321       79.76201461539944
C           -5.96748022435654       80.09658809349686       81.04377959899105
C           -7.36566016024665       79.95726001124400       83.05810644808349
C           -8.50952139021741       80.37155043787926       83.86410331460519
C           -8.27389023783836       79.88641901524782       85.11673816059275
C           -7.02291723153473       79.15514004610446       85.04928233394298
C           -5.45300820844920       77.49864547681129       85.96896329092986
C           -5.10460939306096       76.50407123573179       86.95631587165958
C           -4.05191716150086       75.79982657034796       86.42695133595582
C           -3.75747206088590       76.39479276653857       85.15450775698565
C           -2.66216064856142       76.02422216106366       84.39009125929005
H           -2.03148286873923       75.24824089749568       84.79383466588448
C           -2.78107020985761       78.69464269757702       80.42259790896223
H           -2.15243944149829       78.86302248015942       79.56052551208433
C           -7.14153819179456       80.33527049817319       81.74816357072399
H           -7.91633496134187       80.89437836782709       81.24154648529958
C           -6.49822184159519       78.40325376789798       86.09119441907228
H           -6.97079213170797       78.47231601403526       87.06343517437612
C           -0.14713431508460       75.24854434084205       82.98749831096630
H           -0.65846136069728       74.29411954333196       83.14594462494618
H            0.20707360168503       75.59681003804003       83.96304581939638
H            0.72957702403172       75.06378522663168       82.35481997331844
C           -0.22542985071045       77.07371670457745       80.12788704721757
H            0.12961479818931       78.10191762264094       80.00920318867611
H           -0.76959716360637       76.80504573062655       79.21738108834053
H            0.65347998739087       76.41892647199822       80.19774102726626
C           -3.41752012891011       74.67561561429093       87.16602806395088
H           -2.97380528028397       75.07084846664596       88.08804620901178
H           -2.63774236623747       74.10469113053450       86.63431132768076
H           -4.20093691152587       73.97040691178158       87.46691727080652
C           -5.61439055209106       76.17753905739008       88.28619795393750
H           -6.41529318205575       75.45283422695606       88.36328093965591
C           -4.92568498752225       76.51627569009779       89.35556080882805
H           -4.17282798354536       77.28082792799326       89.30758381503813
H           -5.18351914366906       76.17057064782523       90.37216191935191
C           -9.09084411387409       79.89763743514125       86.35677915451710
H           -8.50469082151561       80.32987014418832       87.17330467192144
H           -9.33922570913264       78.86905078364904       86.63385289000692
H          -10.02909959041385       80.45982623514607       86.26561488012265
C           -9.57109494313303       81.23905893737268       83.39185955364773
H          -10.00406822155606       80.99989538009891       82.42698977201584
C           -9.96295463526445       82.32856277981317       84.05118618214109
H           -9.54791729579109       82.57217487670160       85.01512501019774
H          -10.71478492299295       83.01876246913855       83.67885037928640
C           -6.47363344430759       81.60079174016207       78.90404358415547
H           -5.85766266801058       82.47819255592169       78.67138702520538
H           -7.42692133002447       81.97075185202746       79.31431184863835
H           -6.69444511614852       81.10484938729827       77.95054560589037
C           -3.81082982856228       80.65747734170490       78.12133711486628
H           -3.68286229476111       81.74665959566654       78.12093084464809
H           -4.49468140487553       80.41863473437675       77.29695019051695
H           -2.83287880007189       80.21051453692115       77.88160794663555
O           -3.56486594075690       79.93578723021224       83.90760959444187
H           -2.63419374687127       79.84930633632264       83.67591535109948
H           -3.78854411588409       80.78208729199999       84.30312618500976
C           -8.14645761994953       74.03185372704233       82.35283893908090