77
 energy: -118.478051108142 gnorm: 0.303959233475 xtb: 6.7.1 (edcfbbe)
Fe          35.31900000000000        4.15000000000000       10.35900000000000
N           37.16100000000000        3.85400000000000        9.77500000000000
N           35.05000000000000        5.37700000000000        8.78500000000000
N           33.43400000000000        4.48800000000000       10.95900000000000
N           35.64800000000000        2.93200000000000       11.83200000000000
C           38.15000000000000        3.02300000000000       10.33200000000000
C           39.42300000000000        3.05900000000000        9.53900000000000
C           39.16600000000000        3.87900000000000        8.47800000000000
C           37.76899999999999        4.34900000000000        8.61800000000000
C           35.93700000000000        5.72100000000000        7.80000000000000
C           35.38900000000000        6.73100000000000        6.79000000000000
C           34.10400000000000        6.95000000000000        7.24300000000000
C           33.93500000000000        6.12600000000000        8.45800000000000
C           32.57200000000000        5.44300000000000       10.47100000000000
C           31.38600000000000        5.59100000000000       11.31900000000000
C           31.52200000000000        4.68900000000000       12.36700000000000
C           32.80600000000000        3.99100000000000       12.09600000000000
C           34.69900000000000        2.61000000000000       12.86900000000000
C           35.24600000000000        1.65400000000000       13.80300000000000
C           36.54699999999999        1.52100000000000       13.37700000000000
C           36.75600000000000        2.23100000000000       12.17700000000000
C           37.94800000000000        2.22800000000000       11.46500000000000
H           38.75800000000000        1.58100000000000       11.80200000000000
C           37.21999999999999        5.19400000000000        7.73500000000000
H           37.83700000000000        5.49500000000000        6.88800000000000
C           32.78300000000000        6.16900000000000        9.27200000000000
H           31.97600000000000        6.82500000000000        8.94700000000000
C           33.43700000000000        3.14800000000000       12.98900000000000
H           32.87700000000000        2.88000000000000       13.88400000000000
C           40.07200000000000        4.32300000000000        7.32800000000000
H           41.07600000000000        3.86400000000000        7.44900000000000
H           40.17800000000000        5.42900000000000        7.33900000000000
H           39.63900000000000        3.99300000000000        6.36000000000000
C           40.71200000000000        2.23600000000000        9.74300000000000
H           40.72899999999999        1.38900000000000        9.02400000000000
H           40.73900000000000        1.83100000000000       10.77700000000000
H           41.60000000000000        2.87900000000000        9.56300000000000
C           36.01800000000000        7.25400000000000        5.48300000000000
H           36.80300000000000        6.54600000000000        5.14000000000000
H           36.48199999999999        8.24800000000000        5.66100000000000
H           35.23700000000000        7.33500000000000        4.69700000000000
C           33.13600000000000        7.87700000000000        6.72900000000000
H           32.08600000000000        7.55400000000000        6.73400000000000
C           33.37200000000000        9.24400000000000        6.18000000000000
H           34.39000000000000        9.65800000000000        6.13200000000000
H           32.53100000000000        9.85300000000000        5.81700000000000
C           30.24900000000000        6.57400000000000       10.97300000000000
H           29.93700000000000        6.42300000000000        9.91700000000000
H           30.60500000000000        7.61900000000000       11.09800000000000
H           29.37700000000000        6.38800000000000       11.63600000000000
C           30.75200000000000        4.44900000000000       13.52900000000000
H           30.96200000000000        3.52700000000000       14.08800000000000
C           29.71400000000000        5.27200000000000       14.07900000000000
H           29.43200000000000        6.21600000000000       13.59000000000000
H           29.18800000000000        4.96900000000000       14.99600000000000
C           34.60099999999999        1.08600000000000       15.05000000000000
H           33.58300000000000        0.71500000000000       14.80500000000000
H           34.51900000000000        1.87800000000000       15.82400000000000
H           35.20900000000000        0.24000000000000       15.43500000000000
C           37.64299999999999        0.84700000000000       14.17400000000000
H           37.79400000000000       -0.18700000000000       13.79600000000000
H           37.35400000000000        0.80100000000000       15.24600000000000
H           38.59200000000000        1.41400000000000       14.06100000000000
C           32.37500000000000        0.04000000000000        7.55100000000000
H           32.22200000000000       -0.71400000000000        8.35200000000000
H           32.60200000000000       -0.48600000000000        6.60000000000000
H           31.44700000000000        0.64100000000000        7.44000000000000
N           34.93600000000000        0.80200000000000        7.63300000000000
H           35.32200000000000        0.10800000000000        7.02500000000000
C           33.55700000000000        0.96700000000000        7.93200000000000
C           35.59900000000000        1.73600000000000        8.30900000000000
H           36.68100000000000        1.85900000000000        8.30500000000000
N           34.73100000000000        2.44600000000000        8.95100000000000
C           33.37300000000000        2.03200000000000        8.76800000000000
H           32.51600000000000        2.50800000000000        9.21900000000000
O           36.03100000000000        5.57900000000000       11.22900000000000
O           35.47400000000000        5.75900000000000       12.29400000000000
77
 energy: -118.562454699070 gnorm: 0.148257767411 xtb: 6.7.1 (edcfbbe)
Fe          35.34526104567944        4.18090907150905       10.35847555914549
N           37.19676428066605        3.82897177620288        9.75430667684331
N           35.03594772681220        5.40155317596268        8.74585610076711
N           33.42062782640352        4.49873524430975       10.96355602093897
N           35.62421721145138        2.92008496338693       11.84148408768143
C           38.16075915639624        3.01516155686558       10.32280468070494
C           39.41069156233286        3.04809699714145        9.53041692948320
C           39.16375069765361        3.87986722579522        8.47880662822631
C           37.78722253103520        4.35266866856815        8.62112297910960
C           35.93253962822808        5.72867777306921        7.77460401823735
C           35.38194964619738        6.71486499155239        6.80276094001830
C           34.10612394081581        6.97788225591815        7.25731316557769
C           33.91230861417079        6.14053499575176        8.46001281160447
C           32.56458310873165        5.44335445086976       10.45858337614595
C           31.39097046060239        5.59770256564440       11.30310115511242
C           31.52797486609117        4.70549511075434       12.35940251881552
C           32.81527717115891        4.02140922050523       12.10441921249536
C           34.69246848498096        2.60147174535733       12.85483621453036
C           35.25873710683456        1.67619425198384       13.80408040530171
C           36.55983793757493        1.51591073645143       13.39379761170587
C           36.75363480699042        2.23710863785559       12.17716992588326
C           37.94756712950849        2.24045957121129       11.45630275729525
H           38.75061845301177        1.59634026619858       11.79761877128680
C           37.21918244936080        5.20567667215452        7.71817375001733
H           37.83543481773923        5.50518099927522        6.88180021208180
C           32.77886440942482        6.16686183451797        9.26906333069363
H           31.98023286449645        6.82593470559095        8.95359241628598
C           33.42946695053435        3.14607267343861       12.98068583363932
H           32.87965491171025        2.87603939312208       13.87541863568177
C           40.06335804737155        4.31338995732495        7.34537984927344
H           41.05820033538934        3.86815172956521        7.44995725786881
H           40.17394450685824        5.40577055604894        7.34097676257432
H           39.64598520222268        3.99948191006900        6.37957234479633
C           40.68392936208821        2.24796920408811        9.74864538887661
H           40.72217717618809        1.40871154043340        9.03939993130525
H           40.73755571580415        1.84072574496609       10.76316393938838
H           41.57094990103145        2.87032496135816        9.57098817425323
C           36.01297276126013        7.23358230874691        5.51915599144824
H           36.79079280970845        6.55331291576324        5.15176128825386
H           36.47188753936040        8.22128921340991        5.66741096125312
H           35.25015792517056        7.33351033745240        4.73282125946576
C           33.14173788084921        7.91418964507213        6.71826236591766
H           32.10204188909766        7.58203565016651        6.73746715484988
C           33.37215299332141        9.17720275102650        6.19445657941634
H           34.36446607955900        9.62020030244276        6.14841910754617
H           32.55211688786114        9.80193188255224        5.84043942799674
C           30.26582183824814        6.55866794896249       10.97596952930545
H           29.94567015155593        6.42399640747020        9.93502482373392
H           30.60163331338386        7.59671150437525       11.09900012349320
H           29.39747582584670        6.38782945874085       11.62025173638014
C           30.73103726921817        4.46427753697123       13.52591430552955
H           30.95369135240753        3.55083475228269       14.08084582712580
C           29.73835386643041        5.25073676346474       14.05402938238373
H           29.45042592223007        6.19370498044905       13.60124831988295
H           29.21527833115204        4.96463297627445       14.96379170007876
C           34.60571663834546        1.09807865588514       15.02990718544413
H           33.59905381283829        0.72392552085387       14.80497002234057
H           34.52037449916980        1.86571219447927       15.81006388638489
H           35.19693769905113        0.26211332221602       15.42364504420303
C           37.64499993239556        0.83925793625740       14.17029748193755
H           37.79969780292856       -0.18224392069205       13.80351831847895
H           37.36643150628550        0.79857634529760       15.22826874586104
H           38.58038358572033        1.39992056353037       14.06762562164921
C           32.39546423028304        0.03869701549424        7.54114957310116
H           32.23153624518277       -0.70200755449960        8.33450576334844
H           32.59745963844573       -0.48543996833447        6.60399424521021
H           31.47748515540254        0.63007449856870        7.43969033025305
N           34.89513663088621        0.79026411238218        7.63901589270760
H           35.29265172702317        0.09666653676124        7.02614960221481
C           33.54105277449773        0.95024013184064        7.93125568224595
C           35.56479083770407        1.74290033236713        8.31584456958571
H           36.64220864700987        1.85637189632140        8.30216312474302
N           34.72808469728480        2.48443184274779        8.98528982805269
C           33.42168483815502        2.02405229043753        8.76284498926091
H           32.56401364090889        2.49807337535851        9.20874432602606
O           36.02078733602009        5.57275604811292       11.22833246047382
O           35.46956344425315        5.77518435417242       12.32880304876902
77
 energy: -118.589852356827 gnorm: 0.070909260699 xtb: 6.7.1 (edcfbbe)
Fe          35.36526201323070        4.20957704632881       10.36046455831372
N           37.22869630617635        3.81874958854694        9.73131913150712
N           35.02838578893752        5.42707716545054        8.71498889157529
N           33.40790836137455        4.51813299920101       10.96973013461186
N           35.60290088617988        2.90429494892658       11.85221279343991
C           38.16565953640738        3.00923762112689       10.30356218270126
C           39.39874783630754        3.03992445450780        9.52195843137866
C           39.16108351848010        3.88692177497704        8.47631293729334
C           37.80023938140761        4.35874770338365        8.61629023206552
C           35.92698687982676        5.73492429689110        7.74960384250148
C           35.37562077894670        6.69812625758278        6.81284774830471
C           34.10960928475676        6.99054691158851        7.26819316942156
C           33.90256591501027        6.16198008084949        8.46667028015962
C           32.55794401309907        5.44869961623854       10.44717957799251
C           31.39217581894481        5.60082524517041       11.28608579476260
C           31.54355548503638        4.72416833989565       12.34970131695683
C           32.82757105457528        4.05381170572008       12.11046614225902
C           34.69228753550833        2.59983254878364       12.83925838951981
C           35.27194926255732        1.69678306705052       13.80117109721800
C           36.57343113553173        1.51584199161443       13.40858916659049
C           36.75294156941909        2.24443430054357       12.17630720899666
C           37.94100722211030        2.25427916575109       11.44536942995874
H           38.74183931744086        1.61953401901476       11.79787798365436
C           37.21513082499902        5.21380048893529        7.70017616435128
H           37.83516317647853        5.51913328664974        6.87526150289098
C           32.77649994183771        6.17106324051022        9.26617125476414
H           31.98116006534872        6.83207096211106        8.95805125743236
C           33.42397487745149        3.14583347395831       12.96934934869229
H           32.88011042657229        2.86802846035092       13.86084524936658
C           40.05963128755342        4.30409334570075        7.36071335562185
H           41.04630970462435        3.86386652996807        7.46064843254209
H           40.16990455726045        5.38828372711134        7.34829123643022
H           39.64826511243322        3.99915569382591        6.39801134901520
C           40.65427104566915        2.25818816498014        9.75301886613112
H           40.70802864050853        1.42275304850984        9.05074465762289
H           40.71973066604491        1.85515548993192       10.75802803081782
H           41.53605841103754        2.87472222266497        9.57831733225131
C           36.00661889565849        7.21508010424364        5.55469425787318
H           36.77827021706629        6.54768078480168        5.17804361950294
H           36.46184637158414        8.19694471945147        5.69530110357733
H           35.25067147080616        7.32835852020882        4.77382541905834
C           33.14297880585421        7.93671907134637        6.71415366719724
H           32.11313090249782        7.58945019523735        6.74925671832945
C           33.37426471052866        9.12263001036708        6.22970733507669
H           34.35148569025719        9.57739154794952        6.16215963396212
H           32.57554235300911        9.74925101941559        5.85198931354206
C           30.27950892805530        6.54288721529087       10.97518360250333
H           29.95617164330178        6.42238994440468        9.94189486135301
H           30.60528788750219        7.57593422689930       11.10297391114234
H           29.41840869782954        6.37583016876392       11.61253980387538
C           30.72412391895433        4.47916937278178       13.52072746197063
H           30.95498761508745        3.56407806849411       14.05862495896396
C           29.76650465123796        5.23999955598537       14.02979511808382
H           29.46540583920081        6.18222589318416       13.60610917798279
H           29.23770348313055        4.95707212057968       14.92767153155782
C           34.61054275473558        1.11451221854602       15.00931293532021
H           33.61245344178133        0.74052860396222       14.78885865211733
H           34.52156292847252        1.86534968916390       15.79538014316293
H           35.19331530246483        0.28467462275589       15.40462956423554
C           37.64907029948836        0.83187538067229       14.16716083550913
H           37.80611100608759       -0.18178798205799       13.80554470153125
H           37.37947501931980        0.78904764370065       15.21765788671675
H           38.57852282608699        1.38545547938340       14.07233092408451
C           32.41381558670498        0.04324464234258        7.53578227372102
H           32.24304208793585       -0.69763333114963        8.31774868418644
H           32.60896805094118       -0.47706566556481        6.60584103339666
H           31.49899236994126        0.62271907239978        7.43470944011470
N           34.85619259520438        0.78013450144317        7.65054512188409
H           35.26283548578839        0.08910922865522        7.03608831273668
C           33.52503553505588        0.94094346890926        7.93829189053746
C           35.53456626261211        1.74000091993161        8.31676789751346
H           36.60485324567853        1.84615208951935        8.29011034622372
N           34.72229462458922        2.50548488013398        9.00530614789142
C           33.46339997164695        2.02302557862962        8.76961144972761
H           32.60308828430056        2.49193446337404        9.20913408637762
O           35.98816683049455        5.54416661619478       11.22899759733417
O           35.47017577002266        5.79243635529703       12.36175010101163
77
 energy: -118.597182370692 gnorm: 0.033342290419 xtb: 6.7.1 (edcfbbe)
Fe          35.37342656041263        4.22912272552188       10.36364468033543
N           37.22989720530613        3.82047625923932        9.71061008628393
N           35.02640393249755        5.43219323207292        8.71378706665439
N           33.41685070996326        4.53916909760753       10.96801407218048
N           35.60147609612494        2.90224471498205       11.84725384738667
C           38.15891721229565        3.00942760275157       10.28549932519690
C           39.38472139269208        3.03581261316754        9.51047661841402
C           39.15683180218698        3.88844472558288        8.46684919960954
C           37.80134941165178        4.36576067701166        8.60219055204688
C           35.92142802609605        5.73228390334814        7.74373188432079
C           35.36251759123586        6.68932833642234        6.82121561926324
C           34.10238522604854        6.98017092954479        7.28236247065830
C           33.90245830933478        6.16697327581428        8.47589447890039
C           32.56208332819372        5.45801325244733       10.44129430723655
C           31.39836557107430        5.60309972984078       11.27630912149250
C           31.56241851145981        4.73454129773735       12.33864470814567
C           32.84453822722248        4.07493489445567       12.10841569676845
C           34.69717498873353        2.60409725511515       12.82578543245271
C           35.28508402613232        1.71446651752368       13.79588533022621
C           36.58563891100015        1.52739183921744       13.40968869356432
C           36.75836732699708        2.25466433696898       12.17245847968354
C           37.93796110035102        2.26854066350556       11.43798155255017
H           38.74503395466709        1.65018115406144       11.80140896237769
C           37.21189287270315        5.22099746679518        7.68779935141073
H           37.83190116322156        5.53861044111011        6.86555441260688
C           32.77397314920796        6.17987375492616        9.26656547804332
H           31.98052538313896        6.84620680162536        8.96353393215690
C           33.42754427050716        3.14896351000753       12.95643533482650
H           32.87810842554237        2.85749239595220       13.83905059144072
C           40.06541389615228        4.29671991072641        7.36501707744359
H           41.04633150881842        3.84904762969672        7.47624732139567
H           40.17802074427127        5.37938904932451        7.35378023651978
H           39.65603639695859        3.99287039997806        6.40255370188693
C           40.63196385293701        2.26296831521305        9.75994900544165
H           40.69295799173592        1.42515130026365        9.06326700145415
H           40.68742626785775        1.87093531067308       10.76877204969488
H           41.50551471303355        2.88880804609131        9.58943625762548
C           36.00088955274553        7.20413966951906        5.57961563603370
H           36.76630519319983        6.52968848426266        5.20668797131876
H           36.46149406237396        8.17767199730255        5.74044174661590
H           35.24221074016013        7.32937607123550        4.80724571265663
C           33.12361844600861        7.91010198241773        6.73334843930411
H           32.09588785385691        7.56491483553081        6.78163155281217
C           33.38636716860092        9.10437173595711        6.20677630959890
H           34.36611949205127        9.55018534716011        6.17831501586327
H           32.59192317602499        9.74076099685069        5.84877316197340
C           30.28453280378022        6.53398660555996       10.96883169585415
H           29.96628403143927        6.42214327808574        9.93388645368841
H           30.60813656917662        7.56510452559742       11.11041705138922
H           29.42723060480795        6.35288226566978       11.60496230295439
C           30.73645484763579        4.47672375297588       13.50081817647476
H           30.96866946360612        3.55837226101130       14.02717343242309
C           29.77298591107655        5.23889146631410       14.00894447036401
H           29.48741584959482        6.19516227075966       13.60825813947615
H           29.24331727172981        4.94295475834565       14.89870151982991
C           34.61426863886453        1.13652612940450       14.99370331595894
H           33.61941406706507        0.76624996429212       14.75852897336908
H           34.52005227820110        1.88423219264195       15.78068520314542
H           35.19526562824360        0.30672054999064       15.38668630336654
C           37.65766810133030        0.82439721014164       14.15911458463825
H           37.81137204209157       -0.18841397713330       13.79245039731914
H           37.39538694148872        0.77084920284408       15.21097712209386
H           38.59328114434418        1.36842759404140       14.07215881579565
C           32.41713548502973        0.04394818910663        7.53242390673169
H           32.24589723346204       -0.71059303913497        8.30035612096139
H           32.63271560775763       -0.46269051079868        6.59817595206122
H           31.50110536823530        0.61667288235054        7.42384618820560
N           34.83434754720873        0.77226578627522        7.66783100763471
H           35.23102139207759        0.07629348158908        7.05402662331814
C           33.51145732663856        0.94355134724124        7.96142265906038
C           35.52480266710855        1.73232189121962        8.31773087165040
H           36.59033145413613        1.83413402113759        8.27180469004437
N           34.72475203283897        2.50760377300727        9.01521128911827
C           33.47024384452796        2.02786428673548        8.79568057830925
H           32.61555584513586        2.49763740239168        9.23616133255509
O           35.95401398636179        5.52769173329961       11.25907336216517
O           35.45912827221967        5.79750421847761       12.39975797617065
77
 energy: -118.601139224932 gnorm: 0.026213437784 xtb: 6.7.1 (edcfbbe)
Fe          35.37340294638341        4.24632134102747       10.36506368941181
N           37.22281865576181        3.83083479497233        9.69395448772479
N           35.02432478099085        5.43364841120372        8.72276724745939
N           33.43028692586071        4.55823970979686       10.96369713853385
N           35.60536914873739        2.90384325379760       11.83803346341320
C           38.14906752318510        3.01635215816535       10.26903049741121
C           39.36976408468875        3.03550280273299        9.49967893305185
C           39.15155028284280        3.89074577194399        8.45555727436616
C           37.79882827929424        4.37334872391963        8.58712047416231
C           35.91651347225707        5.73138705005381        7.74625166048059
C           35.35303620375195        6.68538249464232        6.82891156287368
C           34.09637419797131        6.97472732108610        7.29704817893606
C           33.90316360437154        6.16622798886410        8.48193048243124
C           32.56955500821422        5.46834821766295       10.43687765021012
C           31.40535658128493        5.60347235689809       11.26907522266169
C           31.58316149125429        4.74277658348822       12.33114981646524
C           32.86261419121313        4.09068566010807       12.10474777975076
C           34.70660247208060        2.61308434363503       12.81367967537131
C           35.30053760126341        1.73221274878523       13.78991866404890
C           36.59955602522504        1.54323228840518       13.40807869744624
C           36.76761462058870        2.26721928975815       12.16735388266711
C           37.93730635475776        2.28667797337676       11.43095488631275
H           38.75413764729169        1.68748657799232       11.80368913020676
C           37.20786624493473        5.22951895383592        7.67811690924652
H           37.82493223681995        5.55879317817202        6.85595690261218
C           32.77164405445004        6.19046106832759        9.26750370914378
H           31.98100640315039        6.86245385031731        8.96877585415279
C           33.43439083422048        3.15179519864115       12.94291777978686
H           32.87850538777393        2.84683416381067       13.81599047274693
C           40.07508695943643        4.28839794924759        7.36456742313709
H           41.05012320065661        3.83007254320306        7.49220352271847
H           40.19652976962858        5.37053977533445        7.35216510903089
H           39.67328060412139        3.98433175373875        6.39850055256160
C           40.61242638912192        2.26731212905174        9.76819604274225
H           40.68332737200461        1.42115053525090        9.08269547171488
H           40.65003039260891        1.88914548852130       10.78408528067179
H           41.48299157666703        2.89876420559426        9.60414861825883
C           35.99717653468372        7.20074991434569        5.59767120860211
H           36.75051595049536        6.51220086341101        5.22526708751849
H           36.47544824361044        8.16155858134531        5.78277571310927
H           35.23900056570177        7.34918780177443        4.82981618739493
C           33.11012787883234        7.89151112863055        6.76005722875643
H           32.08319240266133        7.55667220084208        6.81068286291800
C           33.38357784206719        9.08883978336635        6.24143154655149
H           34.38106930579018        9.48065032887104        6.17025477549779
H           32.60062870817413        9.70188410248981        5.82799273539635
C           30.28498759518355        6.52460030246466       10.96222641259262
H           29.97773712436706        6.42570878472677        9.92202607303608
H           30.60033775370842        7.55660441713700       11.12372201000418
H           29.42656594697607        6.32117056825414       11.59165868378272
C           30.75344423707548        4.47440467462067       13.48319918065159
H           30.96968421406341        3.54272468360162       13.98880235533125
C           29.79038133793961        5.24470542818633       13.99542898698346
H           29.51717210883224        6.20766688865776       13.60485723672160
H           29.23957658342350        4.92124118187026       14.86288713565239
C           34.61716852076158        1.16143340687742       14.97947695563843
H           33.62384635149235        0.79777700090705       14.72509716221011
H           34.51563784872922        1.91056396497202       15.76432687384974
H           35.19329183349983        0.32977679796601       15.37556690349279
C           37.66839508277983        0.81839484390562       14.14616576537553
H           37.81098609166375       -0.19212673134952       13.76317282354359
H           37.41105433529341        0.74803002512335       15.20022219342489
H           38.61335086248273        1.35097787274869       14.06674695635238
C           32.41370291380743        0.04485269377643        7.53436832957108
H           32.23909045893967       -0.73313138077665        8.27977756622338
H           32.66530560956263       -0.43708179652602        6.59188302040479
H           31.49121356588539        0.60498737547582        7.41265288924585
N           34.81413300443602        0.76795643603694        7.68808191173130
H           35.19664630934965        0.06314951174350        7.07685142139589
C           33.49537174447570        0.94751116371974        7.99402893999738
C           35.51969657068088        1.72384204845879        8.32142121224302