78
 energy: -116.002862620794 gnorm: 0.205575570838 xtb: 6.7.1 (edcfbbe)
Fe          14.69600000000000       27.98600000000000        4.77500000000000
N           14.87300000000000       29.30000000000000        6.27800000000000
N           13.84200000000000       26.67800000000000        6.02800000000000
N           14.54600000000000       26.63500000000000        3.30100000000000
N           15.60300000000000       29.28600000000000        3.52000000000000
C           15.42900000000000       30.56400000000000        6.22500000000000
C           15.35800000000000       31.21000000000000        7.54400000000000
C           14.75500000000000       30.30300000000000        8.37000000000000
C           14.46800000000000       29.14500000000000        7.60100000000000
C           13.58100000000000       26.87400000000000        7.38200000000000
C           12.94700000000000       25.66300000000000        7.93900000000000
C           12.83700000000000       24.78100000000000        6.94500000000000
C           13.39400000000000       25.42400000000000        5.77700000000000
C           14.00700000000000       25.36199999999999        3.37600000000000
C           14.09500000000000       24.69900000000000        2.11400000000000
C           14.70200000000000       25.58500000000000        1.28300000000000
C           14.96400000000000       26.78200000000000        2.03500000000000
C           15.88600000000000       29.08900000000000        2.20900000000000
C           16.53800000000000       30.21800000000000        1.65000000000000
C           16.66300000000000       31.12900000000000        2.66500000000000
C           16.06600000000000       30.54500000000000        3.83700000000000
C           15.98400000000000       31.13400000000000        5.08000000000000
H           16.39100000000000       32.14000000000000        5.17700000000000
C           13.87200000000000       28.02100000000000        8.10100000000000
H           13.60300000000000       28.02800000000000        9.15700000000000
C           13.47200000000000       24.81500000000000        4.52600000000000
H           13.07000000000000       23.80500000000000        4.44700000000000
C           15.58200000000000       27.92299999999999        1.53600000000000
H           15.86100000000000       27.89300000000000        0.48300000000000
C           14.43900000000000       30.46400000000000        9.83800000000000
H           14.77600000000000       31.46500000000000       10.18200000000000
H           14.97100000000000       29.68400000000000       10.42400000000000
H           13.34300000000000       30.37800000000000        9.99800000000000
C           15.85500000000000       32.57800000000000        7.85800000000000
H           15.77700000000000       33.21800000000000        6.95300000000000
H           16.91900000000000       32.52800000000000        8.17300000000000
H           15.24000000000000       33.02400000000000        8.66800000000000
C           12.53500000000000       25.53300000000000        9.38200000000000
H           11.93500000000000       26.42000000000000        9.67800000000000
H           13.43800000000000       25.47800000000000       10.02700000000000
H           11.91700000000000       24.61900000000000        9.51500000000000
C           12.26400000000000       23.38300000000000        6.97200000000000
H           11.49700000000000       23.10200000000000        6.23600000000000
C           12.63700000000000       22.45600000000000        7.84600000000000
H           13.40100000000000       22.68000000000000        8.60600000000000
H           12.18700000000000       21.45200000000000        7.82200000000000
C           13.60500000000000       23.30100000000000        1.86400000000000
H           12.64300000000000       23.14400000000000        2.39800000000000
H           14.35000000000000       22.56900000000000        2.24200000000000
H           13.44200000000000       23.14900000000000        0.77600000000000
C           15.09800000000000       25.49400000000000       -0.15500000000000
H           15.58200000000000       26.37300000000000       -0.60300000000000
C           14.93400000000000       24.47800000000000       -0.95500000000000
H           14.45800000000000       23.55399999999999       -0.59400000000000
H           15.27000000000000       24.53100000000000       -2.00100000000000
C           17.00700000000000       30.35300000000000        0.22600000000000
H           16.18100000000000       30.07700000000000       -0.46400000000000
H           17.86700000000000       29.67300000000000        0.04800000000000
H           17.30700000000000       31.40400000000000        0.02800000000000
C           17.32500000000000       32.46500000000000        2.55100000000000
H           16.62500000000000       33.18700000000000        2.07900000000000
H           18.23500000000000       32.38000000000000        1.92000000000000
H           17.59700000000000       32.83600000000000        3.56200000000000
C            9.43100000000000       29.58200000000000        2.60500000000000
H            9.52900000000000       30.57999999999999        2.12700000000000
H            8.50600000000000       29.56600000000000        3.22000000000000
H            9.37300000000000       28.80700000000000        1.81100000000000
N           10.95500000000000       30.13500000000000        4.54300000000000
H           10.41600000000000       30.92000000000000        4.84800000000000
C           10.62400000000000       29.32600000000000        3.47800000000000
C           12.08300000000000       29.70900000000000        5.08400000000000
H           12.57200000000000       30.17299999999999        5.93900000000000
N           12.49200000000000       28.64800000000000        4.41300000000000
C           11.59600000000000       28.38500000000000        3.40700000000000
H           11.73500000000000       27.55000000000000        2.73300000000000
O           16.74400000000000       26.98900000000000        4.89900000000000
H           16.70300000000000       26.23000000000000        4.31800000000000
H           17.44500000000000       27.24299999999999        5.38400000000000
78
 energy: -116.033466457196 gnorm: 0.075092280360 xtb: 6.7.1 (edcfbbe)
Fe          14.66872600186814       27.97489481972959        4.78398897300666
N           14.88990029394678       29.29805199018774        6.28555187911536
N           13.84947929435760       26.65723138443581        6.04862188469595
N           14.53340991584396       26.63399016464608        3.30227251123925
N           15.57661384275105       29.28779365327269        3.53239205576152
C           15.43054011681495       30.55584023389765        6.22583115784376
C           15.35635038803826       31.20437551046906        7.52858245330476
C           14.75975745492287       30.30646957988812        8.36376780482684
C           14.47345865404711       29.13742628760511        7.58934960198899
C           13.57948197256106       26.85771011937854        7.38227016534220
C           12.95244105186154       25.66705269174123        7.94642101558357
C           12.83522125396359       24.76957264035305        6.93782411733146
C           13.39027313104806       25.41366953649768        5.76582173404636
C           14.00336420765169       25.36792755164191        3.37592974615997
C           14.09665230068114       24.70484146573378        2.10520734253717
C           14.70770919741047       25.59132608788576        1.25765648130921
C           14.96295603094513       26.78673737764127        2.02977055241448
C           15.87009031241718       29.08321398440692        2.22081918857067
C           16.53591056324566       30.21938142693012        1.65667468845478
C           16.66291270523092       31.12669892240817        2.66752111753326
C           16.05708055432776       30.53571532209652        3.83881461804885
C           15.97817870716875       31.12807042824767        5.08476878301078
H           16.38665023643708       32.12817580827247        5.18099879281978
C           13.86679655059387       28.00584622520548        8.09503769450697
H           13.60178739743142       28.01803562013726        9.14639101145917
C           13.46635605260142       24.80995138534617        4.52125570967422
H           13.07386012285324       23.80309741397475        4.44579462053405
C           15.57715347190480       27.92361757863981        1.53116240856876
H           15.86509407343549       27.90288652523611        0.48758590216729
C           14.44405707515101       30.46644978777806        9.82252133239521
H           14.77011281824262       31.44720099915248       10.17945266940056
H           14.95681122347574       29.70041296020302       10.41413697240929
H           13.36620385120738       30.37525185436863        9.99901238044354
C           15.85188880470017       32.57281361514888        7.84716110973540
H           15.78197057268558       33.22124418474748        6.96911529721309
H           16.90023233288209       32.53912020542695        8.16710747060572
H           15.26012592797728       33.02070242767148        8.65212704188419
C           12.53551488239541       25.53809943513326        9.37651912230937
H           11.94322987270200       26.40677323112894        9.68236882794181
H           13.41729411399705       25.47773531149137       10.02370225756395
H           11.93255795954557       24.63563981611144        9.51487192197999
C           12.27479858952323       23.39949504500961        6.97221500138251
H           11.52114863485884       23.13914272210540        6.22993881777763
C           12.63717982226938       22.47152800791698        7.84786223392124
H           13.39422469743526       22.67030263710974        8.59684635845308
H           12.20047275601720       21.47827690276656        7.82965258380013
C           13.60305705888637       23.31250256871483        1.87011357780916
H           12.65855220776020       23.14380713873799        2.39620706989915
H           14.33327921348769       22.57918567361424        2.23181730934411
H           13.42629823742288       23.13687619428217        0.80898235402505
C           15.09373573407431       25.49324076014643       -0.15176292666774
H           15.57276891736946       26.37279367413828       -0.57554045179852
C           14.93546667615489       24.46306152493732       -0.96751078903315
H           14.48050643896064       23.54180256241203       -0.63734473228176
H           15.26137595168764       24.51484908387823       -1.99813860420489
C           16.99984732653593       30.35097984281538        0.23854680860061
H           16.19614493091676       30.08217805528501       -0.45537192557577
H           17.85062266501143       29.68694516758223        0.04700567051924
H           17.30375273004074       31.37982505271182        0.02805562073878
C           17.31893217263067       32.46379143179450        2.55930584311460
H           16.64016235205697       33.18674794995697        2.09062068284072
H           18.21909539514096       32.39296700357699        1.94056304975224
H           17.60028665642070       32.84263394415292        3.54468567663814
C            9.43202791662727       29.58238751891845        2.61163402605972
H            9.51635233369430       30.56400744298200        2.13197377928958
H            8.51094685540362       29.56434061867805        3.20332981395975
H            9.37218522961697       28.82035013319588        1.83213860529592
N           10.94011413865227       30.14134667049815        4.53323586144272
H           10.39581500726312       30.92796730735191        4.84330529524130
C           10.62178811940309       29.33110487172209        3.47350598347486
C           12.08725423595412       29.70373473976764        5.06966102286182
H           12.56608522559198       30.15671755610723        5.91968017395888
N           12.52797285511535       28.65976124802157        4.40498125626990
C           11.61779057036465       28.40037841741127        3.41668097334794
H           11.75109822770226       27.56851502225189        2.75115265372392
O           16.71667824412558       26.98298899444593        4.92072547008875
H           16.71869666592487       26.23487653961006        4.32377023402577
H           17.48127991857552       27.24754441112381        5.40129520616642
78
 energy: -116.042105150661 gnorm: 0.027610615465 xtb: 6.7.1 (edcfbbe)
Fe          14.64949401185516       27.96648375988416        4.78414526456992
N           14.89103442864707       29.29507841831528        6.28999254853116
N           13.84388294638123       26.65020031053759        6.05573049826280
N           14.51176488443924       26.63497508041024        3.29594172182850
N           15.54997841483375       29.29232101059074        3.53890775610753
C           15.42803522995411       30.54547202055720        6.22543525316030
C           15.35431153843793       31.19740512810488        7.51591690487889
C           14.76295556189499       30.30632147946008        8.35992564803058
C           14.48010071048847       29.12728159522703        7.58029041833833
C           13.58355352331303       26.84421191118581        7.37764177945183
C           12.96335869481817       25.66992824198645        7.94912785720025
C           12.83943283688058       24.76483049586930        6.93306946603319
C           13.38723345136635       25.40903086324220        5.75459064640281
C           13.99216400595956       25.37474661735556        3.36993066495889
C           14.09065521883353       24.70746658478165        2.09727623045618
C           14.70535966253405       25.59060179683983        1.23742373303194
C           14.95156344447733       26.79087599160123        2.02048595693598
C           15.84629651083377       29.08075521207844        2.22870399590565
C           16.52823221176444       30.22019473379056        1.66405527247981
C           16.65797826228219       31.12535190540727        2.67229909104326
C           16.04070589845035       30.52980974851004        3.83975630883454
C           15.96981338429072       31.12219093523769        5.08797257101117
H           16.38286063914312       32.11620561112277        5.18580604166832
C           13.87074865342665       27.99227398570016        8.09005867426099
H           13.60391751634419       28.00931270232706        9.13675167927749
C           13.45964788602982       24.80515434669117        4.51480170260093
H           13.07697058446692       23.79825432206598        4.44350712030818
C           15.56506824859929       27.92659798485772        1.52396486955998
H           15.86979612856625       27.91679514134560        0.48946677796724
C           14.44818231380256       30.46631661894634        9.81061743034262
H           14.76942898770607       31.43911023435865       10.16902490663740
H           14.95421845494401       29.70439285123673       10.40021291682789
H           13.37799105591286       30.37013678450291        9.98933623819213
C           15.84945015355834       32.56785635027641        7.83537609569816
H           15.78079996262017       33.22103736627220        6.97086549178715
H           16.89122402992232       32.53788199978874        8.15517511791719
H           15.26800492421688       33.01007925822756        8.64093523434356
C           12.53850076469007       25.53818325312383        9.37032250824690
H           11.94862724427382       26.39855009257312        9.67871395278765
H           13.40802363472527       25.47624075462328       10.02291301357985
H           11.94281524320609       24.64027059380858        9.50593326667920
C           12.28844899391703       23.41888090837667        6.97083619717805
H           11.55157910623645       23.17629528592465        6.21308618192196
C           12.63935555791983       22.48872553950071        7.84920276269654
H           13.38713412451133       22.67197580619805        8.59929642507662
H           12.20364713040884       21.50432275396124        7.83869301006854
C           13.59642596263493       23.31914524302082        1.87267191832642
H           12.66637724487361       23.15171669366576        2.40928974180824
H           14.32610920567046       22.59068661247915        2.22621494791726
H           13.40837595223943       23.13244755656528        0.82378595861921
C           15.08553039869691       25.48118704083269       -0.14891558959851
H           15.55145837794658       26.36581584018680       -0.56009204033186
C           14.93986057146833       24.44511885648864       -0.97418526126949
H           14.50172335159639       23.51688283285351       -0.67173354615109
H           15.26076225074191       24.50503595703627       -1.99744969932428
C           16.99138795417007       30.34564161436104        0.25094840633755
H           16.19587597614088       30.08122953636125       -0.44242483080158
H           17.83720876730657       29.68633598413640        0.05752454372641
H           17.29955841476038       31.36465984485953        0.03928206666995
C           17.31271101905926       32.46329809380395        2.57440172708261
H           16.64199788976259       33.18520482470756        2.10794434787863
H           18.20828879118550       32.39810361598973        1.96062092925122
H           17.59702106480589       32.84314969069585        3.54920608025656
C            9.43799259558102       29.57214752281155        2.61742208935314
H            9.50898571359962       30.54796424128499        2.13878611305553
H            8.52136991238081       29.55063609316268        3.20276421291667
H            9.37718377122876       28.81557628761173        1.84502042521987
N           10.93369606730837       30.14836077945095        4.52883232611366
H           10.38031790006880       30.92943110086274        4.84396442887151
C           10.63103086018631       29.33429546428413        3.47003040514804
C           12.09953058965668       29.71788492105528        5.05663666205073
H           12.56729357224671       30.16503325667510        5.90684132876732
N           12.56546965050972       28.68754024637239        4.39799522149241
C           11.65403790699466       28.42518353549612        3.41627513108661
H           11.78639298089727       27.59682465057878        2.75232074893770
O           16.67316168674374       26.94365770839162        5.02159545801434
H           16.76933826135970       26.26767371829534        4.32539575236756
H           17.51517916629388       27.27174624883932        5.38551279312960
78
 energy: -116.044111024401 gnorm: 0.045126117877 xtb: 6.7.1 (edcfbbe)
Fe          14.64270850325570       27.96273687874369        4.78175050889399
N           14.89088906360422       29.28889337085853        6.29105183878732
N           13.83491724042956       26.65361653214334        6.05080777431479
N           14.49814846393351       26.63697443743990        3.28761022484969
N           15.53921322940102       29.28937361828369        3.54078575620877
C           15.42467520146837       30.53845571578583        6.22355608823372
C           15.35323586644467       31.19244389191080        7.51041073076957
C           14.76548256814872       30.30338860623797        8.35810545349062
C           14.48222213796181       29.12139091027489        7.57694781259830
C           13.58509842670611       26.84162641614103        7.37199749643493
C           12.97454214960639       25.66897240501812        7.94803578646318
C           12.84846595039658       24.76427166789014        6.93031403282850
C           13.38481630554405       25.41085403262364        5.74728984848844
C           13.98022097667559       25.37970922187344        3.36308666667497
C           14.07863498226586       24.70813970987989        2.09302759623540
C           14.69336590118339       25.58732344201292        1.22779663735819
C           14.93758460949686       26.79220070503735        2.01064894917712
C           15.82897949248574       29.07873600676787        2.22996472204602
C           16.51640327567006       30.21950491148770        1.66811501457859
C           16.64852428884348       31.12295603511231        2.67663918893347
C           16.02863335279194       30.52462606109938        3.84077220351008
C           15.96302371807386       31.11772990692982        5.08805451901088
H           16.37805835232236       32.10956979147724        5.18716992769386
C           13.87354339898295       27.98774033333827        8.08803174222389
H           13.61116619720827       28.00166479332495        9.13488886490386
C           13.45308926149788       24.80527452809982        4.50928444450475
H           13.07921866648455       23.79517084961661        4.44123369300651
C           15.55136404085353       27.92863565115712        1.51651177899221
H           15.86497455849718       27.92674999014518        0.48512799577433
C           14.45119424795343       30.46316208083596        9.80613949866154
H           14.77089898550262       31.43665568605009       10.16425437383797
H           14.95826097253853       29.70090865173928       10.39445779732365
H           13.38100395899277       30.36406954701908        9.98351569539065
C           15.84793764874373       32.56447989302742        7.82642761364270
H           15.77352312841227       33.22022112168101        6.96414774798201
H           16.89155229005391       32.53432915616329        8.14002114931996
H           15.27010914059178       33.00258588150127        8.63660895070506
C           12.54448018521622       25.53410887551751        9.36666043653430
H           11.95058345995949       26.39266158280889        9.67421804366430
H           13.40976889480191       25.47281828220506       10.02571373830231
H           11.95050018598587       24.63405180167713        9.49589005749624
C           12.29854505919789       23.42435719628418        6.96650871786372
H           11.57645076143571       23.18684481268992        6.19286553761474
C           12.63416170081834       22.49837459177090        7.85553444733869
H           13.37714102322766       22.68102276283492        8.61104447454297
H           12.19939397240070       21.51427992964571        7.84481905697613
C           13.58417388480319       23.32010552669560        1.87545460940521
H           12.66408507636125       23.15298514621188        2.43004600383007
H           14.32186899432145       22.59435596851754        2.21903708823725
H           13.37877990511730       23.13000791343321        0.82961174671903
C           15.07276680298578       25.47003632687291       -0.15499144955252
H           15.52850728828124       26.36069819195999       -0.56503305173590
C           14.94518194799758       24.43113467363012       -0.98255971307149
H           14.53184637208744       23.48547231166774       -0.69179799262543
H           15.26976011681375       24.50077558344870       -2.00501854818443
C           16.98200059333878       30.34107694911736        0.25723961983194
H           16.18623839187042       30.07918499763845       -0.43662297548886
H           17.82567308130455       29.67787255590072        0.06684440518051
H           17.29571719659689       31.35890192194642        0.04671263100641
C           17.30367579602059       32.46178811950510        2.58951675785638
H           16.63323528999180       33.18708489880390        2.12785160020672
H           18.20041544102902       32.40128392001549        1.97644450822876
H           17.58825546157328       32.83647464385712        3.56656668230217
C            9.44758005972228       29.55559852395113        2.62205384888097
H            9.50021714492767       30.53199770819803        2.14037946897251
H            8.53506292475939       29.52329113041409        3.21426905262836
H            9.39041227911739       28.79554889875356        1.85236966280333
N           10.93730310493450       30.15659561551892        4.52836286736356
H           10.36996475748004       30.92610068611597        4.84799089326867
C           10.65016954805819       29.33872148663647        3.46695194035276
C           12.11522211712266       29.74616009638271        5.05056376711145
H           12.57384898963715       30.19600109196699        5.90417050133357
N           12.60198438016746       28.72856229400574        4.38768812433624
C           11.69486328513720       28.45335513350344        3.40664446306724
H           11.83822478683813       27.63168525279457        2.73669219965113
O           16.65057189609488       26.92181720725704        5.10686647578878
H           16.80729048355975       26.30943591811054        4.34555450615530
H           17.52439680588176       27.30222703300630        5.38229567195724
78
 energy: -116.045591048163 gnorm: 0.038176059082 xtb: 6.7.1 (edcfbbe)
Fe          14.63167707294875       27.96194798443761        4.77590911684645
N           14.88940760621994       29.27979469630396        6.29188419921509
N           13.81979333421382       26.66338319361864        6.03905003726801
N           14.47855947311281       26.64181093833774        3.27346866215056
N           15.52439966777398       29.28492049935837        3.54260188338758
C           15.41943773200838       30.52861027195423        6.22005412106067
C           15.35172372304391       31.18558528299640        7.50282953441923
C           14.76958915365787       30.29893220664549        8.35556936778859
C           14.48601001355035       29.11290207114709        7.57264354957892
C           13.58918081267494       26.83995966181902        7.36181450893398
C           12.99511728523293       25.66704481803590        7.94503951319827
C           12.86570959134792       24.76494413178285        6.92573142721301
C           13.38193511109769       25.41645032049892        5.73549019903643
C           13.96198211280979       25.38864617629193        3.35171044144890
C           14.05959103994998       24.70968538369457        2.08698551241332
C           14.67447422068281       25.58174760749155        1.21498243222831
C           14.91619292094260       26.79450700339548        1.99450560877539
C           15.80239760386049       29.07645218325075        2.23066444269310
C           16.49602034719713       30.21927912433149        1.67347449448077
C           16.63202732456181       31.12022548786274        2.68278156019485
C           16.01002008462541       30.51770719662291        3.84207550386758
C           15.95292105766500       31.11195317956494        5.08747010803601
H           16.36999519587945       32.10108359798108        5.18875013024636
C           13.87996027934906       27.98215095068706        8.08538672595379
H           13.62462203602433       27.98902985719511        9.13300752622753
C           13.44370845895198       24.80719811839112        4.50028527193119
H           13.08417236829316       23.79136966025585        4.43736008939503
C           15.53023860674151       27.93248180579723        1.50406668558637
H           15.85654365750411       27.94328902273273        0.47669156789765
C           14.45608364171338       30.45781923956921        9.80024144515665
H           14.77367663503355       31.43405511746162       10.15756030026740
H           14.96660381282818       29.69438450076706       10.38646784718168
H           13.38458032480879       30.35410282723908        9.97494761811700
C           15.84566042161448       32.56009323396905        7.81272377079583
H           15.76007987853813       33.21970331170802        6.95221506188261
H           16.89389590468936       32.52924234433253        8.11472399394313
H           15.27284386825289       32.99155240703799        8.63138979898360
C           12.55664140916019       25.52692376977940        9.36058187619312
H           11.95528921139831       26.38386313146759        9.66618776765737
H           13.41602897222361       25.46685790336397       10.03069957446658
H           11.96392914903622       24.62260091854836        9.47907657287671
C           12.31739070325556       23.43098168283958        6.95817476987811
H           11.61779975166229       23.20049263348308        6.16006570564895
C           12.62823094761861       22.51259979304105        7.86510311232664
H           13.36152163290119       22.69820311698948        8.63236173347015
H           12.19247410512595       21.52856008323414        7.85524061349304
C           13.56568479423954       23.32169821310978        1.87789854388550
H           12.66096054820888       23.15376955542421        2.46217714852716
H           14.31782011017388       22.59969766016783        2.20437997651144
H           13.33299580380158       23.13004916346730        0.83471189947336
C           15.05285575014458       25.45165488792031       -0.16505147503309
H           15.48845211186112       26.35357613205770       -0.57732376493112
C           14.95516793633644       24.40842073147396       -0.99313591180684
H           14.57633215589564       23.43652998157159       -0.71997134625883
H           15.28285194598026       24.49475178555077       -2.01691946347419
C           16.96597212895482       30.33483546117192        0.26555147468469
H           16.16836506777828       30.07684722717130       -0.42935952749334
H           17.80684365934214       29.66400749797945        0.08069815558117
H           17.28873050147544       31.35222994616024        0.05722677046502
C           17.28809125071713       32.46030514963266        2.61248455248374
H           16.61645075191933       33.19165517669950        2.15914872464101
H           18.18730893672524       32.40711420118489        1.99924651978113
H           17.57313142345473       32.82563622015619        3.59530290370804
C            9.46423007273655       29.52791388014520        2.63016960729392
H            9.48834266241256       30.50571151104035        2.14259929481412
H            8.55810758635568       29.47972186432231        3.23566534181345
H            9.41142571415213       28.76083698256488        1.86425608917776