87
 energy: -124.720507082207 gnorm: 0.000037949691 xtb: 6.7.1 (edcfbbe)
Fe           2.62915912992449       19.01442320788685        5.44788639222693
N            2.27394105674457       17.31227951171625        4.46598578601136
N            1.75185377836341       18.26065008916431        7.08522284320262
N            2.98637311137701       20.73070342232368        6.42890340504524
N            3.43313450606454       19.80067863120750        3.79053243014241
C            2.61437913753330       17.01985003383520        3.18519185736593
C            2.23019108770481       15.66588649562484        2.84850419348991
C            1.64298147370776       15.15012275372146        3.95991817780381
C            1.67880549065435       16.19606924720911        4.95991336009130
C            1.18496094834959       17.03214533301163        7.21229833823680
C            0.63641655953736       16.85405545289915        8.53218062263867
C            0.89000394987914       18.01434456873462        9.21472866180125
C            1.58130547427310       18.88184817213321        8.28062306005422
C            2.68289016515731       21.00710220311086        7.72764314484896
C            3.10545418099288       22.33771237069741        8.08115275266711
C            3.65900734007883       22.87790852087804        6.95032307118372
C            3.55206343682336       21.85720229953218        5.92635993614047
C            3.91655768893206       21.06085158168731        3.63483001478879
C            4.38473605130460       21.26603184307878        2.28230544759746
C            4.17242644541298       20.09502013081807        1.62375205331383
C            3.57591894059839       19.19271852474231        2.58374069424871
C            3.21625015673581       17.88918142411885        2.29527927752954
H            3.41453541703502       17.52644049191651        1.29815752292382
C            1.15829813132625       16.05777366491607        6.22961145362761
H            0.70187671461645       15.11221187665555        6.47907579187172
C            2.03406310101721       20.14783219927086        8.59863804309538
H            1.86423581502222       20.49872347145368        9.60510580334404
C            3.98829759882460       22.02222153047965        4.62451457362027
H            4.42221575699404       22.97404791647896        4.35942799871031
C            1.06075374189939       13.79614613054832        4.17958267970690
H            1.15493623145406       13.18439614014180        3.28567433719215
H            0.00323228517114       13.86959807893226        4.43517548072108
H            1.57190923588423       13.28906272365539        4.99796706843766
C            2.46645146538436       15.03021234491496        1.52127496107541
H            3.53106299147479       15.01945509927052        1.28748954880610
H            1.95290144893986       15.58117882904444        0.73245554974123
H            2.10384018887751       14.00530325023443        1.51339879421328
C           -0.11313444821598       15.65350760500904        8.99400948739619
H            0.57146952081529       14.86107906396521        9.30139353030859
H           -0.74335147744095       15.26333443814942        8.19622201891006
H           -0.74383219395240       15.91060390389630        9.84270634316300
C            0.54226449078982       18.37361783752868       10.57147315468188
H            0.30996722473678       19.41990164988093       10.73489789814427
C            0.49770613890828       17.53721322763285       11.60351382462816
H            0.76431545217927       16.49886690695899       11.51129126185866
H            0.21616797838111       17.87184985112658       12.58819587042364
C            2.89026925210070       22.98417436087423        9.40507353225587
H            3.65466244280107       22.67457773361596       10.12013777076058
H            1.91829330694852       22.71254725337872        9.81462334269204
H            2.93385681767496       24.06657601252465        9.30275511572623
C            4.22256058506411       24.19409166096831        6.74776512528342
H            4.07393294370650       24.62095324701448        5.76251042473129
C            4.89834638271860       24.89097727324986        7.65557288858069
H            5.11768172973714       24.49828222065892        8.63320067234021
H            5.28051536421410       25.87512146739132        7.44044528683296
C            4.97905828086148       22.53725213614907        1.78128163880703
H            5.87971400929284       22.78655803408923        2.34309599347260
H            4.27323280032304       23.36083435275112        1.89207332269123
H            5.24446694754028       22.45270834724963        0.73026794908606
C            4.47405390778441       19.73752236361731        0.20858727243617
H            4.91451544615255       20.58077845365307       -0.31767609738255
H            3.56524430692333       19.44211400985159       -0.31664194340802
H            5.17465014422300       18.90309358352140        0.16562628932426
C           -2.38577227413533       21.44776327897669        5.17622009205155
H           -3.25569047375036       20.81172039131411        5.01275483619124
H           -2.48778797380047       22.33281751742026        4.54819617058790
H           -2.37268417341491       21.75883297292664        6.21607239243076
N           -0.87268616705344       20.20132562055117        3.61740299822936
H           -1.48153856217603       20.25859055709596        2.81761788940789
C           -1.13193389615321       20.71813856074375        4.85990552215616
C            0.34031456517726       19.60665586236932        3.66582898314276
H            0.80267670382102       19.11534940490444        2.83492476403381
N            0.86422787806143       19.71564095269742        4.86198291602392
C           -0.03918383798526       20.40414191180889        5.61589645543814
H            0.15456286355118       20.62643101507072        6.64442711015929
C            6.71473436508167       18.91438711364711        4.37465665834486
H            7.49962354278738       19.62919381522348        4.13537464226328
H            5.96374783230507       18.94732931984196        3.59110143935499
H            7.14345566457881       17.91535277365226        4.39954978049389
C            6.09298953219105       19.25558538649502        5.71486651354640
H            5.66723034858889       20.25751317327046        5.70911124100091
H            6.82925569624211       19.17065610484642        6.51412264359332
S            4.74416665516130       18.06855386994119        6.11026033353193
C            4.83023173814366       18.18909354622221        7.92335822029698
H            4.65700379184916       19.21477837414270        8.23299963171599
H            5.80396509257639       17.83898564933148        8.25598020879523
H            4.05004349998819       17.54963626679189        8.32116145591155
