87
 energy: -124.676775241483 gnorm: 0.133277281071 xtb: 6.7.1 (edcfbbe)
Fe           2.60200000000000       19.06700000000000        5.42800000000000
N            2.23400000000000       17.32300000000000        4.43600000000000
N            1.75300000000000       18.25000000000000        7.10600000000000
N            3.03900000000000       20.78000000000000        6.48700000000000
N            3.51400000000000       19.81800000000000        3.76900000000000
C            2.62800000000000       17.02200000000000        3.15100000000000
C            2.19600000000000       15.67000000000000        2.83100000000000
C            1.50600000000000       15.20100000000000        3.91400000000000
C            1.54400000000000       16.25000000000000        4.90600000000000
C            1.04700000000000       17.07400000000000        7.17200000000000
C            0.42500000000000       16.93200000000000        8.47100000000000
C            0.90100000000000       17.98300000000000        9.20200000000000
C            1.67000000000000       18.82700000000000        8.32600000000000
C            2.75900000000000       21.00100000000000        7.80300000000000
C            3.07000000000000       22.38400000000000        8.12400000000000
C            3.55500000000000       22.95799999999999        6.97000000000000
C            3.54900000000000       21.91600000000000        5.95500000000000
C            4.01900000000000       21.09400000000000        3.64800000000000
C            4.57000000000000       21.27900000000000        2.33500000000000
C            4.40200000000000       20.08200000000000        1.67100000000000
C            3.72000000000000       19.18000000000000        2.58000000000000
C            3.32700000000000       17.87300000000000        2.30900000000000
H            3.59800000000000       17.47600000000000        1.33100000000000
C            0.95700000000000       16.15400000000000        6.15600000000000
H            0.36500000000000       15.26000000000000        6.35300000000000
C            2.18200000000000       20.08500000000000        8.67500000000000
H            2.12200000000000       20.37000000000000        9.72500000000000
C            4.00200000000000       22.05900000000000        4.64800000000000
H            4.38800000000000       23.04100000000000        4.37700000000000
C            0.83500000000000       13.86300000000000        4.10400000000000
H            0.97300000000000       13.24600000000000        3.19100000000000
H           -0.25200000000000       14.01000000000000        4.27800000000000
H            1.29000000000000       13.33400000000000        4.96900000000000
C            2.47200000000000       14.95300000000000        1.54200000000000
H            3.43300000000000       15.31200000000000        1.11600000000000
H            1.65700000000000       15.16000000000000        0.81600000000000
H            2.54600000000000       13.86000000000000        1.72900000000000
C           -0.52700000000000       15.82100000000000        8.89000000000000
H           -0.01500000000000       14.83900000000000        8.79900000000000
H           -1.42100000000000       15.82400000000000        8.23000000000000
H           -0.83500000000000       15.97000000000000        9.94700000000000
C            0.68400000000000       18.29200000000000       10.62600000000000
H           -0.01400000000000       19.10300000000000       10.87900000000000
C            1.26700000000000       17.66700000000000       11.66600000000000
H            1.97800000000000       16.84500000000000       11.49600000000000
H            1.04000000000000       17.97100000000000       12.69900000000000
C            2.84500000000000       22.99900000000000        9.48600000000000
H            3.57000000000000       22.57100000000000       10.21100000000000
H            1.81400000000000       22.77500000000000        9.83300000000000
H            2.99700000000000       24.09800000000000        9.43100000000000
C            4.00400000000000       24.36799999999999        6.72700000000000
H            3.57500000000000       24.93100000000000        5.88500000000000
C            4.92200000000000       25.00300000000000        7.49500000000000
H            5.38500000000000       24.49000000000000        8.35100000000000
H            5.21600000000000       26.03900000000000        7.27200000000000
C            5.21600000000000       22.54100000000000        1.83000000000000
H            6.09400000000000       22.78800000000000        2.46500000000000
H            4.48900000000000       23.38000000000000        1.87800000000000
H            5.55800000000000       22.39500000000000        0.78300000000000
C            4.85800000000000       19.78200000000000        0.27800000000000
H            5.85900000000000       20.23400000000000        0.11000000000000
H            4.14100000000000       20.21300000000000       -0.45300000000000
H            4.93100000000000       18.68300000000000        0.13600000000000
C           -2.62100000000000       20.98400000000000        5.34000000000000
H           -3.34700000000000       20.15400000000000        5.20300000000000
H           -2.93300000000000       21.84400000000000        4.70900000000000
H           -2.61200000000000       21.28200000000000        6.41000000000000
N           -0.96800000000000       20.08600000000000        3.65700000000000
H           -1.61200000000000       20.10300000000000        2.89200000000000
C           -1.25600000000000       20.52600000000000        4.93100000000000
C            0.28000000000000       19.64500000000000        3.61500000000000
H            0.76500000000000       19.23900000000000        2.72800000000000
N            0.80600000000000       19.78800000000000        4.82000000000000
C           -0.13000000000000       20.34400000000000        5.65900000000000
H            0.09600000000000       20.55700000000000        6.69600000000000
C            6.69300000000000       19.38000000000000        4.47200000000000
H            7.55300000000000       20.08299999999999        4.49200000000000
H            6.01100000000000       19.67700000000000        3.64700000000000
H            7.07800000000000       18.35400000000000        4.28900000000000
C            5.94900000000000       19.42500000000000        5.80100000000000
H            5.58000000000000       20.45900000000000        5.96800000000000
H            6.66000000000000       19.17299999999999        6.61600000000000
S            4.56700000000000       18.27900000000000        5.83100000000000
C            4.80400000000000       17.63700000000000        7.52900000000000
H            4.73700000000000       18.45200000000000        8.28100000000000
H            5.80400000000000       17.16300000000000        7.62400000000000
H            4.02200000000000       16.88500000000000        7.76700000000000
87
 energy: -124.703805449601 gnorm: 0.047079144945 xtb: 6.7.1 (edcfbbe)
Fe           2.63046427739516       19.05701651476279        5.43570176252175
N            2.21997588700102       17.33864132653076        4.42968087483478
N            1.73924614280317       18.26379130675959        7.09476780085687
N            3.01467056680399       20.77788732031327        6.47283752764253
N            3.48077011658953       19.83459132478719        3.77033140854198
C            2.63084763739278       17.02670186302214        3.16293227744411
C            2.20101304670498       15.67844564302187        2.83261503685924
C            1.51121237232282       15.20970039466730        3.91053795433346
C            1.54068145082919       16.26215613719996        4.90017338274331
C            1.03069087958990       17.09739729334416        7.16310884024705
C            0.44645810347175       16.93646342575924        8.47928842860609
C            0.90238675639385       17.99286125805065        9.21502926173732
C            1.67206387213207       18.83381960430509        8.32161346643377
C            2.74695550812224       21.00607873365689        7.78719570781895
C            3.08079726106621       22.38087231061337        8.11955082484089
C            3.55799779184332       22.95936293987678        6.97197070532974
C            3.51868236570089       21.92255015693023        5.94981669120481
C            3.98925814099680       21.09854425563286        3.65075164369304
C            4.55768939926276       21.27408406989542        2.33858327959762
C            4.39527776951859       20.08460754644779        1.67860099150647
C            3.70854806775467       19.19156655549793        2.59066376347825
C            3.32801810170025       17.87987540432944        2.32001256781918
H            3.58955906749501       17.48806159011826        1.34217729144771
C            0.94534118644221       16.16599905783669        6.14816434769684
H            0.37607555971001       15.26553920516860        6.35279056415625
C            2.18578667993420       20.08477231131165        8.66502746325935
H            2.10679240369104       20.37433516670525        9.70751558514894
C            3.97915049892473       22.06666278125363        4.64723629181967
H            4.38996960005394       23.03539822963571        4.38419944432991
C            0.84598412947081       13.87883034072983        4.09738981440523
H            0.97019049652318       13.25588879087354        3.20733711567203
H           -0.22720157369201       14.00533628099179        4.27689603282430
H            1.27717616286001       13.34717980488843        4.95281076622562
C            2.47497528415585       14.96364538983213        1.54810487153872
H            3.42039856965004       15.30046600059476        1.11448051448836
H            1.67602700780171       15.15156750775349        0.82126640922078
H            2.54213059417455       13.88456822365748        1.71660788372659
C           -0.49683673799869       15.83739629456203        8.88812943842014
H           -0.01702243319615       14.85646878787634        8.80111659030055
H           -1.38655607720074       15.83262919824786        8.24695207176170
H           -0.81750001088845       15.97442132552843        9.92494700625178
C            0.67622297095278       18.29265466886547       10.63325698721001
H           -0.00953423184478       19.10765172758643       10.86611121114856
C            1.25650337447273       17.66867299355843       11.65212652000219
H            1.96178246765696       16.86090396477721       11.49457095612723
H            1.04995513410112       17.95928118303480       12.67546812167814
C            2.85447817933602       22.99500941430683        9.46819864071558
H            3.55778519546923       22.58035207482848       10.19967177554706
H            1.83929101762642       22.78431472937351        9.82200676581842
H            2.99604446054570       24.07862642914289        9.42729431257740
C            4.00512706336293       24.34764733784695        6.74467866866323
H            3.57837529165379       24.88335159357588        5.89632318909714
C            4.90285140915480       24.98356363669385        7.49600108125115
H            5.37848931113566       24.49505993672026        8.33691652536396
H            5.20091412904324       26.00368660549926        7.27806698823406
C            5.20932178169224       22.52576613419830        1.83790463747843
H            6.07636151586950       22.78568936733985        2.45626681012702
H            4.50574188796356       23.36446634942313        1.87302402252976
H            5.54796642768031       22.40076596550337        0.80585390995053
C            4.85283160007206       19.77813066080805        0.28918119493043
H            5.83866217282835       20.21945032763857        0.10739019970742
H            4.15616891689983       20.19458768658229       -0.44798435493066
H            4.92834591338745       18.69998204794090        0.12876627036527
C           -2.62038182072813       20.98519937732896        5.33238306043749
H           -3.34684703749047       20.17503136648693        5.20557029231770
H           -2.93998379210200       21.83645283169912        4.72275319394928
H           -2.61186851228259       21.28068663574465        6.38308078615125
N           -0.98091661365883       20.08661231542051        3.66194910667124
H           -1.62543765697115       20.10424203012391        2.88975738066934
C           -1.26438525205707       20.51865531850688        4.93191234613741
C            0.28778674711361       19.64721091012538        3.63685576904002
H            0.77088044872932       19.24742155397917        2.76239239066531
N            0.82993174165307       19.77775869681223        4.82950877136258
C           -0.12056059928875       20.32761139952936        5.64740824994006
H            0.10176430236507       20.54356195256754        6.67477388143730
C            6.70333246691228       19.37642744190949        4.47912129827412
H            7.54676147614613       20.07278649755737        4.49122777922954
H            6.04319778327045       19.65787611267132        3.65891771374572
H            7.07990475435732       18.36824920297975        4.28836332398290
C            5.96566033672898       19.42930806239679        5.80813498409314
H            5.57405163094046       20.44041258785561        5.97822175634800
H            6.65458268694964       19.17850783619901        6.62180917243274
S            4.62552913291788       18.20420257327601        5.83529862978791
C            4.81802999729667       17.63152548828576        7.55425435680042
H            4.72955185922139       18.45621627797743        8.26825831964310
H            5.79925144692203       17.15818896778626        7.63731815473857
H            4.03333256068756       16.89805805456481        7.75172114776678
87
 energy: -124.710232534170 gnorm: 0.015451449872 xtb: 6.7.1 (edcfbbe)
Fe           2.62678827837022       19.05581438472500        5.42714120929590
N            2.22052763030175       17.34966029182459        4.42819655136345
N            1.74054309464187       18.27406333076672        7.08200569145253
N            3.00187575335324       20.76384213344955        6.45744920418433
N            3.45796583880537       19.84292690327268        3.77663613713001
C            2.63111290071401       17.03580086664794        3.17046170629141
C            2.20804790735064       15.68955415450497        2.83252917503512
C            1.51531214071189       15.22165546824689        3.90696393611444
C            1.53887911842545       16.27542947352703        4.89621781578822
C            1.03140123826146       17.11558051521888        7.15420130220194
C            0.46942515896018       16.94547365565524        8.47886342470971
C            0.90934380085563       18.00564947480953        9.21550169891864
C            1.67439205877844       18.84396510279716        8.31028078847148
C            2.74118048888592       21.00199668576686        7.77030989608564
C            3.08912715836592       22.36734800996080        8.11254724816286
C            3.55637687240183       22.94662850216622        6.96649509808078
C            3.49510763193709       21.91705147737552        5.94019078555796
C            3.95882353202595       21.10093898066996        3.65198010188686
C            4.54008371738471       21.27253777679356        2.34095944674085
C            4.38354106842220       20.08630630531421        1.68548492682156
C            3.69222878237139       19.20121213004498        2.60016227359451
C            3.32124244399294       17.89061440799776        2.32516060219937
H            3.58079708302619       17.50324560429438        1.34919109940795
C            0.94010131922409       16.17789427530120        6.14158917602873
H            0.38246496938532       15.27602287926210        6.35194246305888
C            2.18397251237604       20.08742577911418        8.65298510788375
H            2.08554216884602       20.38441155636088        9.68899536664321
C            3.95497249376227       22.07211521316590        4.64221353372064
H            4.38051751209398       23.03337499030645        4.38636591279202
C            0.85439634716056       13.89620335609810        4.09210382859444
H            0.97701186222090       13.27461115050439        3.20996575974871
H           -0.21277473638354       14.01841275203399        4.27415277174866
H            1.27914006646222       13.36837635305937        4.94509654920610
C            2.48145836814973       14.97749018287591        1.55005058345255
H            3.42122659921478       15.30409595069042        1.11481612093929
H            1.68738405357195       15.16127186308065        0.82556419819920
H            2.53977360035617       13.90441481818378        1.71567788093332
C           -0.46175481174512       15.85340294781707        8.88783298071612
H            0.00909953403140       14.87523312599422        8.80194556603606
H           -1.34725857586742       15.85072055280101        8.25098736955498
H           -0.78176999132420       15.99229590505181        9.91732323139416
C            0.67620491489163       18.30651810262422       10.62824745399118
H           -0.00680763498307       19.12346683537967       10.84111382805457
C            1.25071413283007       17.67309031597827       11.63676026893697
H            1.94193835234266       16.86231097936927       11.48350854976592
H            1.04786612934692       17.94155624669455       12.65946243668112
C            2.86775328632590       22.98666924527708        9.45098421263717
H            3.56215709779953       22.58039869296327       10.18663405068086
H            1.85703175755477       22.78465328443900        9.80369589313566
H            3.00791844597668       24.06307535196902        9.40371515525272
C            4.00671930705663       24.31469327927677        6.74629861490771
H            3.57814316919400       24.82539547525640        5.88971172468227
C            4.88927523413766       24.95701735811367        7.49724535353962
H            5.36324280545393       24.49014246925115        8.34255146258511
H            5.17873716439872       25.97407036375004        7.29081350182048
C            5.19756730042749       22.51710623979909        1.84637240817596
H            6.05856473634750       22.77384720613656        2.46298188786722
H            4.50367806874811       23.35584775728275        1.87640815318666
H            5.53546993825614       22.39324798182764        0.82182941898941
C            4.84329083452053       19.76973989950059        0.30035485363481
H            5.82260316051374       20.20825726681992        0.11680741823914
H            4.15301413991662       20.17826987249621       -0.43862016016123
H            4.91825905238733       18.69925029319387        0.13945515662714
C           -2.62318986845482       20.98922505728695        5.33039751442947
H           -3.35351818848987       20.19080265002348        5.20635245527889
H           -2.93721263171359       21.83671041221523        4.72529657022200
H           -2.61158880706321       21.28709830343715        6.37228686617110
N           -0.99170552465054       20.08347677553086        3.66482682707874
H           -1.63264003492847       20.09889959469103        2.88749233911822
C           -1.27505038712723       20.51141897833308        4.93441432580601
C            0.28860403672119       19.65035157917141        3.65194394101626
H            0.77722277881005       19.25490310992382        2.78664627514738
N            0.83230426174859       19.77699209326181        4.83664853814549
C           -0.12439993583589       20.31615945124513        5.64403743085743
H            0.09131852997364       20.53059888961213        6.66917772418192
C            6.72400603041816       19.37172200932953        4.48851567632501
H            7.55860724107013       20.06775027787753        4.49854559195937
H            6.06530513179504       19.64220145440755        3.67385372670351
H            7.09775978126572       18.36990336197342        4.30244733011780
C            5.98796883971684       19.42172045366181        5.81640932042899
H            5.56161372236110       20.41070793905647        5.98405476226875
H            6.66493770707656       19.17750597579103        6.63299594485522
S            4.65364059737426       18.16593473573708        5.84655113794190
C            4.83012545654830       17.62316355292897        7.57437336808684
H            4.72014610276994       18.46232503797183        8.25436249667740
H            5.80055452555161       17.15035719956854        7.68267557900441
H            4.03922225173948       16.90437730203249        7.75182409480124
87
 energy: -124.712518819208 gnorm: 0.012136738536 xtb: 6.7.1 (edcfbbe)
Fe           2.62745038632812       19.05552613334277        5.42421318396176
N            2.21438351813273       17.36471849572035        4.42525014299018
N            1.74151676581655       18.28412410359651        7.07052177050165
N            2.98747731361246       20.75662879813284        6.44393870228892
N            3.43622464252325       19.84760708165215        3.77902558801658
C            2.62718593486665       17.04723916708604        3.17218035556874
C            2.21022048078618       15.70223445342714        2.83093932394556
C            1.51460108342046       15.23534171126219        3.90314284771152
C            1.53381271330169       16.28918194063279        4.89228930086825
C            1.03809062388512       17.12615434703491        7.14702301302762
C            0.48662332045630       16.95266457518486        8.47365178071541
C            0.91542108974546       18.01648179359110        9.20814990581615
C            1.67382469422305       18.85415970680945        8.29904640105674
C            2.73682565985412       20.99842499094409        7.75792831732242
C            3.09465661548389       22.35504862694363        8.10465498164238
C            3.55432142767773       22.93419566621324        6.95684968680790
C            3.47935192261300       21.91153300061616        5.92916281089303
C            3.93323717830228       21.10367108919797        3.64931100017549
C            4.51895819504369       21.27515285092360        2.33957675613270
C            4.36715264402622       20.08854650108681        1.68775824732667
C            3.67513115428697       19.20744536827048        2.60376315624178
C            3.31335195313159       17.89927346922870        2.32422291487681
H            3.57192539440324       17.51492538076176        1.34853446144372
C            0.93866026692757       16.18677736760030        6.13681276755250
H            0.38494719583070       15.28493877508277        6.35050342583586
C            2.17833210382046       20.09343028600355        8.64486174917965
H            2.06828379350436       20.39662422402922        9.67685834710844
C            3.93515653754664       22.07737121137754        4.63377306343615
H            4.36213094005233       23.03699464622913        4.38058256914449
C            0.85844246917566       13.91027964353685        4.08894915351535
H            0.98375471756856       13.28917857270043        3.20712867077741
H           -0.20873769195019       14.03186978144700        4.27113898288312
H            1.28501721143584       13.38636234652347        4.94348135499449
C            2.48768451872894       14.99237054499869        1.54898824605473
H            3.43017099467768       15.31507460590762        1.11695459948504
H            1.69627576267195       15.18056711619638        0.82248426235623
H            2.53975944318785       13.91890294591454        1.71491226540334
C           -0.43145615360986       15.85792952415788        8.89006144222229
H            0.04485726000465       14.88279617516681        8.80463906199008
H           -1.31844329866493       15.85277659830877        8.25575156727169
H           -0.74427452367801       16.00234996811864        9.92089128259586
C            0.67450524968994       18.32111322871319       10.61738241502885
H            0.00326632544001       19.15029826917130       10.81847377549424
C            1.23416505444366       17.66923857560190       11.62305874584467
H            1.92380030576507       16.85828543740891       11.46416279307840
H            1.04160984740483       17.93249700627736       12.64943128080402
C            2.88179636564952       22.97915548160946        9.43937540295457
H            3.57570694845387       22.57542416619000       10.17641161900359
H            1.87000356109452       22.78428887499554        9.79323875854670
H            3.02740227382195       24.05441387878360        9.38014236924993
C            4.00583089459320       24.29454384777944        6.73809405415995
H            3.59170285344048       24.78711274188138        5.86420870675458
C            4.86881338079903       24.94485732461765        7.50640937836318
H            5.34102041204127       24.48104741802420        8.35489174432640
H            5.16680114371328       25.95768437804358        7.29578324651568
C            5.18327872162201       22.51661187733065        1.85198254449721
H            6.04210111326479       22.76538465934284        2.47459967207484
H            4.49329910072379       23.35848016149659        1.88075645298776
H            5.52468540320652       22.39002017537240        0.82898623191514
C            4.83086846328672       19.76054555143229        0.30742305352843
H            5.80999984412313       20.19901991689176        0.12455059812715
H            4.14062108225957       20.16195538652205       -0.43555061472462
H            4.90680797629576       18.68874818861847        0.15628088043619
C           -2.62244670810028       20.99305485232664        5.33021898176699
H           -3.36388465550751       20.20417607598665        5.20747587007828
H           -2.92585659388361       21.84229340580178        4.72141320501022
H           -2.60996437650472       21.29617116217876        6.37087929004476
N           -0.99106525610431       20.07560568140447        3.66878115614057
H           -1.62745397987540       20.09148581334741        2.88789322993455
C           -1.27782481955815       20.50045070602632        4.93957826349538
C            0.29254578958254       19.64502767224822        3.66218931652221
H            0.78823470679782       19.25503871058677        2.79885270056155
N            0.83159503674296       19.76644714647419        4.84791114101170
C           -0.12831761893684       20.30265199125065        5.65108280142555
H            0.07837503828476       20.51527218593522        6.67862997440202
C            6.74954079543259       19.36168896193094        4.50261138490460
H            7.57725956692479       20.06589080407633        4.51495544040461
H            6.08886699380257       19.62340012105359        3.68545249917691
H            7.13403901292014       18.36273605710049        4.32149142674608
C            6.00753800288526       19.40644282605749        5.82616807844393
H            5.55095624269328       20.38182358982718        5.98858663618694
H            6.67821848186588       19.17259839691846        6.65024284562873
S            4.68012170115208       18.12925518168106        5.84835947056164
C            4.82927759445292       17.61939762623416        7.59199123730366
H            4.70242860417146       18.47592819414832        8.24736247548189
H            5.79769331430020       17.14933386254148        7.73403345716295
H            4.03473054617756       16.90422884379841        7.76483854749899
87
 energy: -124.713915088900 gnorm: 0.009293069487 xtb: 6.7.1 (edcfbbe)
Fe           2.61621797210035       19.05813330963299        5.41832611286871
N            2.21294350119591       17.37675359277874        4.42422639553710
N            1.74883880310789       18.29051943550423        7.05989438501361
N            2.98188031167122       20.74767359778403        6.43070527566684
N            3.42183999454881       19.84749666785208        3.78177866602336
C            2.62378719667718       17.05731350561098        3.17190653063621
C            2.21018694331381       15.71430043968814        2.82831043110426
C            1.51202639110882       15.24793369840977        3.89847511707987
C            1.53093988912509       16.29983079823425        4.88880657133614
C            1.05128574573406       17.13073675563598        7.14182823407536
C            0.50665401731530       16.95575821032652        8.46877817228784
C            0.92306738497148       18.02700895953943        9.19810226469640
C            1.67386539378005       18.86405890856251        8.28689857049797
C            2.73845442810222       20.99488038844054        7.74576502616524
C            3.10461614516063       22.34421340373704        8.09387986879926
C            3.55643951568720       22.92321377366784        6.94217464036328
C            3.46920062410924       21.90489955367022        5.91607586127395
C            3.91306158465473       21.10452156002089        3.64429706275974
C            4.49727045859070       21.27838767877228        2.33496750855500
C            4.35040622466313       20.09029272535894        1.68692374564494
C            3.66162772615021       19.21063555157586        2.60515822266220
C            3.30546394351660       17.90567694953632        2.31953554544184
H            3.56050190034159       17.52428252843123        1.34271358078951
C            0.94072630576993       16.19180005586981        6.13310472806833
H            0.38615956800116       15.29188363144160        6.34871507187006
C            2.17290864687490       20.10153910506319        8.63669763640902
H            2.05402866315112       20.41089327669009        9.66492827793651
C            3.91697580823601       22.08221243645761        4.62139222853069
H            4.33592973040988       23.04351154671738        4.36731103868642
C            0.85871961327088       13.92258273594540        4.08548715097521
H            0.98656371563411       13.30148425869116        3.20308352282366