78
 energy: -115.963945640377 gnorm: 0.268711837496 xtb: 6.7.1 (edcfbbe)
Fe          56.94599999999999       21.46500000000000       37.49300000000000
N           58.38300000000000       21.79000000000000       36.08900000000000
N           57.74000000000000       19.62400000000000       37.89399999999999
N           55.79000000000000       21.23600000000000       39.13700000000000
N           56.29900000000000       23.36100000000000       37.28099999999999
C           58.60799999999999       22.97100000000000       35.39999999999999
C           59.77000000000000       22.80500000000000       34.55599999999999
C           60.23699999999999       21.54200000000000       34.72699999999999
C           59.40000000000000       20.92899999999999       35.73400000000000
C           58.76900000000000       19.03400000000000       37.19800000000000
C           58.99600000000000       17.69900000000000       37.69900000000000
C           57.99699999999999       17.43700000000000       38.57900000000000
C           57.20100000000000       18.64500000000000       38.69400000000000
C           55.66700000000000       20.12200000000000       39.93600000000000
C           54.67399999999999       20.37400000000000       40.95800000000000
C           54.29799999999999       21.66900000000000       40.84700000000000
C           54.99999999999999       22.21300000000000       39.70700000000000
C           55.24400000000000       23.94200000000000       37.95200000000000
C           54.98699999999999       25.25800000000000       37.40599999999999
C           55.84899999999999       25.42599999999999       36.37800000000000
C           56.71099999999999       24.26700000000000       36.32300000000000
C           57.76900000000000       24.08800000000000       35.44899999999999
H           57.96500000000000       24.88900000000000       34.73600000000000
C           59.56300000000000       19.63400000000000       36.21699999999999
H           60.37499999999999       19.04000000000000       35.79700000000000
C           56.32800000000000       18.91100000000000       39.74299999999999
H           56.14800000000000       18.11500000000000       40.46600000000000
C           54.72500000000000       23.46900000000000       39.14800000000000
H           54.05000000000000       24.12600000000000       39.69700000000000
C           61.57000000000000       20.99900000000000       34.20400000000000
H           62.36100000000000       21.16100000000000       34.96700000000000
H           61.85300000000000       21.53300000000000       33.27200000000000
H           61.47900000000000       19.91000000000000       34.00500000000000
C           60.40599999999999       23.82500000000000       33.63800000000000
H           59.95600000000000       24.82300000000000       33.82400000000000
H           60.22600000000000       23.54100000000000       32.57900000000000
H           61.49800000000000       23.87900000000000       33.83600000000000
C           60.21699999999999       16.85400000000000       37.33800000000000
H           61.12100000000000       17.49900000000000       37.31700000000000
H           60.07500000000000       16.39900000000000       36.33400000000000
H           60.35999999999999       16.05700000000000       38.09900000000000
C           57.74900000000000       16.29100000000000       39.31999999999999
H           57.33700000000000       16.39500000000000       40.33400000000000
C           57.99800000000000       14.93600000000000       38.84699999999999
H           58.41000000000000       14.76200000000000       37.84200000000000
H           57.77699999999999       14.07100000000000       39.48999999999999
C           54.28099999999999       19.38000000000000       42.04499999999999
H           54.92900000000000       19.52900000000000       42.93500000000000
H           54.41500000000000       18.34200000000000       41.67100000000000
H           53.22200000000000       19.54400000000000       42.33800000000000
C           53.50600000000000       22.45200000000000       41.67300000000000
H           53.66600000000000       23.53200000000000       41.58200000000000
C           52.49600000000000       22.11100000000000       42.64400000000000
H           52.23700000000000       21.05900000000000       42.83400000000000
H           51.97300000000000       22.89900000000000       43.20600000000000
C           53.86099999999999       26.19600000000000       37.82200000000000
H           54.20900000000000       26.84800000000000       38.65200000000000
H           52.98900000000000       25.60300000000000       38.17100000000000
H           53.56700000000000       26.83400000000000       36.96100000000000
C           55.94100000000000       26.65300000000000       35.48900000000000
H           55.64000000000000       27.55300000000000       36.06700000000000
H           55.25900000000000       26.53800000000000       34.61899999999999
H           56.98700000000000       26.78400000000000       35.13700000000000
O           58.29099999999999       22.09700000000000       38.76000000000000
H           57.83400000000000       22.21300000000000       39.59300000000000
H           59.15400000000000       22.24900000000000       38.60700000000000
C           52.30400000000000       20.19600000000000       34.36400000000000
H           51.83400000000000       19.19100000000000       34.43200000000000
H           52.43600000000000       20.46000000000000       33.29300000000000
H           51.64200000000000       20.93800000000000       34.85900000000000
N           54.68200000000000       19.34600000000000       34.67500000000000
H           54.63999999999999       18.66300000000000       33.94499999999999
C           53.65000000000000       20.17200000000000       35.05400000000000
C           55.74300000000000       19.62800000000000       35.46200000000000
H           56.70400000000000       19.11900000000000       35.39600000000000
N           55.42299999999999       20.59500000000000       36.29700000000000
C           54.12599999999999       20.98800000000000       36.04299999999999
H           53.66500000000000       21.80500000000000       36.58400000000000
78
 energy: -116.020888124469 gnorm: 0.100990660875 xtb: 6.7.1 (edcfbbe)
Fe          56.94265224592711       21.45586057806662       37.50273442932272
N           58.37651155065197       21.78638795132408       36.08080963962889
N           57.71758639469174       19.60879930586711       37.85468608223949
N           55.77939594819675       21.23893603189941       39.13958620055472
N           56.28993893425818       23.35155945597066       37.26721606424495
C           58.59138608281079       22.95195599857849       35.38503793074491
C           59.76928914866003       22.80908715872651       34.55559562601246
C           60.25241537718684       21.55036574746092       34.75003169568119
C           59.38396801672347       20.92725372257724       35.72473520862376
C           58.77763107332854       19.03961429741716       37.20283088684103
C           59.00345490808357       17.69810105222202       37.68380562778795
C           58.00615018166327       17.42794914375214       38.58094220314501
C           57.23696500714768       18.66066111716278       38.71695648403966
C           55.64672681142364       20.11964958092232       39.92077206670165
C           54.68758813688937       20.36270120401954       40.97123228610255
C           54.29349851914839       21.67101621071510       40.86157338815723
C           54.98033608735363       22.20210741635812       39.69316198509298
C           55.27301003115537       23.94947785957886       37.96424767391098
C           54.97821213188944       25.25066823616412       37.39768486188573
C           55.85582299264011       25.43144101935411       36.37657712758043
C           56.69573638629817       24.25105648307328       36.31469641959355
C           57.76215513272329       24.07098374087791       35.44701485938194
H           57.97098736861646       24.87907892661579       34.75182994539769
C           59.55546469328083       19.64231617262111       36.22029475406396
H           60.36636319314012       19.05310804970418       35.80563451396733
C           56.32338780141934       18.91836878938910       39.73023210300549
H           56.13773705485950       18.12513622922967       40.44657961751024
C           54.73011865760549       23.45758161873402       39.14206135763482
H           54.05075459524566       24.11031702451598       39.68020544461213
C           61.55214306306043       20.99948006156491       34.21165813334678
H           62.34644470902782       21.15437044215703       34.95342914105885
H           61.84067912266623       21.51798488546084       33.29095886425786
H           61.47927900044826       19.92653153197215       34.00585053572197
C           60.39368808675074       23.82841530581002       33.64680545447491
H           59.96164976253151       24.81814538645063       33.81619887619247
H           60.23238145456947       23.55032027644483       32.59732466770519
H           61.47382395288400       23.88336322131583       33.82981921701884
C           60.20504036559404       16.86066345138113       37.33506540337159
H           61.10408402332354       17.48787829279028       37.31449440711303
H           60.08062260592178       16.40022313535651       36.34780406163033
H           60.35007346614837       16.07198855451934       38.08206453459383
C           57.75689308493939       16.24041367184511       39.31645443347003
H           57.33430873500345       16.35547628751712       40.31391006255073
C           57.99713274473321       14.97243221517297       38.86711432052000
H           58.38869347946893       14.78633681811542       37.87267439381686
H           57.77989895154304       14.10785670434218       39.48432406075283
C           54.29174547864329       19.37832475287787       42.03586259957251
H           54.91950125378234       19.52213475864431       42.92409254592295
H           54.41234386833122       18.35201590758466       41.67893582998445
H           53.24912013864334       19.52558301066170       42.32659931177520
C           53.47291240962495       22.46377332899367       41.70312129924326
H           53.63944647373058       23.53396473911578       41.59932694805703
C           52.52500360083762       22.12038819050107       42.62245041499126
H           52.24510792715219       21.09302573942919       42.81996294274987
H           51.99906301801632       22.88553887140424       43.18122866069633
C           53.87195000470889       26.18281580330750       37.82161962943475
H           54.20340669895486       26.83551176627913       38.64020056567919
H           53.00194439440331       25.61403752498386       38.16537273104149
H           53.57040347358358       26.81748445391120       36.98089667096028
C           55.94653072298845       26.64589210804910       35.49508959375927
H           55.64782687153743       27.53964319889031       36.05405474329137
H           55.27727372653199       26.54081198190998       34.63120336905940
H           56.97021284486699       26.78697984238131       35.13587779467854
O           58.29169607799770       22.11910748103068       38.78256612095996
H           57.86359276810067       22.22939857588863       39.63234460400509
H           59.20675073392118       22.26929306677772       38.63009517833876
C           52.31187830818366       20.19126803996566       34.36579828273405
H           51.83790312256694       19.20432939258427       34.42828826784707
H           52.42734414038873       20.45576888661903       33.30826459275844
H           51.65872455501908       20.92357779067658       34.84815838605448
N           54.67043350187593       19.34812245307636       34.67783553705186
H           54.62887653329302       18.65795001436263       33.94789154441858
C           53.64711132288566       20.18446498158012       35.04350168586910
C           55.73553842861543       19.63785045596910       35.45996664710762
H           56.68475018694581       19.13052589182280       35.39840584031296
N           55.44440174286704       20.61826554840593       36.27980731859844
C           54.14251317747037       20.97865396082708       36.03994559028071
H           53.68061142189820       21.78307711637384       36.58351770170407
78
 energy: -116.034812611843 gnorm: 0.040462247613 xtb: 6.7.1 (edcfbbe)
Fe          56.94557630895596       21.44846917740536       37.51404393605151
N           58.35926536766213       21.77614863908090       36.06336141575385
N           57.71018082780486       19.60553641209632       37.84052375023472
N           55.75684266414095       21.23377093312022       39.12796217423531
N           56.28221181046327       23.33920098454058       37.25650977614409
C           58.56805495561496       22.93041559729829       35.36887341817567
C           59.76102049686299       22.81048763239546       34.55502521667925
C           60.25699515551720       21.55746717864038       34.76851160024450
C           59.36839357923200       20.92715643706279       35.71968360865615
C           58.77336872106036       19.04339646403136       37.20162559390135
C           59.00623988304989       17.70362284873497       37.68032462711388
C           58.01933387441963       17.43925864504739       38.59638054216380
C           57.25580755308901       18.67620447983892       38.72624684253334
C           55.62671573672846       20.11804927073037       39.90316747508078
C           54.69534148618700       20.35886655278140       40.97639521344761
C           54.29274817585686       21.67135021670670       40.86468847686656
C           54.96043604653656       22.18825400130902       39.67569768665879
C           55.28848914745004       23.94405271262871       37.96520776425302
C           54.97984930857410       25.24016958049695       37.39506550861331
C           55.86086409725262       25.42725476399955       36.37380305982543
C           56.67902960107589       24.22937551049317       36.30410490753366
C           57.74919787150692       24.05081117673547       35.44077689295420
H           57.97692955580104       24.86956228747001       34.76892642852961
C           59.54416735951285       19.64845383274397       36.22082989478630
H           60.36364638778756       19.06895451385128       35.81874232109300
C           56.30789279230991       18.92188035069507       39.70712457162692
H           56.11674431836954       18.12828904332300       40.41547177735180
C           54.72554025395559       23.44166045244516       39.12829593204505
H           54.04089019582270       24.09179941687158       39.65531609174901
C           61.53287784016331       20.99939229023175       34.22413039167481
H           62.33724127678843       21.14427883665493       34.94879697349056
H           61.81554563797651       21.50975210037932       33.30631228783679
H           61.45889715125417       19.93551595735200       34.01391198194710
C           60.37664635215214       23.83412373796858       33.65691165604734
H           59.95214796212718       24.81905450321214       33.81747624173553
H           60.22688547880358       23.55956297064371       32.61154153645445
H           61.45073544398789       23.89002303879932       33.83289325828495
C           60.18902447094148       16.86595323557115       37.32796470684200
H           61.08742562235670       17.48192076503091       37.30452809200914
H           60.07587131801707       16.39766363767097       36.35037206739124
H           60.33251083453877       16.08393849603331       38.07032763077726
C           57.76446705643193       16.21888681770358       39.32148046412622
H           57.33069014282402       16.34194855153509       40.30737539332546
C           57.98927477277488       15.00120997035111       38.87814535405294
H           58.37776912149877       14.80566048166432       37.89303987711695
H           57.78418888543139       14.13230765739890       39.48112953743814
C           54.30542048144611       19.37590391409222       42.02704157674522
H           54.91911091056573       19.51356632228523       42.91848322933723
H           54.42524518336820       18.35526789193291       41.67789163707496
H           53.26851213858513       19.50977211048794       42.31293069681167
C           53.45610235495081       22.47769996054257       41.71655342905748
H           53.62903232957207       23.54272015828144       41.59897226049576
C           52.54260944480755       22.12787702102483       42.60209210344538
H           52.25449446731219       21.11374087783592       42.80981220295877
H           52.01550232772323       22.87708467777836       43.16818835629874
C           53.88700449890733       26.16597078572367       37.82538457090086
H           54.21297201797037       26.81650309086223       38.63863466822985
H           53.01712954274964       25.60937698163423       38.16590808782687
H           53.58150110549731       26.79853913578793       36.99424534664108
C           55.95357517933856       26.63311524562917       35.49701690501596
H           55.65661361948175       27.52329774757634       36.04792150648140
H           55.29155005696045       26.53453771954920       34.63530832084832
H           56.96590197683008       26.78023411172481       35.13302649518332
O           58.31005533170029       22.16976631332446       38.81346413562313
H           57.93624083102655       22.25447586564031       39.69661595101855
H           59.25057507074709       22.28395872949851       38.67571011215207
C           52.32050353432089       20.19012485375576       34.37272281641467
H           51.84992880459568       19.21007556990961       34.43509471745772
H           52.42313244608172       20.45070687017583       33.31975553653972
H           51.67096668539177       20.91785999991881       34.84681065383651
N           54.66402285768085       19.35103452937326       34.68012757983730
H           54.61710656949535       18.65152186235975       33.95652959323594
C           53.65012427068093       20.19914417329916       35.03935189879584
C           55.73815311489178       19.65098776329050       35.44649957587153
H           56.67700875166062       19.14043692190540       35.38805683741656
N           55.47033815538396       20.63690982421058       36.26359712681427
C           54.16982295289462       20.98506423793718       36.03060044374347
H           53.70377008671178       21.77461257187650       36.58362767303625
78
 energy: -116.040674064096 gnorm: 0.031126509950 xtb: 6.7.1 (edcfbbe)
Fe          56.95644801803763       21.45244283617354       37.52706949578744
N           58.34355570133600       21.76777088256284       36.05461663069183
N           57.70647651971070       19.61025836796751       37.83735030187358
N           55.74088593094304       21.22856259825720       39.11319476756852
N           56.27274159109592       23.32591894388855       37.24424229676733
C           58.54658991909420       22.91573881863640       35.35676727072065
C           59.74788178043252       22.80932301608346       34.55482490008239
C           60.25104991555227       21.56146815672589       34.77845961047899
C           59.35738225990069       20.92680845600630       35.71938670688034
C           58.76888030232521       19.04778393534648       37.20196635072450
C           59.00162658245208       17.70916422042567       37.68159162560165
C           58.02436748158060       17.45551942890655       38.61094665070053
C           57.25910237561816       18.68830555693961       38.72880822027005
C           55.60969999478642       20.11627399058108       39.88709139688767
C           54.69282803477775       20.35952843877532       40.97153029295681
C           54.28960140755174       21.67178976161238       40.85626499533119
C           54.94380331562276       22.17893825557487       39.65803317648663
C           55.28788432358581       23.93276355703692       37.95586275709307
C           54.98230121789695       25.22905385039673       37.39033114242264
C           55.85987069480289       25.41642993551660       36.36643626089709
C           56.66531473968879       24.21178978237645       36.29144301473128
C           57.73385168551380       24.03591857546331       35.42926034872168
H           57.97582951621430       24.86194265567566       34.77371612753282
C           59.53980982901054       19.65245925837335       36.22370747040285
H           60.36819097710273       19.08094028170435       35.83158218762361
C           56.29081965014382       18.92292282164935       39.68962656533793
H           56.08438723903305       18.12231082741792       40.38391280379602
C           54.71252327542313       23.42968105018928       39.11045997870016
H           54.01785536979927       24.07625998665596       39.62604001773609
C           61.51637087436637       20.99531452319377       34.23152221055329
H           62.32963980752330       21.13090283677878       34.94732568792195
H           61.79295132525711       21.50280304751441       33.31162934235299
H           61.43013456643739       19.93313932689643       34.02160767980045
C           60.35648785127734       23.84093179841544       33.66447691656018
H           59.92852284087877       24.82358615786578       33.82514441047877
H           60.21239905485300       23.57065700429966       32.61795440722032
H           61.42900683667775       23.90218257595122       33.84155930308150
C           60.17429741658687       16.86659044940714       37.31999971763275
H           61.07612208163970       17.47628755997523       37.28968021953495
H           60.05695108511262       16.39549769834080       36.34499774301101
H           60.31553521560679       16.08596684476743       38.06237520529844
C           57.76819533895736       16.22897358097833       39.33878228131175
H           57.32772603962056       16.35207466793056       40.32069004825436
C           57.99685667790384       15.00409410574099       38.88535880237220
H           58.37326127343530       14.81171597205280       37.89622555586266
H           57.78001997990450       14.13113779562388       39.47738755834027
C           54.31806305110114       19.37035013092555       42.01939461460397
H           54.92568189378314       19.50899340626413       42.91427755267573
H           54.45105704065332       18.35194176700692       41.66926265535462
H           53.27864615796405       19.48588806895108       42.30206918735856
C           53.45710987705489       22.49206813365670       41.71193186976993
H           53.63061182711552       23.55593769146112       41.58765166521291
C           52.54609722528521       22.13250821730411       42.60526725007052
H           52.25434439885284       21.12000140865959       42.80722640698379
H           52.01239195480949       22.87680026659790       43.17114692051361
C           53.89839305735049       26.15297364305233       37.83241433227248
H           54.23006691480558       26.79724395092794       38.64677420253920
H           53.02881949152884       25.59782601157664       38.17368203882759
H           53.59015833196120       26.78848842625240       37.00597994200952
C           55.96058393135094       26.62009588598680       35.49244996774707
H           55.66512505257621       27.51025305258344       36.04248554798185
H           55.30255498639166       26.52447609294104       34.62849626414369
H           56.97250371810994       26.76664697562272       35.12889908291349
O           58.33337360746690       22.24706539923881       38.84431436278975
H           58.01809012334671       22.26172560776076       39.76544735341130
H           59.29489048997880       22.28635050348904       38.73075856779492
C           52.33106970891931       20.19380468829031       34.38545444973489
H           51.86698589477484       19.21193329060920       34.45418159686215
H           52.42217694634675       20.44849691903982       33.33008559595148
H           51.67995378593973       20.91994353209787       34.85731961947391
N           54.66944401463152       19.35689100565746       34.67996476769951
H           54.61097745797785       18.64772713495027       33.96606556504030
C           53.66347362139862       20.21332847431482       35.04198528320445
C           55.75359082140884       19.66098329798652       35.42961933444477
H           56.68715153184989       19.14461910089316       35.36838609440046
N           55.50222873835711       20.65389566647631       36.24471078868731
C           54.20092596298945       21.00044092915401       36.02352303596759
H           53.73542046884674       21.78337712761915       36.58453362916502
78
 energy: -116.044303422106 gnorm: 0.049871665690 xtb: 6.7.1 (edcfbbe)
Fe          56.96037620979190       21.45566967466355       37.52633496612539
N           58.33372144001668       21.76377163241976       36.05852025007518
N           57.71273336361920       19.62522778145542       37.84716835609573
N           55.73231442888494       21.22483470156864       39.09700571603887
N           56.26193698978726       23.30823637465262       37.23001661664101
C           58.52913374132329       22.90517953574888       35.35257515694123
C           59.73171187855643       22.80722985571991       34.55483432143556
C           60.24252993196416       21.56593938622504       34.78836644973920
C           59.35226082849731       20.92969038829051       35.72766399847603
C           58.76790848395953       19.05499977245360       37.20692180032229
C           58.99415835814133       17.71467389130162       37.68317176906533
C           58.02421357555180       17.47252801037318       38.62197930152492
C           57.26390184885910       18.70479732143925       38.73501234366650
C           55.59593263225972       20.11548565274462       39.87187729698631
C           54.68476331313263       20.35965492211190       40.96065071042211
C           54.28318287125872       21.67001826705060       40.84141377156996
C           54.93000941675856       22.17066303024337       39.64027739841634
C           55.28283945931635       23.91672175607043       37.94257752988857
C           54.98342467368690       25.21533096726511       37.38407870758702
C           55.85595981744579       25.40132909788106       36.35686905661760
C           56.65327152142950       24.19443985879379       36.28039455784435
C           57.71961394532777       24.02395608671128       35.41869600367474
H           57.96643785808686       24.85011196045484       34.76987114497686
C           59.54180445749200       19.65797309981514       36.23159666022084
H           60.37556031078975       19.09243967615110       35.84474755810664
C           56.27275709644284       18.92257608955440       39.67290579759123
H           56.04354198706044       18.10902926871345       40.34489513167065
C           54.69330708163898       23.41623373912894       39.08852623600590
H           53.98465194063009       24.05841629347536       39.58932334215070
C           61.49807251705395       20.98831025679635       34.23508258892768
H           62.32132540590397       21.11139929933502       34.94246541026120
H           61.77008927604948       21.49294512331114       33.31145236421580
H           61.39199068006614       19.92605884179968       34.02761313206836
C           60.32965454699799       23.84830526991789       33.67025484122570
H           59.89307167668537       24.82721551392944       33.83887652263549
H           60.18647789797422       23.58576700947317       32.62092493434733
H           61.40212743835288       23.91806752241160       33.84899999079968
C           60.15669391744422       16.86397083299949       37.30962313809230
H           61.06442563549597       17.46621692787045       37.26898138394411
H           60.02473222831837       16.39445165812270       36.33480072927492
H           60.29622858293024       16.08164405559581       38.05143806603864
C           57.76251259766852       16.24525029536582       39.35163296972750
H           57.33062155816453       16.36330994338708       40.33630989094492
C           57.98671576873019       15.01662118844285       38.88973213872442
H           58.37656968144603       14.83225897856877       37.90536476946614
H           57.78055149101775       14.14419786432132       39.48603267566594
C           54.32751644376151       19.36499161778216       42.01027092181504
H           54.93051308353380       19.51254289001313       42.90771033881265
H           54.48537140705420       18.34844801982282       41.65837129893087
H           53.28282441446510       19.45906785209235       42.29014671129912
C           53.45766232626494       22.50397043153641       41.69727918077260
H           53.63409213897510       23.56643019962952       41.57579063528046
C           52.54700738743399       22.13563399799770       42.59562822670168
H           52.27517682498637       21.11836230565842       42.80084515623786
H           52.01873941526935       22.87617246320904       43.17395795637177
C           53.90979219508828       26.14042936978747       37.84333510637968
H           54.25350381517680       26.77333208666578       38.66228185528166
H           53.04030604139862       25.58468616671512       38.18688110971087
H           53.59816955783946       26.78513023140938       37.02441772511705
C           55.96724684040387       26.60332008456131       35.48374447515332
H           55.67193630080727       27.49497941900198       36.03291191940831
H           55.31579048557390       26.50960443554185       34.61359090731517
H           56.98353266455916       26.74617347044906       35.12704847875712
O           58.35162051869138       22.35210843646361       38.88084241240717
H           58.10802328827993       22.26051114004420       39.83509176472595
H           59.33825880689025       22.26216089560921       38.81798037970465
C           52.34363547498544       20.20088472418131       34.40414416869172