78
 energy: -116.058044683424 gnorm: 0.000028710126 xtb: 6.7.1 (edcfbbe)
Fe          57.09748179989622       21.54851186779626       37.60127293580378
N           58.40747988454569       21.81770225522545       36.12488113493224
N           57.85095729886551       19.70837164534372       37.93436123591013
N           55.81824390523917       21.29053904476735       39.13694903567321
N           56.38393234833636       23.38578668437373       37.31786955751527
C           58.52903736387625       22.91366440754840       35.33455813883116
C           59.58814747372469       22.73291771751432       34.36463994618186
C           60.10571136236008       21.49697720481801       34.59090647259152
C           59.35197731260070       20.93890503812126       35.69369161177453
C           58.85856402170036       19.10143735551486       37.24615302288835
C           59.07829686281527       17.76494460442163       37.73095233958388
C           58.16292367164567       17.56194581141537       38.73141718048824
C           57.41233837378007       18.79649620122017       38.84327363719186
C           55.65430920649370       20.16260031034373       39.88501207524931
C           54.60608188582524       20.34027377815150       40.85544909002752
C           54.12496172508914       21.61115299039098       40.67523118209864
C           54.90201085308359       22.18302784848111       39.59444043632140
C           55.39804016776342       24.00075537219138       38.02231032286947
C           55.14784356280236       25.32877378658523       37.50262711510075
C           56.00606948948676       25.49704547443866       36.46276300530989
C           56.77072328338947       24.27165062911860       36.36507860582631
C           57.76498141012613       24.06081746360647       35.43041084745109
H           57.97070367490711       24.85725511032081       34.73172947303350
C           59.57126016540224       19.67579094761969       36.20608143576501
H           60.34905097583967       19.08279516183601       35.74942173392141
C           56.38535659242325       18.99571586454939       39.74553304975242
H           56.12361578516467       18.17019474571197       40.38918456535574
C           54.70098129490993       23.45218323396069       39.08195254398474
H           53.92883536626583       24.05610291800073       39.53354761269891
C           61.22028475965636       20.79542360200527       33.89266984457522
H           62.02142291411734       20.55805213489436       34.59295092276128
H           61.63184956342725       21.41664115567768       33.10110554360400
H           60.87159704565328       19.86202542435835       33.44933764826863
C           59.98278428190326       23.75165087697181       33.35130858796069
H           60.31282095741454       24.66811156276191       33.84057983152027
H           59.13909886413872       23.99788593959968       32.70618678086224
H           60.79496469447587       23.38467164569630       32.72847154014398
C           60.15139721303226       16.84684415773775       37.25860698842669
H           61.06171896667927       17.40108701965399       37.03495109650868
H           59.84573927006117       16.32063254336725       36.35252025175996
H           60.37351240064067       16.10738377383497       38.02539629570509
C           57.96247539081648       16.39617515420991       39.56276850953576
H           57.63684394727817       16.59444027651908       40.57748078733085
C           58.13567070440990       15.13517867553995       39.17972431829204
H           58.41117714124282       14.87404861831822       38.17293109776740
H           57.98052577037461       14.31400426724091       39.85970315438626
C           54.21116490263012       19.33981794636512       41.88496862581188
H           53.71433962546646       19.83602870260681       42.71627452366972
H           55.08441160723299       18.81234666667136       42.26624107453577
H           53.52695754671394       18.59984277298006       41.46648797395565
C           53.08403267293483       22.30748040749599       41.39828567101333
H           53.22803830955137       23.37590591752272       41.51177798276033
C           51.99259717227420       21.74771406715974       41.91004489729786
H           51.77340867321092       20.70151634415405       41.78672553220898
H           51.26323563501867       22.32755042236713       42.45105843179386
C           54.13219133702712       26.27004050700202       38.05367706402956
H           54.34559031911497       26.49476663912992       39.09894125692163
H           53.13400682922401       25.83453121036649       37.99856881429195
H           54.12902940981513       27.20411130379719       37.49739679892623
C           56.18581851383982       26.67359382857496       35.56622793117470
H           55.49183554935760       27.46891679604602       35.82698272800440
H           56.01262766823443       26.39349965815910       34.52692752762385
H           57.20060848478585       27.06355455799727       35.64682944591882
O           58.59806006704151       22.29906525537850       39.16743807571007
H           58.01833674150117       22.38377157290400       39.93220761481783
H           59.11775996817772       21.49762584634299       39.29270996125967
C           52.44641929371439       20.23609865282704       34.82400537880231
H           52.06475916517357       19.22027701044969       34.92563102265702
H           52.37401501720336       20.52408681834418       33.77523836820178
H           51.82307624975876       20.90251380691839       35.41178765157899
N           54.86177404938522       19.57909160030958       34.74773385427098
H           54.76377450438661       18.92024315080362       33.99281420200633
C           53.85056502770797       20.32161822435467       35.29890291855802
C           56.00274580077121       19.89025276114719       35.40296851314660
H           56.95792530710322       19.45957106485846       35.18354431674624
N           55.77552326405107       20.78433744818266       36.33444395487071
C           54.44131398135278       21.06295839626526       36.28165812427468
H           53.99825630252601       21.77167834073836       36.95010721960782
