78
 energy: -115.931079031962 gnorm: 0.341487631963 xtb: 6.7.1 (edcfbbe)
Fe          -5.84000000000000       17.13500000000000        1.64100000000000
N           -6.51500000000000       18.03400000000000       -0.09000000000000
N           -6.75100000000000       15.36300000000000        1.01600000000000
N           -4.86100000000000       16.13100000000000        3.12700000000000
N           -4.79100000000000       18.84300000000000        2.17200000000000
C           -6.26600000000000       19.30200000000000       -0.45200000000000
C           -6.89700000000000       19.56900000000000       -1.65000000000000
C           -7.65500000000000       18.43900000000000       -1.98400000000000
C           -7.40800000000000       17.53600000000000       -0.97100000000000
C           -7.59100000000000       15.21600000000000       -0.00900000000000
C           -8.23500000000000       13.97300000000000        0.03800000000000
C           -7.74200000000000       13.35500000000000        1.18900000000000
C           -6.84800000000000       14.26500000000000        1.76700000000000
C           -5.11100000000000       14.87800000000000        3.55300000000000
C           -4.33600000000000       14.55000000000000        4.66800000000000
C           -3.47600000000000       15.65100000000000        4.83500000000000
C           -3.99300000000000       16.65400000000000        4.01900000000000
C           -4.13900000000000       19.05500000000000        3.32100000000000
C           -3.66500000000000       20.36499999999999        3.39400000000000
C           -4.29600000000000       21.03400000000000        2.34200000000000
C           -4.85000000000000       20.03200000000000        1.54500000000000
C           -5.41000000000000       20.18000000000000        0.27300000000000
H           -5.15300000000000       21.10500000000000       -0.24100000000000
C           -7.84200000000000       16.19500000000000       -0.99700000000000
H           -8.42700000000000       15.88300000000000       -1.86200000000000
C           -6.09100000000000       14.06300000000000        2.92600000000000
H           -6.28600000000000       13.12000000000000        3.43400000000000
C           -3.54100000000000       17.98400000000000        4.00200000000000
H           -2.63900000000000       18.20500000000000        4.57300000000000
C           -8.43700000000000       18.22300000000000       -3.27400000000000
H           -7.84900000000000       17.57700000000000       -3.96000000000000
H           -8.62200000000000       19.20000000000000       -3.76900000000000
H           -9.40300000000000       17.72300000000000       -3.04800000000000
C           -6.89800000000000       20.91400000000000       -2.40700000000000
H           -6.15300000000000       20.87700000000000       -3.23000000000000
H           -6.62600000000000       21.73600000000000       -1.71100000000000
H           -7.90400000000000       21.10000000000000       -2.84000000000000
C           -9.09500000000000       13.43000000000000       -1.09000000000000
H           -8.72400000000000       13.82200000000000       -2.06100000000000
H          -10.14800000000000       13.75500000000000       -0.94900000000000
H           -9.03900000000000       12.32100000000000       -1.10400000000000
C           -7.82900000000000       11.98900000000000        1.50400000000000
H           -6.95800000000000       11.51300000000000        1.97700000000000
C           -8.96800000000000       11.12900000000000        1.26500000000000
H           -9.87900000000000       11.52700000000000        0.79500000000000
H           -8.93500000000000       10.06700000000000        1.55000000000000
C           -3.98900000000000       13.13600000000000        5.20100000000000
H           -2.91100000000000       12.93000000000000        5.03000000000000
H           -4.59100000000000       12.37400000000000        4.66200000000000
H           -4.19700000000000       13.08400000000000        6.29100000000000
C           -2.43500000000000       15.87200000000000        5.74500000000000
H           -1.65800000000000       16.58300000000000        5.43600000000000
C           -2.23000000000000       15.29100000000000        7.05400000000000
H           -2.94900000000000       14.56500000000000        7.46200000000000
H           -1.35300000000000       15.56800000000000        7.65700000000000
C           -3.00900000000000       21.03100000000000        4.60100000000000
H           -1.93000000000000       21.19400000000000        4.39400000000000
H           -3.11000000000000       20.37500000000000        5.49200000000000
H           -3.49100000000000       22.01300000000000        4.79600000000000
C           -4.12500000000000       22.52900000000000        2.02600000000000
H           -3.10000000000000       22.71100000000000        1.63700000000000
H           -4.27100000000000       23.12700000000000        2.95100000000000
H           -4.86300000000000       22.83600000000000        1.25400000000000
O           -4.20800000000000       16.70200000000000        0.39000000000000
H           -4.42000000000000       17.08300000000000       -0.46200000000000
H           -3.46700000000000       16.25700000000000        0.59700000000000
C           -9.05500000000000       19.35500000000000        5.71300000000000
H           -9.24400000000000       18.66100000000000        6.56000000000000
H          -10.00500000000000       19.86600000000000        5.44700000000000
H           -8.29500000000000       20.10300000000000        6.02400000000000
N           -9.25300000000000       17.57200000000000        3.91900000000000
H          -10.16500000000000       17.27600000000000        4.20200000000000
C           -8.54700000000000       18.57600000000000        4.52800000000000
C           -8.55500000000000       17.06400000000000        2.91700000000000
H           -8.89400000000000       16.25700000000000        2.26900000000000
N           -7.40100000000000       17.70900000000000        2.86000000000000
C           -7.37300000000000       18.65100000000000        3.85400000000000
H           -6.51300000000000       19.29400000000000        3.99200000000000
78
 energy: -116.012498794932 gnorm: 0.141776886892 xtb: 6.7.1 (edcfbbe)
Fe          -5.82876361640689       17.13659960643307        1.64057282268503
N           -6.53743833447141       18.03855768336288       -0.05048723636981
N           -6.76138955995896       15.39796856165814        1.03868372209238
N           -4.90477147062854       16.15072623744301        3.14575236691876
N           -4.82005850989733       18.83639028639278        2.16695081464471
C           -6.25329370027045       19.30512299590742       -0.44550301981274
C           -6.91164961963927       19.58721865387714       -1.66642215981700
C           -7.64313396865468       18.45888113383345       -2.00337696495058
C           -7.38526194337918       17.51851918839998       -0.97913154451838
C           -7.59388851123337       15.23664764572441       -0.01189298668077
C           -8.22524513232844       13.96232651747565        0.02377968874759
C           -7.74051018057202       13.33395202095724        1.16694846868138
C           -6.83153381697157       14.26642682439124        1.77320789621831
C           -5.13052080000201       14.87259761110728        3.54595140359570
C           -4.29979897450316       14.52700666719789        4.64902022515865
C           -3.48381100652133       15.64165384619150        4.86989951213572
C           -3.96735773651775       16.65535562200546        3.99032386555271
C           -4.09631669711603       19.03319928391960        3.29283800047199
C           -3.69260490484857       20.39303581243001        3.41077193633259
C           -4.26229461645715       21.04524200383505        2.32980920727315
C           -4.87419582601596       20.03242084021774        1.53467717420466
C           -5.42192952968344       20.18871078527281        0.26462542567135
H           -5.17015186713533       21.11361598912793       -0.24063684390209
C           -7.83785355939612       16.19902669965574       -0.99555748559357
H           -8.43234251783276       15.89354157740011       -1.84873245836615
C           -6.09127171211023       14.05027306104889        2.93269253410056
H           -6.28144397400575       13.10914661242926        3.43420224077268
C           -3.52780168504524       17.97626748167534        4.00054934408977
H           -2.65695822581379       18.20835425833684        4.60137886106956
C           -8.43268142683357       18.22909929590950       -3.26453927335384
H           -7.85966409901548       17.58914012600656       -3.94992926289683
H           -8.62394251941224       19.18413414179525       -3.76399815054009
H           -9.38826350939723       17.73332263975030       -3.05134779885005
C           -6.89713892942497       20.90576732126815       -2.40678439449289
H           -6.16274144894506       20.87931339781900       -3.22162929436279
H           -6.63390350687362       21.72221359873703       -1.72525716302647
H           -7.88683389866193       21.10125979814330       -2.83413008412806
C           -9.09015215657074       13.42827448013058       -1.08107662686278
H           -8.73312398574081       13.81218991657215       -2.04491231425146
H          -10.13419713124972       13.74426509234459       -0.95096067641498
H           -9.04308240639183       12.33397819377626       -1.10250329935158
C           -7.86441220710582       11.95616818548701        1.50801944914362
H           -6.99014619790172       11.50457075825313        1.98049506924545
C           -8.94069472197095       11.14778685857562        1.26832872650341
H           -9.85133311774463       11.52780313394950        0.81532280164593
H           -8.92293875328051       10.09684398258168        1.54166013191972
C           -3.99728695142618       13.14413654532281        5.19508621799175
H           -2.93150461092475       12.93491453076816        5.03675950863872
H           -4.58574244729322       12.38361566651311        4.67231847229366
H           -4.20050268943779       13.08280730458210        6.27071970028622
C           -2.42110354681655       15.85484567201013        5.79074100956250
H           -1.66447204823200       16.57142468040765        5.46330012354762
C           -2.23085776512922       15.29450443542374        7.02114391381552
H           -2.93746888193543       14.58725943196125        7.44341896223652
H           -1.37402729618861       15.56587084462849        7.63059938786953
C           -3.01355498248123       21.02868183648830        4.59541767157630
H           -1.94617790052569       21.19382270428972        4.39616380804206
H           -3.10768846269876       20.38717882365162        5.47934577194237
H           -3.47966796824453       21.99936269559557        4.79955162597865
C           -4.12267417646756       22.51713548311059        2.02224472264471
H           -3.11287806166521       22.71377240049556        1.64145510347782
H           -4.26924344154640       23.11398457182283        2.93192963649440
H           -4.85232388696713       22.83144910683240        1.26753296069282
O           -4.21713371178566       16.70132814699037        0.38129917546894
H           -4.40153865807041       17.07881881300777       -0.47752388829270
H           -3.42767168733953       16.23957261954575        0.58758621214469
C           -9.05613054722018       19.34883702856857        5.70929478347766
H           -9.24467314327998       18.67258432165556        6.55270061348746
H           -9.99221310108016       19.86198602106126        5.45553061844102
H           -8.30983615481665       20.08919345671577        6.01523688329840
N           -9.26563512140111       17.57802280143491        3.93079712407064
H          -10.18119375655231       17.27756300243765        4.21207119370665
C           -8.55022481577071       18.57669320849563        4.53416141693154
C           -8.54593790272873       17.07220532741061        2.92036606861519
H           -8.88159472700558       16.27376052277648        2.27791089523270
N           -7.38917331829961       17.70027984219198        2.85043923811324
C           -7.37539719823958       18.64041582466913        3.84473681108031
H           -6.52462902449203       19.28205590032704        3.98601160680068
78
 energy: -116.034486959839 gnorm: 0.046996014307 xtb: 6.7.1 (edcfbbe)
Fe          -5.82549688659322       17.14300510232798        1.64220207966961
N           -6.55282757340618       18.04800650145889       -0.01537172131691
N           -6.77640688558947       15.43411027111320        1.07160985840990
N           -4.93872922264159       16.16834763257478        3.15676105674709
N           -4.83766953196056       18.82643051267569        2.15556434168882
C           -6.25180170410130       19.31210518919872       -0.42963424012488
C           -6.91887926234669       19.59809244308772       -1.67407228354501
C           -7.62073817126468       18.47383373707456       -2.01367543882475
C           -7.36267033388230       17.51045696910118       -0.97719887226415
C           -7.59466707506810       15.26126652866690       -0.00224349302873
C           -8.19942744103781       13.95553563540922        0.01422000210168
C           -7.72046212388940       13.32392804770902        1.14242318915462
C           -6.81960579744275       14.27456169217668        1.78369741696263
C           -5.15104033001333       14.87552602159751        3.53925974706481
C           -4.26725126284096       14.51671185376042        4.62355313317517
C           -3.49141651441940       15.63268230082390        4.87613866738002
C           -3.95835312122133       16.65639902917760        3.96695928224243
C           -4.05880158084378       19.01075528843712        3.25798602940545
C           -3.71180564796162       20.40501601220952        3.40844333408158
C           -4.23728811147174       21.04412042065616        2.31819225848020
C           -4.89596086084470       20.02845385712575        1.52532680004506
C           -5.44564699505639       20.20565103254877        0.26424953529409
H           -5.20946432743566       21.13715373514274       -0.23127000379347
C           -7.83556798641575       16.21071405437591       -0.98391095224622
H           -8.44112812012700       15.91134417607191       -1.82784854619312
C           -6.09256751459608       14.03882857027064        2.94144549973703
H           -6.26430006626265       13.08758165490440        3.42658563719044
C           -3.52767222964981       17.97157691448202        4.00475452638392
H           -2.69480483105976       18.21549418444443        4.65244254875306
C           -8.42216668724125       18.23488006966775       -3.25180106439114
H           -7.86547947590818       17.59574668533251       -3.94073611738054
H           -8.62464501351788       19.17480753965324       -3.75837079761779
H           -9.37104093459047       17.74432994297005       -3.03800113051842
C           -6.89460054957702       20.89748561566640       -2.40481477970631
H           -6.16552132196103       20.87890841701549       -3.21534487373945
H           -6.63902424912313       21.71396627959036       -1.73464671933324
H           -7.87289461294083       21.10236372594638       -2.83487194718894
C           -9.07608138111490       13.42719967495595       -1.07076042372086
H           -8.73929227800493       13.80357612001600       -2.03599473410522
H          -10.11513425062887       13.73602046052344       -0.93963156159420
H           -9.04115320620467       12.34086982485864       -1.09621867213573
C           -7.88077189058281       11.93680603212922        1.51172493908037
H           -7.00980928167585       11.50362426239015        1.99509643759254
C           -8.92306029743194       11.16647406512531        1.27886669541075
H           -9.83336099634572       11.53199881234996        0.83348396934076
H           -8.91775967754709       10.11936290530587        1.53738336930213
C           -4.00753223123624       13.15521953647024        5.18252533332372
H           -2.94843066571914       12.92759315766816        5.04729634193361
H           -4.59083518213466       12.39367186173686        4.67407175793039
H           -4.21812571383056       13.09528610055800        6.24889065673244
C           -2.41179730194039       15.84203769881303        5.81083696793286
H           -1.67227902788013       16.56525603197651        5.47372537683897
C           -2.24064569331240       15.29972010293021        6.99743414002136
H           -2.93275683942383       14.59655795918736        7.42754395665464
H           -1.38953217888676       15.55277320679746        7.61000010051580
C           -3.02096595286191       21.02144874507495        4.58039918834796
H           -1.96027233032097       21.18676044388417        4.38514505498902
H           -3.10887913214660       20.39028031397103        5.46202660524892
H           -3.46922193368700       21.98945999856925        4.80148072869307
C           -4.12081474783846       22.50058930706993        2.01570090503002
H           -3.12149314327823       22.72073773048459        1.63808592082148
H           -4.26859004393578       23.09456982603128        2.91817493008481
H           -4.84847197218598       22.81933318614551        1.27431736690029
O           -4.21753890631066       16.67655386170788        0.36853968961795
H           -4.34994483630659       17.06423309446312       -0.49892581511843
H           -3.39402215990589       16.23453623024553        0.56627140112376
C           -9.05541363810408       19.34413613738117        5.70492077367334
H           -9.24576017784494       18.67899764668955        6.54660060214881
H           -9.98357219050452       19.85873465669743        5.45878123648648
H           -8.31697789582978       20.07996850468376        6.00636597312501
N           -9.27841959434380       17.58174953048047        3.93888203395684
H          -10.19642830385940       17.27849193861373        4.21793474731401
C           -8.55170570382228       18.57551463300769        4.53736020898969
C           -8.54201647516032       17.07763900419857        2.92529062140160
H           -8.87415414888179       16.28623585429882        2.28578048702523
N           -7.38485134779648       17.69016104572943        2.84596540546717
C           -7.37812523224209       18.62795611561041        3.83888708724794
H           -6.53517768462782       19.27068673672373        3.98373823361622
78
 energy: -116.041394718659 gnorm: 0.026311711183 xtb: 6.7.1 (edcfbbe)
Fe          -5.82111067058227       17.14776772461711        1.63668956463910
N           -6.55916466339441       18.06370088222150        0.00188613594553
N           -6.78627594079680       15.45489005701593        1.09728222027017
N           -4.95397924639336       16.17748354846569        3.15814235236914
N           -4.83508411095582       18.82186400631082        2.13808416227465
C           -6.26448466178269       19.32733322176293       -0.41538640973909
C           -6.92313433389024       19.60854522515609       -1.67268822799034
C           -7.60603027012559       18.48080927325213       -2.01383021298267
C           -7.35432347715003       17.51836675712294       -0.96605214819667
C           -7.59573248711728       15.27892812327217        0.01542064426841
C           -8.17597004371103       13.95633237030511        0.01516218867044
C           -7.69623465335514       13.32414151825836        1.13502896940013
C           -6.81231567503618       14.28308335346253        1.79312551970508
C           -5.15422394898206       14.87895445462715        3.53036347076226
C           -4.25031911078375       14.51548481156685        4.60165586298751
C           -3.49358674160432       15.63235663528190        4.86410887167303
C           -3.96837292549066       16.66048315925840        3.96024480204399
C           -4.05157559076025       19.00340771460869        3.23689142506354
C           -3.71610626756277       20.40258664038960        3.39601501617228
C           -4.22609493544820       21.04047560987178        2.30584417341219
C           -4.90276928380107       20.02893118293024        1.51636954830145
C           -5.47348543542473       20.23091590591262        0.27118823676077
H           -5.27487730520890       21.18120562992411       -0.20770713786143
C           -7.83916226606566       16.22602042236520       -0.96486427837903
H           -8.45636419831011       15.93159213808599       -1.80125302889708
C           -6.08435629669490       14.03047040406027        2.94261766873067
H           -6.23038071106062       13.06364638493002        3.40847767556775
C           -3.54654005238216       17.97616721319075        4.01492945922104
H           -2.75597873668082       18.23089596209481        4.71838796189256
C           -8.41437944601580       18.23625096332997       -3.24223020990065
H           -7.86707436204148       17.59372163650211       -3.93377137246014
H           -8.62476042081236       19.17213580964346       -3.75258916781856
H           -9.35996462299090       17.74965696515189       -3.01209967378651
C           -6.89080045033933       20.90149523828279       -2.40860173928108
H           -6.15695475039593       20.87904993129483       -3.21411355202634
H           -6.64100161060287       21.72126021857928       -1.74208240787767
H           -7.86445766588187       21.10770009856920       -2.84761597671478
C           -9.05807871160888       13.42529529795114       -1.06140192058409
H           -8.73796817011824       13.79827540964144       -2.03279184665889
H          -10.09538517620211       13.73068337674864       -0.91573087052121
H           -9.02503732377425       12.33954111371376       -1.08398326775903
C           -7.86640805051596       11.93696915018578        1.51843041991274
H           -7.00711001761137       11.50548869225836        2.02026602991589
C           -8.92329301256488       11.16992259330999        1.28138727059756
H           -9.83283883080391       11.54181036021460        0.84403677788206
H           -8.93157598201764       10.12693202307835        1.55152398114051
C           -4.02199881302180       13.15696281715372        5.17232092408540
H           -2.96381245762627       12.90743165395149        5.06530968359581
H           -4.60785668865829       12.39944124431984        4.66264961817423
H           -4.25895163380302       13.11340768769136        6.23363634836120
C           -2.40820037772730       15.84111066972656        5.80101151953473
H           -1.67180892306155       16.56590272529662        5.46877326066865
C           -2.24020693525483       15.27728067187999        6.99002234543848
H           -2.94169502331289       14.58532944861528        7.41916497283313
H           -1.39669157589093       15.52968163517386        7.61151702505062
C           -3.02010114629189       21.01202229348585        4.56478946166483
H           -1.96078689802775       21.17201312531562        4.36359459075074
H           -3.10864830008017       20.38094982575251        5.44508858272430
H           -3.45893094801319       21.98233784528336        4.79484542661660
C           -4.12108484313176       22.49421899744445        2.00427227180033
H           -3.12618092322977       22.72998275599474        1.62388705174999
H           -4.27103481193141       23.08052104157147        2.90991492281354
H           -4.85539591564790       22.80821014996669        1.26926374849607
O           -4.21290711060600       16.60850575667967        0.33710052900838
H           -4.27102825836231       17.05690020268392       -0.51995955181367
H           -3.34778566284726       16.23696954311053        0.55135096590569
C           -9.05388667598005       19.34132011285458        5.70114231880258
H           -9.24674750654768       18.68064380107034        6.54493390677063
H           -9.98015375128895       19.85846921916389        5.45654785403851
H           -8.31484991417324       20.07605632790101        5.99926612583388
N           -9.28541994493360       17.58119200501086        3.93901644338838
H          -10.20552666892980       17.28022754961603        4.21699025672733
C           -8.55158488666599       18.57108764524373        4.53617410531069
C           -8.54431811815634       17.07630791993806        2.92595787586118
H           -8.87647510380422       16.28789325183700        2.28587832068017
N           -7.38476989614868       17.68096893392642        2.84414124014421
C           -7.37808500598987       18.61703963028744        3.83742188808798
H           -6.53695263600590       19.25958430327567        3.98520900675043
78
 energy: -116.044396039616 gnorm: 0.060581429103 xtb: 6.7.1 (edcfbbe)
Fe          -5.82368789767796       17.14615203674774        1.63295483791451
N           -6.55599204220519       18.07672934815130        0.01347717965363
N           -6.79094784260170       15.46862747400116        1.11878313286752
N           -4.95954116308221       16.18070658897513        3.15392724369068
N           -4.82751510632421       18.81383630462891        2.11843271399683
C           -6.27815304275816       19.34269104022822       -0.40030713179369
C           -6.92795472914527       19.61917981013939       -1.66751295828309
C           -7.59152768637945       18.48483425663522       -2.01054635690291
C           -7.34518748490410       17.52785338627537       -0.95101644022332
C           -7.59598215141394       15.29412093091564        0.03477280024387
C           -8.15555812306631       13.96104770705993        0.01986369797228
C           -7.67069448035408       13.32606225394998        1.13090350832856
C           -6.80080853708648       14.28896937264723        1.79828335768494
C           -5.14722186315008       14.87858934221041        3.51595673913426
C           -4.23574932004343       14.51391227418461        4.57946921392101
C           -3.49685761501472       15.63282507082355        4.85420363696232
C           -3.98467519088928       16.66422162278097        3.95980552923370
C           -4.05431531205583       18.99710846378664        3.22091045644088
C           -3.71768544005035       20.39446107184178        3.38138700386386
C           -4.21840144580949       21.03407036584355        2.29301144812341
C           -4.90384243588409       20.02685606466386        1.50698153486772
C           -5.50666459747759       20.26011210133074        0.28424040963129
H           -5.35924490217897       21.23417510003447       -0.16989370459676
C           -7.84563990060906       16.24228933007321       -0.94146918557244
H           -8.47622685882754       15.95366013955156       -1.76940332598391
C           -6.06537884007466       14.01759108243989        2.93568455932701
H           -6.18751090646772       13.03937640035381        3.38362355409735
C           -3.58156315767188       17.98446071108727        4.03588503197017
H           -2.83450035298932       18.24666449895511        4.78072541885156
C           -8.40747728206126       18.23294801539013       -3.23091517385719
H           -7.87035230701542       17.58503462125508       -3.92525634267151
H           -8.62383223424056       19.16699667790106       -3.74451536830796
H           -9.35097081053710       17.75102985142974       -2.98049924551385
C           -6.88618719093863       20.90818750738462       -2.41261488596417
H           -6.14327144095937       20.87697136180046       -3.21083300564150
H           -6.64232418714158       21.73472623445253       -1.75127409270537
H           -7.85497165999804       21.11356238719335       -2.86592392972369
C           -9.03911697305805       13.42513056935391       -1.05165802881923
H           -8.73339226572621       13.79641873606458       -2.02860453140396
H          -10.07593126185152       13.72634252650834       -0.88905326691049
H           -9.00019966564462       12.33857146426584       -1.06855338572082
C           -7.85053505201423       11.94370831033007        1.53070738484533
H           -7.00303318307339       11.50308456840897        2.04001260529248
C           -8.92283167761458       11.18609710985919        1.30365543721581
H           -9.81793110747490       11.56237951303059        0.84359275734153
H           -8.93892805915393       10.14505859458683        1.58068555858909
C           -4.04230369241474       13.15668502158649        5.16414180777908
H           -2.98432588338458       12.88459690293677        5.09857310944724
H           -4.62594754369743       12.40540673514704        4.64143239034456
H           -4.32206284781045       13.13286918053770        6.21832141882000
C           -2.41027334356788       15.84278294307691        5.79231071898204
H           -1.66895747490371       16.56243816622557        5.46867128488814
C           -2.25163511921540       15.26574666817144        6.98114134975048
H           -2.95083907051220       14.56036082079878        7.38894386747166
H           -1.39952408989092       15.49660772112206        7.59899641679193
C           -3.01183770229653       20.99874664009712        4.54606937145165
H           -1.95252775143640       21.14950076864901        4.33590445028025
H           -3.10291187875515       20.36786537723856        5.42678647118167
H           -3.44182548812303       21.97305226716249        4.78049656843426
C           -4.12476918681801       22.48890334828491        1.99158896086387
H           -3.13478877271300       22.73810535874310        1.60458652482057
H           -4.27501746680429       23.06985724000053        2.90108968121993
H           -4.86749724201325       22.79628431197985        1.26165301393622
O           -4.22557672559770       16.48804959218494        0.28396434881043
H           -4.17036076070520       17.06515315523173       -0.52933080302387
H           -3.27977997226929       16.27921107615077        0.53550385711374
C           -9.05199826665194       19.34040938049926        5.69876309119604