78
 energy: -115.979034130986 gnorm: 0.282943021755 xtb: 6.7.1 (edcfbbe)
Fe          35.41400000000000        4.38200000000000       10.03500000000000
N           37.26599999999999        4.11400000000000        9.44100000000000
N           35.10700000000000        5.64400000000000        8.57600000000000
N           33.64500000000000        4.83500000000000       10.80100000000000
N           35.76600000000000        3.23300000000000       11.60500000000000
C           38.24100000000000        3.30000000000000        9.99900000000000
C           39.44400000000000        3.29500000000000        9.19600000000000
C           39.21800000000000        4.13100000000000        8.16000000000000
C           37.87599999999999        4.63800000000000        8.31900000000000
C           35.97200000000000        5.97900000000000        7.55300000000000
C           35.35700000000000        6.89600000000000        6.62500000000000
C           34.10500000000000        7.14000000000000        7.08900000000000
C           33.95900000000000        6.37000000000000        8.30200000000000
C           32.68600000000000        5.68700000000000       10.28500000000000
C           31.52300000000000        5.77200000000000       11.15100000000000
C           31.76600000000000        4.95000000000000       12.20200000000000
C           33.07500000000000        4.38200000000000       11.97800000000000
C           34.92400000000000        2.96100000000000       12.67100000000000
C           35.55300000000000        2.10700000000000       13.64400000000000
C           36.80000000000000        1.87000000000000       13.20200000000000
C           36.93000000000000        2.55600000000000       11.93000000000000
C           38.08600000000000        2.57900000000000       11.17100000000000
H           38.93400000000000        1.98900000000000       11.51900000000000
C           37.27100000000000        5.51400000000000        7.43800000000000
H           37.85999999999999        5.86500000000000        6.59000000000000
C           32.83000000000000        6.39300000000000        9.10800000000000
H           31.99400000000000        7.01500000000000        8.78800000000000
C           33.67300000000000        3.49900000000000       12.84000000000000
H           33.11200000000000        3.20200000000000       13.72600000000000
C           40.17700000000000        4.45000000000000        7.02100000000000
H           39.79600000000000        4.00100000000000        6.07900000000000
H           41.17900000000000        4.02400000000000        7.24300000000000
H           40.25200000000000        5.55100000000000        6.89100000000000
C           40.68800000000000        2.43100000000000        9.42100000000000
H           40.42300000000000        1.55800000000000       10.05500000000000
H           41.47100000000000        3.02700000000000        9.93700000000000
H           41.07200000000000        2.06400000000000        8.44500000000000
C           35.99500000000000        7.47100000000000        5.36300000000000
H           36.58500000000000        6.68000000000000        4.85200000000000
H           36.67300000000000        8.30800000000000        5.63300000000000
H           35.20300000000000        7.83200000000000        4.67300000000000
C           33.13000000000000        7.93400000000000        6.49300000000000
H           32.18600000000000        7.48300000000000        6.15300000000000
C           33.31100000000000        9.35900000000000        6.29900000000000
H           34.23800000000000        9.85300000000000        6.62400000000000
H           32.52300000000000        9.96200000000000        5.82500000000000
C           30.29100000000000        6.64800000000000       10.93700000000000
H           30.22700000000000        6.94400000000000        9.86800000000000
H           30.36900000000000        7.56400000000000       11.56000000000000
H           29.37500000000000        6.08100000000000       11.20900000000000
C           30.89900000000000        4.61700000000000       13.24400000000000
H           30.81600000000000        3.56600000000000       13.55800000000000
C           30.08599999999999        5.58700000000000       13.95100000000000
H           30.12700000000000        6.65300000000000       13.68100000000000
H           29.41900000000000        5.26900000000000       14.76600000000000
C           34.91499999999999        1.55500000000000       14.91600000000000
H           33.93600000000000        1.09200000000000       14.66900000000000
H           34.75000000000000        2.38000000000000       15.64200000000000
H           35.57600000000000        0.78200000000000       15.36300000000000
C           37.87799999999999        1.08100000000000       13.93700000000000
H           37.70000000000000       -0.00700000000000       13.80000000000000
H           37.84300000000000        1.31800000000000       15.02200000000000
H           38.87700000000000        1.33700000000000       13.52500000000000
O           36.10599999999999        6.00800000000000       11.30100000000000
H           35.31800000000000        6.44700000000000       11.62100000000000
H           36.94600000000000        6.23000000000000       11.49100000000000
C           32.51600000000000        0.19400000000000        7.61800000000000
H           32.72200000000000       -0.78700000000000        8.09700000000000
H           32.50500000000000        0.06100000000000        6.51500000000000
H           31.52800000000000        0.56400000000000        7.96600000000000
N           34.91200000000000        0.95700000000000        7.70000000000000
H           35.25700000000000        0.18900000000000        7.16000000000000
C           33.58300000000000        1.16900000000000        7.99900000000000
C           35.64000000000000        1.91900000000000        8.23600000000000
H           36.72400000000000        1.99200000000000        8.15600000000000
N           34.83100000000000        2.75000000000000        8.86800000000000
C           33.53900000000000        2.30600000000000        8.73100000000000
H           32.70800000000000        2.84400000000000        9.16900000000000
78
 energy: -116.033077798271 gnorm: 0.106964069755 xtb: 6.7.1 (edcfbbe)
Fe          35.42566395392471        4.38866792912905       10.04935139710516
N           37.28676339698267        4.10884363588642        9.43557671129568
N           35.10559353753037        5.64799209541641        8.56288666955986
N           33.61848668142050        4.82844808125326       10.79880410340271
N           35.77121702294667        3.21614767277952       11.62283605812017
C           38.24142973441148        3.29213508555850        9.99484351717610
C           39.44454558264024        3.28283750592751        9.19380264347862
C           39.22154558139324        4.12908376124062        8.15444619420551
C           37.87906550653134        4.63408433377196        8.31532988381378
C           35.97388924924617        5.97612406105582        7.55198470056975
C           35.36974182037751        6.89997142559457        6.62576187138566
C           34.11152875708569        7.14741451203415        7.08996177743175
C           33.96023327013813        6.35763980676898        8.29499686874183
C           32.68240940826071        5.69226740612094       10.28116885800407
C           31.52516303197858        5.79040301119054       11.14148827295415
C           31.75843490296393        4.95751595508230       12.20062076758242
C           33.06127332375123        4.36795811635619       11.96532726958061
C           34.92473056369489        2.95383773095056       12.67224261588919
C           35.55130505613081        2.09888167972371       13.64770596917203
C           36.81036865069991        1.86677323260967       13.20376435308064
C           36.93425620842343        2.55675234012632       11.93612998051842
C           38.08293755279033        2.57650891272543       11.16835286565825
H           38.92823783355306        1.99479580726355       11.51667772225657
C           37.27099854513066        5.50996045091920        7.43687236388763
H           37.85643066064681        5.86206141482537        6.59539271966362
C           32.83342870371994        6.38987434310498        9.09798356111783
H           32.00846765498953        7.01791856857260        8.78071878508300
C           33.66562405360113        3.48846943205375       12.83579129373326
H           33.11420187877540        3.20561692239042       13.72482779289860
C           40.16510440220998        4.45044949070878        7.02722075694913
H           39.80100452834405        4.01236487018222        6.08956608731492
H           41.15732178080339        4.03852437798018        7.23848536301501
H           40.25298653054559        5.53373361493939        6.89149978558878
C           40.67323753667532        2.43724097860917        9.42585623387608
H           40.43053656101189        1.56945308616955       10.04646709903744
H           41.45755840509696        3.01625155292335        9.92852644048860
H           41.06486089279978        2.07453170942480        8.46855853513927
C           35.99558105838492        7.46068128556932        5.37600464686179
H           36.57901413571236        6.69143274379758        4.85817326282377
H           36.66368740910768        8.29304767258149        5.62620026485163
H           35.21844177756637        7.82818473107933        4.69590585870429
C           33.12181355000983        7.98738808512478        6.49181548115124
H           32.18804658484012        7.52673692944338        6.16548873846624
C           33.30122961171923        9.31951204101851        6.29510875649994
H           34.20997332315925        9.81664409907281        6.61862680858759
H           32.53562911675113        9.93160509776778        5.83274774286796
C           30.30488740733472        6.64335683440112       10.92582533260735
H           30.22189210091461        6.94319471158676        9.87765991775618
H           30.36648908876388        7.54891767891089       11.54073642972840
H           29.39921436072364        6.09278218467954       11.20943996340137
C           30.87663485952413        4.64399506600847       13.27696515414766
H           30.81018523669386        3.59919369664187       13.58288824202761
C           30.10164988897997        5.55484582086267       13.92955477100795
H           30.14107217681788        6.61007028720856       13.68352555116904
H           29.44146669758867        5.25950271688332       14.73706085703961
C           34.91529386280906        1.56260190820623       14.90362366064948
H           33.94857403214004        1.10076434007604       14.67381658860290
H           34.75085853994984        2.36621847695923       15.63139339334225
H           35.56104929868214        0.80215591089749       15.35444533317910
C           37.87523649163740        1.08392446382418       13.92407026606960
H           37.70727924655595        0.00689995691857       13.80023852897001
H           37.84765926764926        1.31373829435417       14.99552196600716
H           38.86704214078630        1.33024415642251       13.53632398680126
O           36.09182271249739        6.01747403450658       11.29327454940070
H           35.32463355094831        6.46965012446753       11.64014851575479
H           36.97372831230077        6.25602318712245       11.51111815248947
C           32.51794655475371        0.19294054196513        7.61485848268168
H           32.71183815301047       -0.77859195963113        8.08512966360771
H           32.49552773011819        0.05698123269189        6.52775725143319
H           31.54511867895404        0.55733785001095        7.95496629098494
N           34.90176697674396        0.94688225687755        7.69821585232828
H           35.25243452452569        0.17702098483731        7.15505912833007
C           33.58065830235476        1.15983857868841        8.00118055516112
C           35.62670078546004        1.93144641996615        8.24437683844124
H           36.69887193344488        2.00293484952526        8.16420172383079
N           34.83477279260267        2.76982098286472        8.88019465352037
C           33.55454203212171        2.30729558135113        8.73525722571830
H           32.72715293413496        2.83977123308967        9.16627172421986
78
 energy: -116.043036777903 gnorm: 0.042664739398 xtb: 6.7.1 (edcfbbe)
Fe          35.43286445496383        4.39018946207499       10.05656039567637
N           37.30530262333984        4.10579435938996        9.43309200216951
N           35.10484620355770        5.64932152557236        8.54793681536840
N           33.59347515938440        4.81875706735371       10.79375459414861
N           35.77687536636663        3.20729240921803       11.63945291236897
C           38.24177436177718        3.28540729668278        9.99051812644565
C           39.44399582977029        3.26960817263615        9.18940812629760
C           39.22384295021527        4.12297294827980        8.14989453449197
C           37.88250407000840        4.62917527891189        8.31419550805980
C           35.97540562631147        5.97126466372620        7.54932085229903
C           35.37594944784809        6.90010168945031        6.62409435212965
C           34.11496281302374        7.14166324575976        7.08660411933582
C           33.96478883217712        6.34879615213330        8.28942453258461
C           32.67728053299469        5.69030776939353       10.27377941301255
C           31.52554055363983        5.79791368888238       11.13196747793414
C           31.75126876039606        4.95300165675011       12.18855770025661
C           33.04805682817348        4.35251309912837       11.95031529017636
C           34.92425558723185        2.94629163827885       12.67019391516716
C           35.55082169514852        2.09137016219831       13.64869207100604
C           36.81723120401827        1.86416032477265       13.20545573245211
C           36.93685370863422        2.55910219318498       11.94235289436654
C           38.08010314866903        2.57408866372478       11.16615938315372
H           38.92367007012160        1.99700618811015       11.51447363465302
C           37.27206985055738        5.50457430196220        7.43595982660847
H           37.85521357413068        5.85583148745063        6.59772102644763
C           32.83765086999232        6.38637366347895        9.08780686366786
H           32.02497129696039        7.02395766579335        8.76978847209900
C           33.65702523008748        3.47422326149324       12.82617441300993
H           33.11265143154772        3.20291891343595       13.71869632136378
C           40.15504648077906        4.45168040455833        7.03136918457071
H           39.79684780805082        4.02336603200643        6.09457842974290
H           41.14362227262617        4.04912631636428        7.23603586740850
H           40.24453834953492        5.52753827010244        6.89780269879512
C           40.66249700642172        2.44020400298477        9.43040241061637
H           40.43086125631229        1.57644065036502       10.04661500523596
H           41.44163143137104        3.01736814648199        9.92865111604936
H           41.06273971793551        2.08242135512283        8.48310674346275
C           35.99964002340153        7.45510233053838        5.38867267616146
H           36.57645519500917        6.69446580170990        4.86699307844029
H           36.66646875638862        8.28325617302259        5.62862997590472
H           35.22662439771069        7.82767230479676        4.71907039778186
C           33.11384741134090        8.01499299013084        6.49480543762094
H           32.18207916207870        7.54416815033455        6.19384648409980
C           33.28932114773254        9.29797761982129        6.30229635619216
H           34.19655707082860        9.79530203187142        6.60454101961848
H           32.54331389979448        9.91725393875091        5.83311832051040
C           30.31812388204342        6.64295607789948       10.91368400003478
H           30.21994738953629        6.93750833219408        9.87364137079989
H           30.37090481238547        7.54866326140140       11.51820679366836
H           29.42229766720001        6.09819523003375       11.21171465349925
C           30.86542498128369        4.65629094024110       13.29412350530011
H           30.82433285151678        3.61506847001597       13.59919130698865
C           30.12106050977970        5.53560944895734       13.92492783333675
H           30.14463021320482        6.58416555034069       13.68464152789465
H           29.45195990004011        5.25166078431768       14.71945317056079
C           34.91494844885647        1.56851517746180       14.89311573536276
H           33.95289831979171        1.11078472134886       14.66989094217380
H           34.75042010512387        2.36623988994455       15.61699451320024
H           35.55241456225161        0.81606095878797       15.35010910033834
C           37.87584601185784        1.08432191704440       13.91172353576992
H           37.71348037498829        0.01282884775107       13.79124888362306
H           37.85279683636556        1.30896493847341       14.97697452279484
H           38.86431740765732        1.32652911079196       13.53554581401561
O           36.08830362341028        6.05503592850671       11.26719924623187
H           35.35229719300021        6.50904594585774       11.68626381320351
H           36.97810394409470        6.27669292599011       11.54050589335351
C           32.51590063682224        0.19524595734029        7.61356761563010
H           32.70027259955076       -0.77488165563198        8.07450758754030
H           32.49024886359597        0.06047108027895        6.53382832943246
H           31.55034391532320        0.55833311881174        7.94666008252500
N           34.89537769842602        0.94081466965663        7.70293542964121
H           35.25137649461674        0.17224941081877        7.15745868791133
C           33.57822141161473        1.15393275207804        8.00925351506246
C           35.61521529571431        1.94074046298785        8.25425860865076
H           36.67916091908398        2.01533066666786        8.17098313646582
N           34.83449519780346        2.77841876566860        8.89461667816064
C           33.56348374272345        2.30556732789760        8.74514598502358
H           32.73605072197250        2.83232351787497        9.17174167284288
78
 energy: -116.046246947703 gnorm: 0.029389007976 xtb: 6.7.1 (edcfbbe)
Fe          35.43863964138718        4.39716361482370       10.06182208857847
N           37.31169513100491        4.10404194700198        9.43228965357588
N           35.10561195054806        5.64371521157205        8.53926549108381
N           33.58374659470817        4.80865598442449       10.78551950502471
N           35.78190071343173        3.20903700519646       11.64514854727785
C           38.24197988256689        3.28054176666478        9.98737368253343
C           39.44252044923671        3.26077164903710        9.18468115407336
C           39.22300347978396        4.11560843677174        8.14607024729826
C           37.88309654680150        4.62343072909696        8.31196511611910
C           35.97634760902938        5.96463045362728        7.54526772469144
C           35.37653491027412        6.89692952703173        6.62248345843266
C           34.11489894330931        7.13320514526128        7.08468745194162
C           33.96723824797541        6.34000589598351        8.28524887735925
C           32.67436088591580        5.68270273438882       10.26551095112279
C           31.52504633296391        5.79363391061649       11.12453427185304
C           31.74909065235353        4.94316929177253       12.17762066188392
C           33.04138892204942        4.33808720790641       11.93762406390123
C           34.92414380990797        2.94086663616203       12.66577133962447
C           35.55181634283619        2.08675960067509       13.64539997325463
C           36.82011473612233        1.86216195432340       13.20412879983951
C           36.93999514965066        2.56166706227116       11.94444192837141
C           38.08079100488407        2.57256161017124       11.16487149284683
H           38.92305390155052        1.99408251332907       11.51188445864845
C           37.27277101074313        5.49790589969614        7.43270172686019
H           37.85588363282705        5.84792201016882        6.59475258915757
C           32.83948014842167        6.37993687402215        9.08048175979596
H           32.03590757247149        7.02787171452355        8.76177041728269
C           33.65154237844122        3.45988693846432       12.81463441273591
H           33.10757882391099        3.19022952818181       13.70709371807537
C           40.14916101789485        4.45459989899642        7.02986010880506
H           39.79107419202002        4.03390107294661        6.09004488323044
H           41.13987510465921        4.05680103427325        7.22923375077920
H           40.23348869662030        5.53145988480915        6.90443457577503
C           40.66114478929374        2.44002781905149        9.43547710980766
H           40.43277876461185        1.57611549630772       10.05189088646400
H           41.43220963654932        3.02363765230812        9.93766183461060
H           41.07182372575184        2.08422537415281        8.49267163341518
C           36.00504908867736        7.45368913925925        5.39414934219168
H           36.57662679186168        6.69297335690258        4.86769712946883
H           36.67818215534314        8.27511050533034        5.63733792080184
H           35.23373414157055        7.83688571601344        4.73003803036118
C           33.10439484436391        8.01027050991444        6.50089790665833
H           32.16281119909954        7.54023317567378        6.23097639083343
C           33.29169600992333        9.30000942127556        6.28191711189254
H           34.20107938002670        9.79466139002703        6.57851861862587
H           32.53655408229441        9.92546011913899        5.83701202022880
C           30.32367005503114        6.64228398391835       10.90164794474441
H           30.21685574910028        6.92336504571973        9.85862804049537
H           30.38228307430684        7.55716292743203       11.49109262349373
H           29.42984257465220        6.10476557518570       11.21610364999790
C           30.86906527054286        4.64732274430241       13.29358706957764
H           30.84862149017322        3.60923836135051       13.60939784724656
C           30.10786413217830        5.53077084120969       13.92050837465496
H           30.13350129539801        6.57940154341502       13.68474684175209
H           29.45711933732926        5.24958724290177       14.73041090797813
C           34.91190754813424        1.57244531424004       14.88788497253315
H           33.94936460380030        1.11680459067898       14.66497470580652
H           34.74615666797268        2.37476886626740       15.60587208789684
H           35.54557232159188        0.82284816662098       15.35304899396695
C           37.88012746528108        1.07999188650588       13.90176121283596
H           37.72042846475062        0.00919954811898       13.77604837181555
H           37.86066180402821        1.29840872720172       14.96767202815863
H           38.86839971582788        1.32421038070754       13.52702007211754
O           36.09458417340611        6.13059555237893       11.21879296669532
H           35.38049726437603        6.52993003392186       11.75668242748572
H           36.98210544778060        6.28484391647102       11.58887243412196
C           32.51128090401957        0.20191907231078        7.61437395444613
H           32.68625042377423       -0.77374007540635        8.06680380686550
H           32.48833329965539        0.07389610593487        6.53399862684452
H           31.54566594584261        0.56677570842798        7.94315944100233
N           34.89205135019524        0.94215030698532        7.71435033643640
H           35.24987621971211        0.17608355923951        7.16601397795078
C           33.57525986725349        1.15393532047147        8.02295895633369
C           35.60945206380995        1.94562413047249        8.26787512127620
H           36.67133580769382        2.02549271393936        8.17985309709176
N           34.83136360208936        2.78019258365561        8.91275886586543
C           33.56281789524266        2.30307209886348        8.76400439040218
H           32.73382113938021        2.82540880700937        9.19123103491651
78
 energy: -116.048033713180 gnorm: 0.035411573353 xtb: 6.7.1 (edcfbbe)
Fe          35.44274617981825        4.40443954049242       10.06429701149905
N           37.31628854585628        4.10449068928517        9.43244567666678
N           35.10515423615969        5.63286837870547        8.52808113311198
N           33.57938989726458        4.80192049342558       10.77939596677549
N           35.79088656221369        3.22248024402222       11.65335423165945
C           38.24371368690820        3.27861648918137        9.98527491550576
C           39.44199931383044        3.25288474061161        9.17898104394972
C           39.22188803487282        4.10731757647590        8.14114435403213
C           37.88336774576106        4.61849348636280        8.30951213670280
C           35.97726307596648        5.95861243080369        7.54014353757159
C           35.37732302830197        6.89753456379575        6.62141120695360
C           34.11543730752749        7.12833841551777        7.08411115410275
C           33.96856644520248        6.32917904629143        8.27983891746849
C           32.67306047851996        5.67554140761463       10.25918877339836
C           31.52417189701641        5.78798932663427       11.11888250741987
C           31.74668464269621        4.93287463441764       12.16820027540490
C           33.03640470715512        4.32544078678322       11.92689475657764
C           34.92668988021039        2.94084119824619       12.66370880954210
C           35.55358195882879        2.08211725725659       13.64118687829590
C           36.82288578972685        1.86061722819426       13.20259378271695
C           36.94572750349643        2.56883548223285       11.94802106702568
C           38.08400518533916        2.57350058252799       11.16463341334086
H           38.92319357999283        1.98774479291608       11.50716592630134
C           37.27345111648465        5.49123436846700        7.42804330813423
H           37.85715689078363        5.83879406139650        6.58928447731353
C           32.84082437955678        6.37207555368043        9.07411332935012
H           32.04585057652109        7.03005870268357        8.75441138324740
C           33.64736224018292        3.44628707017577       12.80334244932249
H           33.09846082493166        3.16734241416244       13.68944907967752
C           40.14392873788188        4.45843214469618        7.02526650231469
H           39.78345565353034        4.04730406709235        6.08090773716370
H           41.13869625495565        4.06389754729618        7.21669171753378
H           40.22016819906118        5.53897236717768        6.91282439209591
C           40.66372862666348        2.43965745915286        9.44102503116699
H           40.43578113025926        1.57398954144136       10.05740694301371
H           41.42341040121691        3.03234207470314        9.95290526457430
H           41.08945058873259        2.08594108846233        8.50280671967916
C           36.01304162658758        7.45743047371691        5.39847828676759
H           36.57457665668798        6.69230657447276        4.86471594508113
H           36.69990518477584        8.26613725054716        5.65124477723460
H           35.24545012331521        7.85915402276783        4.73912289108291
C           33.09461701488939        8.00511313534534        6.51579934060817
H           32.13919857837700        7.54133437740941        6.28425134391218
C           33.28798225996687        9.30035132340959        6.27577302080820
H           34.22219731003545        9.78255174929577        6.52021400288796
H           32.52795215026594        9.92334626871634        5.83464655423658
C           30.32697386330693        6.64143467749162       10.88877355218523
H           30.21210916806773        6.89589062756758        9.83749165772029
H           30.40049744805862        7.57347560663914       11.45276046307914
H           29.43229673883242        6.11738711404078       11.22761617572872
C           30.87942967675823        4.63682088616464       13.29393677321356
H           30.87730282936437        3.60316385101851       13.62289194928645
C           30.10753957303350        5.52390611292570       13.92416254995206
H           30.10345365105494        6.56740382424584       13.66185579993541
H           29.46295117957870        5.23678201887575       14.73793486663444
C           34.90684073025547        1.57452888865908       14.88297649857023
H           33.94271866156325        1.12084461097686       14.65765932639010
H           34.73874817789619        2.38543390117536       15.59311133817526
H           35.53631659898757        0.82666313109072       15.35901300091954
C           37.88542904058209        1.07154774098847       13.89008049467161
H           37.72735120645135        0.00099691599872       13.75149739828944
H           37.87019678731212        1.27785354065256       14.95970593127611
H           38.87344146709868        1.32139880854752       13.51355147504434
O           36.10050338251816        6.19338443417566       11.20240425354206
H           35.41294948412884        6.56700414246594       11.78064108196823
H           36.97080087845917        6.29668236057695       11.65393352162398
C           32.50226419493361        0.21334242665894        7.61649235698927