72
 energy: -105.870489317154 gnorm: 0.255843340416 xtb: 6.7.1 (edcfbbe)
Fe           5.20600000000000       23.32400000000000        3.47000000000000
N            6.08200000000000       24.54900000000000        2.04900000000000
N            7.01400000000000       22.38400000000000        3.83200000000000
N            4.34400000000000       22.07600000000000        4.75400000000000
N            3.36500000000000       24.26300000000000        3.00900000000000
C            5.51500000000000       25.60500000000000        1.36300000000000
C            6.54600000000000       26.26000000000000        0.56500000000000
C            7.69400000000000       25.58400000000000        0.77900000000000
C            7.42000000000000       24.49600000000000        1.70300000000000
C            8.19900000000000       22.67200000000000        3.17900000000000
C            9.25300000000000       21.86900000000000        3.76800000000000
C            8.69400000000000       21.13300000000000        4.73400000000000
C            7.27100000000000       21.44100000000000        4.79700000000000
C            4.96000000000000       21.18200000000000        5.61600000000000
C            3.93200000000000       20.61300000000000        6.47800000000000
C            2.76300000000000       21.15100000000000        6.12000000000000
C            2.99100000000000       22.07200000000000        5.03500000000000
C            2.14700000000000       23.85200000000000        3.54100000000000
C            1.08600000000000       24.69100000000000        3.01100000000000
C            1.79400000000000       25.66800000000000        2.06500000000000
C            3.19800000000000       25.32999999999999        2.12800000000000
C            4.19300000000000       25.97500000000000        1.43400000000000
H            3.90500000000000       26.87100000000000        0.88400000000000
C            8.35000000000000       23.57500000000000        2.15400000000000
H            9.31000000000000       23.56500000000000        1.63800000000000
C            6.31900000000000       20.90900000000000        5.64600000000000
H            6.66800000000000       20.21200000000000        6.40800000000000
C            1.99300000000000       22.81100000000000        4.42800000000000
H            0.96800000000000       22.53900000000000        4.68000000000000
C            9.08300000000000       25.87600000000000        0.16300000000000
H            9.05700000000000       26.85400000000000       -0.36400000000000
H            9.34500000000000       25.08100000000000       -0.56700000000000
H            9.84800000000000       25.92000000000000        0.96700000000000
C            6.35100000000000       27.51400000000000       -0.34200000000000
H            6.70900000000000       28.41900000000000        0.19400000000000
H            5.27400000000000       27.64000000000000       -0.58200000000000
H            6.93700000000000       27.39500000000000       -1.27800000000000
C           10.75700000000000       21.85500000000000        3.37400000000000
H           10.96500000000000       22.69400000000000        2.67600000000000
H           11.00400000000000       20.89699999999999        2.86900000000000
H           11.38400000000000       21.97800000000000        4.28300000000000
C            9.47100000000000       20.13700000000000        5.61400000000000
H           10.57000000000000       20.14400000000000        5.64300000000000
C            8.81000000000000       19.25000000000000        6.35500000000000
H            7.76800000000000       18.99000000000000        6.11800000000000
H            9.29800000000000       18.76599999999999        7.21400000000000
C            4.13500000000000       19.58300000000000        7.61800000000000
H            5.14400000000000       19.71700000000000        8.06300000000000
H            4.05400000000000       18.55200000000000        7.21100000000000
H            3.36900000000000       19.74100000000000        8.40700000000000
C            1.37600000000000       20.86600000000000        6.72700000000000
H            0.63500000000000       20.26600000000000        6.17800000000000
C            1.04900000000000       21.34400000000000        7.93400000000000
H            1.76700000000000       21.94700000000000        8.50900000000000
H            0.05800000000000       21.13900000000000        8.36600000000000
C           -0.43900000000000       24.63000000000000        3.29400000000000
H           -0.61200000000000       24.60100000000000        4.39100000000000
H           -0.86900000000000       23.71300000000000        2.83700000000000
H           -0.93500000000000       25.53100000000000        2.87500000000000
C            1.13800000000000       26.78400000000000        1.23100000000000
H            1.27400000000000       27.76000000000000        1.74500000000000
H            0.05100000000000       26.58200000000000        1.12300000000000
H            1.61600000000000       26.83400000000000        0.22900000000000
O            4.91300000000000       22.03800000000000        2.00100000000000
H            5.61000000000000       21.38700000000000        2.07800000000000
H            4.27000000000000       22.05000000000000        1.38800000000000
C            6.25100000000000       26.16900000000000        4.77300000000000
H            6.58500000000000       26.84700000000000        5.58800000000000
H            5.50900000000000       26.71700000000000        4.15400000000000
H            7.13500000000000       25.92200000000000        4.14700000000000
S            5.50600000000000       24.63900000000000        5.44500000000000
H            6.64800000000000       24.14600000000000        5.90300000000000
72
 energy: -105.930110915207 gnorm: 0.106430381913 xtb: 6.7.1 (edcfbbe)
Fe           5.21020783634600       23.34611725664482        3.49156060807185
N            6.08985332723809       24.56139308500724        2.06714682268576
N            7.01783467681335       22.39058835465744        3.83322536184496
N            4.33181121179481       22.07999897249600        4.75190300830194
N            3.37562235757670       24.25418466859633        3.01033655705188
C            5.52257730053870       25.60505847307707        1.37808190492320
C            6.54224457813594       26.26533750036520        0.56578611627223
C            7.69865203596512       25.58177338653509        0.76778149315058
C            7.40939537445844       24.50232958292288        1.69812918574626
C            8.19602501749145       22.66411528510790        3.18231717842790
C            9.25989121315520       21.86212661169493        3.75730638443775
C            8.69594521030216       21.10032629724361        4.73459833409140
C            7.27439854686069       21.44247627318863        4.78704023520149
C            4.94082325538057       21.19913238271474        5.61368820315041
C            3.92995838696976       20.61136823386794        6.48616526042972
C            2.73872703826173       21.14112226173218        6.11481986179150
C            2.98834836801629       22.06874445314888        5.02782093287748
C            2.15553192123662       23.87219306849984        3.51153700165142
C            1.10782760394128       24.71754294656889        2.97388153452093
C            1.76993131176378       25.64078562752724        2.09878691942836
C            3.17622195592005       25.31345475757424        2.15612251257955
C            4.18605042554012       25.96498794530793        1.44812360458947
H            3.89664968035541       26.84902507929059        0.88599282157667
C            8.34360134628360       23.58024788748811        2.15318561576090
H            9.30749671098528       23.58673743445270        1.65385341916560
C            6.30352447419353       20.92724524427377        5.64058860967197
H            6.63950299852055       20.24211144443923        6.40630498819838
C            1.99575680863444       22.82273918959635        4.41571274095540
H            0.97636959010363       22.56292507821752        4.68807357291006
C            9.06359225628696       25.87225474775459        0.17060701288654
H            9.05337271325354       26.83489163020649       -0.35114053165849
H            9.33960930738108       25.09279391579084       -0.54963259862149
H            9.82963746757588       25.91484971612477        0.95341885966960
C            6.34997766112072       27.49090146042014       -0.32179096176734
H            6.70191884359044       28.39546003033093        0.19100815759659
H            5.29503005895049       27.63175593606201       -0.57538804388729
H            6.92078914745308       27.38847416602219       -1.25211435837720
C           10.73111037961066       21.86166399635316        3.37138731058743
H           10.95931445446694       22.68334322316335        2.68609963487785
H           10.99396562878309       20.91696747145076        2.88029695515790
H           11.36042018655566       21.97381795155659        4.26281636246654
C            9.43890330445815       20.15010409815575        5.61218671917593
H           10.52896495631648       20.20570199597532        5.65221334503761
C            8.81737737957538       19.23516934979304        6.35222108754393
H            7.78755773022007       18.97752015582059        6.15332321624163
H            9.31400920638658       18.72921452718631        7.17385650334941
C            4.14324567986213       19.59957388975659        7.59994953553463
H            5.13226590046540       19.71718744322980        8.05419272789689
H            4.05796867914889       18.57584232128975        7.21394367847021
H            3.38451983883249       19.73819878705650        8.37839245851825
C            1.39306375280187       20.87736852026362        6.72706319736148
H            0.66992254908422       20.28094918774888        6.16976317671014
C            1.05851161069346       21.34188999505092        7.92405840193651
H            1.75280144185251       21.94022151407341        8.50346805209886
H            0.08140232520440       21.14343248287238        8.35697377383911
C           -0.38731517278102       24.63676159256654        3.28076308715842
H           -0.58439520614724       24.60237212647343        4.36187532005977
H           -0.84179734118545       23.73641770585198        2.84172433181110
H           -0.91224350593802       25.51089213530009        2.87950826523101
C            1.14870543679656       26.74941266345194        1.26192455314038
H            1.27474487688740       27.73047958954763        1.74353852951982
H            0.07485640419287       26.57955505701275        1.12828308814688
H            1.60772720584257       26.81642080187551        0.26520310518607
O            4.92287318493833       22.02606557918131        2.00848746893704
H            5.61174049502936       21.36227610666599        2.05497733909778
H            4.24983416965435       22.03224210352904        1.35150077257730
C            6.26786576455822       26.18970365883102        4.77255198361260
H            6.58258684164709       26.84386978178694        5.59132977898567
H            5.51549362667053       26.69994547038105        4.16411139436833
H            7.12459610344276       25.92428196987664        4.14771909055808
S            5.50913851330664       24.67212806211646        5.43290447613216
H            6.64455558037128       24.14843829980563        5.89655295336728
72
 energy: -105.951447499050 gnorm: 0.043676871699 xtb: 6.7.1 (edcfbbe)
Fe           5.20448456726762       23.35718062312957        3.49436825194764
N            6.09658907644434       24.57490550903023        2.09224614240249
N            7.01523823034643       22.40529342249816        3.83781834917101
N            4.31808699844625       22.09485319218432        4.75219841528555
N            3.38755897057607       24.25063356360730        3.01811486707928
C            5.52804018005032       25.60692842584153        1.40342688053367
C            6.53427133095846       26.26521451295772        0.57475786297217
C            7.69684170207743       25.57672491775049        0.76517980069665
C            7.40096046702064       24.51112702690783        1.70797038130088
C            8.18823776508742       22.66368886644745        3.19035628211216
C            9.25262795885471       21.85900651796197        3.75088372584290
C            8.68424097830822       21.08346212559046        4.73783134791459
C            7.26747229356366       21.45001360846761        4.77724047378730
C            4.92361217820814       21.22439834306971        5.60821378428683
C            3.92980701463008       20.62366653347330        6.48836594985251
C            2.72349176198180       21.14179471984568        6.10834964964367
C            2.98521817100085       22.07079949275575        5.01957741809584
C            2.16990482512601       23.88285996218561        3.49683887543427
C            1.13301362603159       24.73937450764440        2.94643445524535
C            1.75617346620015       25.61341699549440        2.12743349205951
C            3.17212933679601       25.29947189965760        2.17997295789491
C            4.18307436003889       25.95536030690355        1.46563822426995
H            3.88643836857003       26.82126936957372        0.88547738978237
C            8.33924013134324       23.59268913462356        2.16394393725889
H            9.30703665309245       23.61648528005421        1.67960249358832
C            6.28594172931110       20.94935996632505        5.63342632776668
H            6.61018222659960       20.27303287037856        6.40504754305506
C            1.99732028673251       22.83535599189355        4.40832694329845
H            0.98154731568595       22.59622082486641        4.70147670348723
C            9.04112635561632       25.86430399451982        0.17751288291519
H            9.03809194016835       26.81973834460589       -0.34061851537071
H            9.32971286119558       25.09234904940308       -0.53627860114777
H            9.80618255420566       25.90651096577643        0.95173574507413
C            6.34436172479687       27.46604576627698       -0.29904805449284
H            6.69492512150823       28.37032261268044        0.20229743086557
H            5.30071459217893       27.61440747672111       -0.56060893641237
H            6.91022634615612       27.36809098748212       -1.22511147820059
C           10.69834211158535       21.86451417731717        3.36846823641954
H           10.93789863097198       22.67854783578451        2.69104974975555
H           10.97601448342368       20.92730742281034        2.88448349856000
H           11.32855510739120       21.97132408940895        4.25241342337267
C            9.39472356642417       20.17087286801175        5.60706033248327
H           10.47727284037764       20.28740570598727        5.66290991083671
C            8.82288033423919       19.21940780991635        6.34737670700326
H            7.79563381953783       18.95389123413855        6.19583776009589
H            9.35253469331300       18.67759577660151        7.11639149793729
C            4.15049830676469       19.62118079522022        7.57713041168380
H            5.12922889076076       19.72987480913595        8.03630412693101
H            4.06655798357150       18.60096712836867        7.19872804969637
H            3.39394846544676       19.74335345203628        8.35067194364934
C            1.41332426799781       20.88822174687087        6.71786131688822
H            0.70362820605819       20.29741014034317        6.14727049701921
C            1.06937647090509       21.33989552298205        7.91308668133859
H            1.74529908526913       21.93696628561629        8.50108980273781
H            0.10180281599641       21.14280299194451        8.34629389085283
C           -0.33568406415178       24.64292923657299        3.26447289293739
H           -0.52357614922107       24.60463536089816        4.33965893362721
H           -0.79008722518198       23.74616385828225        2.83416366938961
H           -0.87566859243938       25.50367146873726        2.87275067495133
C            1.15844069016057       26.71425342227159        1.29327189780187
H            1.28787382914147       27.69277634387303        1.76412272448857
H            0.09110605680090       26.56045688324062        1.14680194459158
H            1.61768217811557       26.77620561234560        0.30468575862460
O            4.91980143625935       21.99879141881785        1.99881722683414
H            5.60076687979240       21.32222018840574        1.99876906999821
H            4.25101414751909       21.99900740011708        1.31310798508454
C            6.28290123215307       26.20954237436088        4.77138071335495
H            6.58597961336568       26.84730037648104        5.59385430270650
H            5.52478115016604       26.69903010924612        4.17036488695983
H            7.12384698351724       25.93757559571001        4.14677052514440
S            5.50966920977213       24.69354990465901        5.41248949856933
H            6.63850907802053       24.15099294490064        5.88969005837769
72
 energy: -105.959998737740 gnorm: 0.028729942624 xtb: 6.7.1 (edcfbbe)
Fe           5.19631397143658       23.35323498454798        3.48111784336667
N            6.09862712965053       24.57921061697929        2.11512163432916
N            6.99986532376033       22.41442728902278        3.83393444292448
N            4.30577370052141       22.10637048852281        4.74163490844719
N            3.39864922700375       24.24331267817948        3.02297441861273
C            5.53225477709366       25.60698912329520        1.42668432390881
C            6.52916453558378       26.25884116276632        0.59144333061746
C            7.69134657888202       25.57152040371952        0.77659624169251
C            7.39878704708492       24.51593613669126        1.72634502668655
C            8.17538257854581       22.66834711952385        3.19538265885385
C            9.22973143176928       21.85896124758336        3.75194083757052
C            8.65567150265168       21.08658480859214        4.74126200323011
C            7.24629058297447       21.46103955376970        4.77186544608058
C            4.91245164837090       21.24790745988377        5.60226796442554
C            3.92905778832018       20.64325628999276        6.48242454768028
C            2.72043285442450       21.15246373177952        6.10218959796889
C            2.97956649319067       22.07625283724970        5.01335428807046
C            2.18281534155643       23.87443943918371        3.49953440223337
C            1.14535358510011       24.72646872602722        2.94736028815840
C            1.77489433856211       25.61422877143546        2.13251655513449
C            3.19012928942551       25.29554266577200        2.19171835204553
C            4.18991113055799       25.95258188044971        1.47966488526030
H            3.88362371498888       26.80188433202550        0.88228816066930
C            8.33918788590831       23.60562055511866        2.18038324302687
H            9.31504239105001       23.65090118460511        1.71443929357030
C            6.26917814377828       20.97140174749237        5.63286530743564
H            6.58728466786854       20.30271176118435        6.41243624880052
C            1.99343194460249       22.84161554372530        4.41095115738931
H            0.97747171954991       22.62931910697142        4.72230878768962
C            9.02858753823184       25.85507537697687        0.18371820766360
H            9.02221240377405       26.80947822562080       -0.33571019349444
H            9.31783508527513       25.08083908003820       -0.52720261452237
H            9.79255503211435       25.89837736893545        0.95868623201733
C            6.33382379414944       27.45136078737477       -0.28165983033894
H            6.68435350174002       28.35531647525183        0.21977566294371
H            5.29010744868469       27.59608861737611       -0.54330766879227
H            6.90091764573682       27.34691516508820       -1.20554507571271
C           10.67004878318864       21.86448024050275        3.36667436306071
H           10.90870538925563       22.67973201336742        2.69013374951305
H           10.94953853108922       20.92815007420485        2.88231426892311
H           11.29871784584402       21.97013076978777        4.25163653411512
C            9.36335139713078       20.18991294978033        5.61798813301095
H           10.43971181479881       20.36218278421625        5.68421214015611
C            8.83648101218058       19.19564853092662        6.34216243646321
H            7.80628413707469       18.91015662138408        6.22962782752973
H            9.41667257983906       18.61125733934706        7.05155735657748
C            4.16012447652892       19.63860684959300        7.55951467385415
H            5.13796367927149       19.75176166839642        8.01947448593492
H            4.08442006210981       18.62198233910791        7.17008095056613
H            3.39941826913036       19.74838853805727        8.33050791022529
C            1.41729219131324       20.89704983347460        6.70633432448214
H            0.71393210356057       20.31288900851160        6.12223212513212
C            1.07210998209518       21.33738006436932        7.90544793154492
H            1.74459597497630       21.93286236824824        8.49970765068828
H            0.10727389220059       21.13449782562530        8.33808337378427
C           -0.31056541799627       24.63296522500652        3.26248999189710
H           -0.47544724331054       24.59730920424074        4.33868544560069
H           -0.75046775696342       23.73439811140227        2.82800325179862
H           -0.84420942309053       25.49497545576648        2.86884826841460
C            1.17383640369538       26.70392380649361        1.30570945147454
H            1.30806940564172       27.67522226076704        1.78429174223733
H            0.10787566737058       26.54248424706278        1.16565709409343
H            1.63745894389239       26.74943688016488        0.32158595718891
O            4.90552007560631       21.95920607911797        1.97987212575969
H            5.59283458714706       21.28657417368008        1.93344786497210
H            4.25729041954440       21.96647769433391        1.27031611116784
C            6.29692962937019       26.23293845742261        4.76785647261652
H            6.59663086093215       26.85885369808137        5.60146635449408
H            5.53845926676272       26.72467536990453        4.17033875474833
H            7.13724377099267       25.96148186996892        4.14212742714830
S            5.50618987664099       24.71465944365951        5.38633467376579
H            6.62662503825738       24.15952546127320        5.87351786141678
72
 energy: -105.965573113900 gnorm: 0.025606752232 xtb: 6.7.1 (edcfbbe)
Fe           5.19250668206619       23.35576341494411        3.47171216786416
N            6.09534008971889       24.57165962566276        2.13301986683804
N            6.97876503948923       22.42841808477692        3.83235093216734
N            4.29664259347874       22.12598208920151        4.73377599885638
N            3.41997275062179       24.22672705823314        3.02623321824897
C            5.53366800520292       25.59957209824454        1.44626023200704
C            6.52255997888960       26.24932143314710        0.61143518866510
C            7.68451591487180       25.56536413678676        0.79396470311101
C            7.39591449226866       24.51638465551844        1.74653913615993
C            8.15956707687727       22.67425156001191        3.20281394841655
C            9.20373291346242       21.86502937679427        3.76211949121247
C            8.62390263722502       21.10233433809708        4.75571801890785
C            7.22247614755666       21.47887507764211        4.77143016190273
C            4.90394278731787       21.27175431476346        5.59610387817071
C            3.92912773314077       20.66758948153410        6.47702192108442
C            2.71869873479859       21.16625245307993        6.09686207455594
C            2.97434075487387       22.08488658071573        5.00900498611569
C            2.20342188984965       23.86375547501006        3.50251635222710
C            1.16926982708056       24.71571706656534        2.95293257754803
C            1.80012554389762       25.60542768980310        2.13775212665204
C            3.21241487995650       25.28234869277246        2.20075483285171
C            4.19511126161786       25.94466808621410        1.48922610114580
H            3.88018254927366       26.78350377037258        0.88601700209268
C            8.34135256045544       23.62005488292226        2.20215730729459
H            9.32514519802346       23.68912015096809        1.75806746399830
C            6.25543858516025       20.99121767790243        5.63539553107070
H            6.57319241212944       20.32361940758505        6.41636817840214
C            1.98843940235818       22.85146278708426        4.41740268135945
H            0.97238009476702       22.66741442329855        4.74127160417527
C            9.01761766775695       25.84420323191476        0.19314545296716
H            9.00696981231969       26.79624070426830       -0.33133318336492
H            9.30335700581123       25.06513231233622       -0.51458371350151
H            9.78375070537789       25.89106825191922        0.96660740383250
C            6.31935970806611       27.43782385538027       -0.26270565469520
H            6.66496829869920       28.34365961248576        0.23925803605516
H            5.27408759134952       27.57460998518395       -0.52337952184509
H            6.88779471660891       27.33072699443134       -1.18549550988830
C           10.64003230167143       21.86283454365379        3.36844362277748
H           10.87319272583157       22.67835582928294        2.68950629640470
H           10.91326085028207       20.92569792558367        2.88174000521948
H           11.27255335484594       21.96817562561620        4.25121241355375
C            9.33237215004407       20.19682219388453        5.62233009612803
H           10.39723541367286       20.41293209381920        5.70071583228301
C            8.84840437363830       19.16499344995082        6.31795021314883
H            7.82078190121508       18.85139574061889        6.24165529365900
H            9.45515784473149       18.59659008071702        6.99913813739857
C            4.17262294444714       19.65739229692800        7.54264925444330
H            5.14913388069696       19.78151544839916        8.00373261802368
H            4.11454329118619       18.64557685916436        7.13538115086263
H            3.40727210021330       19.74672806926074        8.31227459600599
C            1.41481774101028       20.90580797598421        6.69272157992625
H            0.71478462874040       20.33481539891785        6.09132417525432
C            1.07062277237480       21.33008324874363        7.89801237094405
H            1.74460901093667       21.91771081341608        8.50013104416578
H            0.10566654620571       21.12384789980740        8.32791187894455
C           -0.28052753289843       24.61858278269967        3.26454506882116
H           -0.43481879336055       24.58480734570312        4.34069820187951
H           -0.71214238093131       23.71719773574331        2.83058002991792
H           -0.81618862863034       25.47849181895436        2.86979706598634
C            1.19677296116700       26.69166329737365        1.31909408681910
H            1.33586660674307       27.66046053589261        1.79898300826009
H            0.12993409219348       26.52808123731709        1.18791908983232
H            1.65640299101214       26.72928172940508        0.33449974634935
O            4.87520304732670       21.90138661624250        1.96990882620190
H            5.59004111856347       21.25735132361182        1.83890546451907
H            4.27873649293016       21.93726248692309        1.20847927369245
C            6.31139205865271       26.26091149848537        4.76216471864274
H            6.61183219041076       26.87043238398535        5.60855362537684
H            5.56105098401159       26.77020116557390        4.16873592632536
H            7.15540714451062       25.99460182896453        4.13803187353182
S            5.50086074513839       24.74056003209535        5.36018981593780
H            6.61205902899760       24.17250984970820        5.85434260610035
72
 energy: -105.967574708478 gnorm: 0.029535090779 xtb: 6.7.1 (edcfbbe)
Fe           5.18655776075480       23.34979882710975        3.45735600808189
N            6.08942200097937       24.55909335672628        2.13802531775474
N            6.96039016347877       22.44208611483536        3.83254831577866
N            4.29155498073442       22.14258478250451        4.73499555963646
N            3.43551627395055       24.21241180381026        3.02640977682556
C            5.53287581030619       25.59163709446158        1.45261370549184
C            6.51964904264187       26.24452384156241        0.62424780891566
C            7.68232578419460       25.56523644835849        0.80949327523937
C            7.39521106871398       24.51638882911158        1.75953005555404
C            8.14858407622343       22.68302557423858        3.21163804759062
C            9.18567180241317       21.87138917147571        3.77444013531360
C            8.59989009777347       21.11968115482140        4.76945927467248
C            7.20382346379940       21.49606192419570        4.77593464934537
C            4.89874124235744       21.28845311000181        5.59994089668321
C            3.92618459988105       20.68330726679724        6.47851217626876
C            2.71535084305556       21.17536470065760        6.09819838277758
C            2.96923849413246       22.09356580369203        5.01338787738371
C            2.21667316138271       23.85773782158784        3.50570949499969
C            1.18557496434556       24.70940316564717        2.95750567802676