72
 energy: -105.979862515536 gnorm: 0.000163848921 xtb: 6.7.1 (edcfbbe)
Fe           5.17673822153239       23.48844917272169        3.46318480268017
N            6.08249015868907       24.63744956159296        2.11165935525856
N            6.94351033532459       22.63186001649890        3.91627024289250
N            4.26222249630045       22.27425286994700        4.79191508097931
N            3.41309529972004       24.26200327093314        2.96247623275652
C            5.49842245132815       25.56915315336013        1.31845479511593
C            6.48232223309031       26.21592110721002        0.47618805530219
C            7.67662771846128       25.64138555722193        0.77526663578870
C            7.40557023007800       24.65530962586034        1.79949120762454
C            8.15413061186745       22.91828334647503        3.36085176981874
C            9.18515575578449       22.10064535692390        3.93873110323728
C            8.56909459555056       21.28295638063967        4.84837356969003
C            7.16797666553506       21.64705124020891        4.82915459185710
C            4.86489405706621       21.40472920325724        5.65343691017693
C            3.89477816924697       20.79399408066790        6.52331030181019
C            2.67712110964882       21.31108707417575        6.16513826850664
C            2.93632264299048       22.23618997005878        5.08206213037567
C            2.19877828823128       23.93707569284987        3.47646947709547
C            1.15498371222972       24.73397821203261        2.86661373452263
C            1.77369530142017       25.55554743008955        1.97934027150422
C            3.18552388586917       25.24457073659195        2.05515485088402
C            4.15027220829982       25.86894886179854        1.29080022802939
H            3.82499775562883       26.63835775667737        0.60805288131520
C            8.37839282985905       23.86303603582235        2.37373908060439
H            9.39312731138610       23.98619375535813        2.02851390262447
C            6.21740750104898       21.11435644104440        5.67932964239597
H            6.56397148395759       20.41608041641413        6.42415191993143
C            1.96440955383052       22.99948039564799        4.46250886110765
H            0.94549879259791       22.87167452490914        4.79249585445827
C            9.02746669575699       25.91492192343187        0.20964607831463
H            8.97913728593320       26.69629887952448       -0.54448772352323
H            9.43701557448206       25.01692139813129       -0.25304176709586
H            9.71496677097235       26.23597835777620        0.99282817227522
C            6.16924048955345       27.28971076393473       -0.50751105532758
H            5.70723355928279       28.14284841401005       -0.01033221586044
H            5.47579965857837       26.92302791866136       -1.26436394572944
H            7.07208908714303       27.63176232148160       -1.00728352681560
C           10.62197302981985       22.13463812551904        3.54929406843159
H           11.03078053312081       23.13822666181353        3.67105199784202
H           10.74278589930993       21.84682346995223        2.50448087731518
H           11.19959955133757       21.44620402205834        4.16080876219695
C            9.19279142075732       20.25246387962166        5.65408958348882
H           10.17391439350875       20.50132596492552        6.04391758557735
C            8.68466463654918       19.05159574280096        5.90416588858557
H            7.74023736422200       18.73268662784616        5.49611893418742
H            9.21090603851954       18.33179432353951        6.50858869566573
C            4.19373565613674       19.75063863894821        7.54161196734653
H            4.54192101953254       20.20401655368014        8.47103262241464
H            4.97001715090703       19.07406283361161        7.18762413589066
H            3.29775307989180       19.17182633702814        7.75634957788557
C            1.36520894951778       21.01718260577722        6.69881088079432
H            0.55081860986977       21.05358404432680        5.98452162666208
C            1.09844559581706       20.72326901447543        7.96677063157674
H            1.85969776729652       20.72154901377730        8.72711631666219
H            0.09625552466377       20.50201017682410        8.29411672183189
C           -0.29176567301016       24.62101017749667        3.20274887577650
H           -0.45739299201541       24.84284649501876        4.25714629486246
H           -0.65331269665425       23.61107852631883        3.00812872907502
H           -0.88128890113640       25.31564091142531        2.60980099772652
C            1.18888537251806       26.58599064731770        1.07668911770399
H            1.60486570526397       27.56890375810422        1.29834468344823
H            0.10950737658840       26.63630173482949        1.19555909886102
H            1.40959094461267       26.35154284461164        0.03524711822464
O            4.88047651621744       21.83320450106626        1.97870851602195
H            4.06820810288021       21.43362690139152        2.31022594156408
H            5.60494519412396       21.24321640856812        2.21712585290228
C            6.98538138614895       25.97913498819189        4.93121380084972
H            7.26253264407044       26.48071263734396        5.85331999768604
H            6.78311030249777       26.70852381153455        4.15387932881008
H            7.76254772225374       25.29800333477467        4.60218650328158
S            5.43142335412434       25.05500500185222        5.19684159719872
H            5.94529892247798       24.21686805967266        6.10377289705679
