78
 energy: -116.058026185838 gnorm: 0.000029256168 xtb: 6.7.1 (edcfbbe)
Fe           8.59786306555540       -6.70040120718525       15.28732183255485
N            7.27436318490103       -8.08633598524135       14.74674871641132
N            7.11699752310214       -5.45817625492426       15.78668780104996
N            9.95066016187563       -5.28657650125811       15.77370170161727
N           10.09663336724392       -7.92184561640705       14.73414526188996
C            7.53602673386294       -9.33057528253452       14.27053535588555
C            6.30681911788332      -10.04474567202070       13.99762938283691
C            5.29453085203442       -9.19729160740762       14.31957746226464
C            5.92024526568583       -7.97960210994011       14.78998765127524
C            5.78263437512554       -5.70551550506838       15.70071867152508
C            5.01852323816464       -4.57478895698815       16.16310253481284
C            5.92910835638716       -3.62294743724561       16.53686150662739
C            7.23629704982199       -4.20625210082443       16.29849155227709
C            9.68790155681159       -4.05689575218308       16.29848513707058
C           10.90802731560780       -3.33504979258200       16.54688899951511
C           11.93119336847828       -4.16052270752356       16.15854392922492
C           11.30428963870840       -5.38105947863049       15.69278959279534
C           11.43160414346178       -7.66006181424686       14.78617524194147
C           12.19422067557988       -8.80358175317551       14.33821311596438
C           11.28711726366220       -9.76803130229753       14.02524329915982
C            9.98322699007308       -9.19829195180851       14.27891828101705
C            8.79308316317007       -9.86481479037059       14.05996294675989
H            8.85004787432631      -10.87585087817963       13.68686245565494
C            5.21538691770525       -6.87779366187973       15.23056279855351
H            4.13779074942818       -6.93253270157380       15.19857595987164
C            8.42473974269874       -3.54507143907659       16.53758503899549
H            8.36577052884744       -2.54217930160009       16.93164672176168
C           12.00259015668719       -6.47583548846834       15.21488701608447
H           13.07943624960566       -6.40929919205118       15.19012494831802
C            3.82145442368117       -9.40619029091686       14.23098783558008
H            3.59376010113960      -10.39427576916049       13.83873513334128
H            3.36990865300581       -8.66363054663866       13.57311940228482
H            3.35849482642226       -9.31278198397348       15.21402395541419
C            6.24234726875970      -11.43403448596024       13.46213163548376
H            6.75059193649957      -12.12778796025690       14.13232838375282
H            6.72610255752143      -11.49082072474067       12.48682660263010
H            5.21063825392189      -11.75867636664518       13.35129156586863
C            3.53362411853101       -4.52475399559809       16.26259543534043
H            3.13376549214557       -5.48755204054360       16.57790781638231
H            3.08847167694292       -4.27506886908663       15.29825974558381
H            3.23304946435078       -3.76887279362365       16.98544219083976
C            5.70070135391443       -2.30587739320696       17.08866350027213
H            6.43795913731716       -1.96409731642801       17.80624069970586
C            4.68476875217232       -1.50610044055011       16.78070006611908
H            3.95121892307915       -1.77167561688106       16.03981755740099
H            4.56875325727407       -0.53942420537021       17.24227236686904
C           10.99400022165930       -1.98630770650005       17.17115261237546
H           10.24937258777834       -1.87888399959506       17.95841476379589
H           10.81878409896622       -1.20246969661702       16.43223146564811
H           11.98156576679299       -1.83691236170521       17.60289536049574
C           13.35855300485927       -3.93303694641505       16.20595556166581
H           13.96663685993598       -4.80844082635277       16.40367075359040
C           13.95949635909648       -2.76231681399035       16.01945511841011
H           13.41171972179720       -1.86964883409970       15.77274239473841
H           15.03044173370369       -2.66262880041544       16.08242526936550
C           13.68223811751129       -8.84563576858890       14.26480918854859
H           14.11973487431055       -8.70289700356692       15.25342846013634
H           14.05763106602267       -8.05650701918765       13.61274109559809
H           14.02305802448634       -9.80180544082114       13.87554581520214
C           11.51576931688207      -11.14937131562013       13.51524522251088
H           11.09230446216553      -11.88467330442137       14.19966951000998
H           12.57865919362012      -11.35229103034318       13.40932773161084
H           11.04236709957572      -11.28210449667447       12.54207655805132
O            8.68825154585092       -5.84047894428808       13.16229930514660
H            9.09798384847368       -4.98645323289093       13.33780447666179
H            9.36853552540063       -6.40894784956235       12.78504628956596
C           10.18111220276809       -8.56371499726793       20.29686300038676
H           10.01088561802160       -9.61508724247222       20.52857094775319
H            9.90831851725384       -7.97346762079009       21.17156774355056
H           11.23767305212262       -8.41854291218595       20.09496943263437
N            8.01887843574050       -8.21461825060856       19.08254736341135
H            7.42867953356617       -8.53711032841994       19.83174787334305
C            9.38727242618573       -8.14920006512328       19.11260061320172
C            7.61348166567410       -7.76769139031631       17.87247280019549
H            6.58928673021834       -7.70669448459816       17.56629460405485
N            8.64163321943974       -7.42372197955432       17.13520646210186
C            9.75166508793596       -7.65556708857768       17.89284661365422
H           10.73127125902429       -7.45322520617375       17.51305678600059
