78
 energy: -115.924897941032 gnorm: 0.312248542518 xtb: 6.7.1 (edcfbbe)
Fe           8.66600000000000       -6.76000000000000       15.42300000000000
N            7.33500000000000       -7.98900000000000       14.65000000000000
N            7.13900000000000       -5.42600000000000       15.86600000000000
N            9.97400000000000       -5.33700000000000       15.87400000000000
N           10.17200000000000       -8.00200000000000       14.72700000000000
C            7.57000000000000       -9.34500000000000       14.18800000000000
C            6.32100000000000      -10.10000000000000       13.96800000000000
C            5.23100000000000       -9.19900000000000       14.36500000000000
C            5.92600000000000       -7.97700000000000       14.84000000000000
C            5.80300000000000       -5.62700000000000       15.82400000000000
C            4.93400000000000       -4.52100000000000       16.25000000000000
C            5.89500000000000       -3.53100000000000       16.61400000000000
C            7.19000000000000       -4.16900000000000       16.37000000000000
C            9.74000000000000       -3.98500000000000       16.34900000000000
C           10.99200000000000       -3.19300000000000       16.44900000000000
C           12.03400000000000       -4.13600000000000       16.04500000000000
C           11.38300000000000       -5.42400000000000       15.72800000000000
C           11.50100000000000       -7.79000000000000       14.81300000000000
C           12.39200000000000       -8.83800000000000       14.28800000000000
C           11.42700000000000       -9.81200000000000       13.82300000000000
C           10.12800000000000       -9.21900000000000       14.15100000000000
C            8.87400000000000       -9.88500000000000       13.87100000000000
H            8.91500000000000      -10.86100000000000       13.38800000000000
C            5.21200000000000       -6.83400000000000       15.30700000000000
H            4.12400000000000       -6.87800000000000       15.26900000000000
C            8.43100000000000       -3.46400000000000       16.66300000000000
H            8.36700000000000       -2.48900000000000       17.14600000000000
C           12.10900000000000       -6.60200000000000       15.35400000000000
H           13.19100000000000       -6.59800000000000       15.48800000000000
C            3.74400000000000       -9.46300000000000       14.36500000000000
H            3.55100000000000      -10.49500000000000       14.00300000000000
H            3.23500000000000       -8.74300000000000       13.68900000000000
H            3.34500000000000       -9.36200000000000       15.39700000000000
C            6.22500000000000      -11.50900000000000       13.44200000000000
H            7.03400000000000      -12.12700000000000       13.88800000000000
H            6.34100000000000      -11.50600000000000       12.33700000000000
H            5.24200000000000      -11.94700000000000       13.71900000000000
C            3.43800000000000       -4.45100000000000       16.28200000000000
H            3.02900000000000       -5.42300000000000       16.63300000000000
H            3.05000000000000       -4.24400000000000       15.26200000000000
H            3.11500000000000       -3.65000000000000       16.98100000000000
C            5.59300000000000       -2.19000000000000       17.16800000000000
H            6.03500000000000       -1.86600000000000       18.12200000000000
C            4.79200000000000       -1.36100000000000       16.53200000000000
H            4.33300000000000       -1.65200000000000       15.57600000000000
H            4.57200000000000       -0.36700000000000       16.94900000000000
C           11.13000000000000       -1.74300000000000       16.85400000000000
H           10.12600000000000       -1.32400000000000       17.07900000000000
H           11.58500000000000       -1.16300000000000       16.02300000000000
H           11.76400000000000       -1.66600000000000       17.76300000000000
C           13.48800000000000       -3.91800000000000       15.91200000000000
H           14.15100000000000       -4.75800000000000       15.65800000000000
C           14.03200000000000       -2.72900000000000       16.09000000000000
H           13.40600000000000       -1.86100000000000       16.34500000000000
H           15.11800000000000       -2.59100000000000       15.98600000000000
C           13.88200000000000       -8.90300000000000       14.19700000000000
H           14.31900000000000       -8.82800000000000       15.21600000000000
H           14.25800000000000       -8.05800000000000       13.58100000000000
H           14.18900000000000       -9.87000000000000       13.74400000000000
C           11.70500000000000      -11.11200000000000       13.12300000000000
H           11.82100000000000      -11.92100000000000       13.87600000000000
H           12.64500000000000      -11.02900000000000       12.53600000000000
H           10.85800000000000      -11.36400000000000       12.45000000000000
O            8.79900000000000       -5.88000000000000       13.33600000000000
H            9.31700000000000       -5.07900000000000       13.42000000000000
H            8.44700000000000       -6.20300000000000       12.58600000000000
C            9.65500000000000       -8.28700000000000       20.85900000000000
H           10.06200000000000       -9.31200000000000       20.99500000000000
H            8.85300000000000       -8.11600000000000       21.60800000000000
H           10.47500000000000       -7.55100000000000       21.00500000000000
N            8.07800000000000       -8.93600000000000       19.01200000000000
H            7.62500000000000       -9.64500000000000       19.55200000000000
C            9.08900000000000       -8.15000000000000       19.46500000000000
C            7.79100000000000       -8.60300000000000       17.72400000000000
H            7.00800000000000       -9.06400000000000       17.12400000000000
N            8.63800000000000       -7.62200000000000       17.34700000000000
C            9.44500000000000       -7.30600000000000       18.41300000000000
H           10.19100000000000       -6.52500000000000       18.34300000000000
78
 energy: -116.005275329820 gnorm: 0.138346927084 xtb: 6.7.1 (edcfbbe)
Fe           8.66014502029468       -6.74677030537708       15.40402911255520
N            7.31815366634340       -8.05008896101656       14.69858572659397
N            7.12151720989882       -5.41405271636473       15.88380707255206
N            9.99192121654766       -5.31276496202888       15.88088695555241
N           10.19074931442539       -8.01046838169771       14.73753554067549
C            7.57369070816792       -9.33846213304883       14.17775025159066
C            6.32259021005698      -10.06558997296696       13.98001023289626
C            5.27707693943023       -9.20322749786732       14.36925129336425
C            5.92809173001736       -7.97163726256377       14.82034520720361
C            5.78662394455287       -5.65046720983685       15.80225620516627
C            4.97218069804609       -4.52358952165912       16.24564466283568
C            5.90743649157038       -3.55185548396034       16.62335347359739
C            7.21716806323374       -4.15601266457037       16.39213461769147
C            9.74066204176894       -3.99757212738500       16.34251715508213
C           10.99108104073914       -3.23984664081505       16.43812307840786
C           12.01693338337944       -4.14018782709732       16.05272812511223
C           11.37377873229921       -5.41732304867097       15.74175266983418
C           11.51944787265553       -7.76529835456288       14.83298067140897
C           12.34599581257831       -8.84211351697813       14.28778583684208
C           11.41388027564893       -9.78646237567664       13.82954044781403
C           10.10230508662174       -9.22853727318527       14.14448593022029
C            8.85825635820347       -9.86124506528583       13.87804261913895
H            8.90277651162480      -10.83954804273109       13.40605303920489
C            5.22651023285022       -6.84686286702326       15.29554950484708
H            4.14215127882660       -6.89039054900630       15.27081853970985
C            8.45010921829324       -3.49117924420276       16.64727327818739
H            8.37810944490389       -2.51381048821834       17.12054335011481
C           12.08267084369784       -6.58091532979454       15.36091125713894
H           13.16315140302184       -6.58046754172330       15.47430303159759
C            3.78613640257269       -9.46022220089067       14.36447870271585
H            3.56260300291346      -10.47496692614759       14.00916676657467
H            3.25507517774905       -8.75607522805488       13.70543404859534
H            3.35933267183218       -9.35969987201242       15.37462507849078
C            6.22588400599861      -11.47707460354175       13.45516162076395
H            7.01774455113014      -12.11002872352568       13.88126249621157
H            6.33622430712602      -11.50214064328998       12.36023466809742
H            5.26008654756570      -11.93246812449988       13.71245041459371
C            3.47104855079154       -4.45514019862382       16.28247760882487
H            3.03948392648659       -5.40631764101956       16.62631026256164
H            3.06044373160461       -4.24702178014083       15.28273199630098
H            3.13070163624614       -3.66309873573453       16.96399756416603
C            5.60441897479423       -2.20922552352127       17.15589831556034
H            6.04630576331862       -1.89163151430424       18.10343376290920
C            4.79049071399811       -1.36860610239427       16.53065883358355
H            4.33495021089774       -1.63956222038780       15.58466663090319
H            4.56926529382515       -0.38481878459971       16.93866297481831
C           11.11790619173351       -1.78560087962380       16.84394948376471
H           10.14026161844703       -1.34178764815934       17.07299935706535
H           11.56538329552514       -1.18186308964488       16.03858341451814
H           11.74824677090560       -1.67569554257915       17.74099881142961
C           13.45905789998314       -3.91319479297061       15.91999364248452
H           14.10995831879603       -4.75240530762884       15.66249982139943
C           14.03230480705982       -2.72492337168629       16.09266872036649
H           13.43920352742732       -1.85957640117764       16.34163833632919
H           15.10465038775027       -2.59067976164394       15.98693122820000
C           13.84557579566020       -8.90065488111787       14.20169328504495
H           14.30693085712484       -8.82881816072407       15.19851299090451
H           14.24567177583817       -8.07462354105218       13.59346183124432
H           14.17515013952212       -9.84743577000562       13.75279298190132
C           11.69697169428305      -11.09033568744450       13.13621755755445
H           11.81741771139527      -11.90691751786220       13.86432403150417
H           12.62312568649448      -11.02787873379952       12.54845023898194
H           10.87544128876502      -11.35946107566575       12.46036547636090
O            8.79998781740032       -5.86925830102387       13.35823361427868
H            9.32041989391521       -5.06929980903013       13.40313267742728
H            8.44064493864714       -6.20358481031841       12.55805867070455
C            9.65265087842013       -8.28545454117854       20.84805746242850
H           10.05685713116941       -9.29606473916224       20.99487882713977
H            8.86858613083724       -8.11667451887118       21.59777519556725
H           10.45912759917851       -7.56207050111715       21.00206056627385
N            8.08133944939568       -8.93003754650803       19.00995517920087
H            7.62310357474602       -9.64416934391965       19.55083509265114
C            9.09700098553240       -8.14512267235634       19.46275409734893
C            7.80782337152173       -8.59154793899222       17.72549103528769
H            7.03192675281496       -9.04939680894616       17.13186706402642
N            8.62632041178253       -7.61821562714784       17.34029692509529
C            9.43155168086659       -7.32174365101393       18.40734116780934
H           10.17404139851183       -6.54466083962406       18.34053058309909
78
 energy: -116.033320118933 gnorm: 0.038442041476 xtb: 6.7.1 (edcfbbe)
Fe           8.65372426129707       -6.74156184197579       15.38939789109003
N            7.30444083957304       -8.08214200375226       14.69864645964964
N            7.11593961497957       -5.41207828377415       15.88948740586929
N           10.00459776184701       -5.29632799015138       15.88849811311307
N           10.19731052169000       -8.00999538844728       14.74714075557833
C            7.57321442789465       -9.32860514030749       14.19973451224919
C            6.32135545974414      -10.03910895246491       13.98650605226783
C            5.31493509463758       -9.20642228088952       14.36468990028662
C            5.94409523318585       -7.97877339885579       14.82434802407497
C            5.78502750346996       -5.67337669884581       15.78215031857162
C            5.00908946160419       -4.53085464483769       16.23650991043518
C            5.92008353542108       -3.57861848376466       16.62575621682603
C            7.24407271392491       -4.15965998298542       16.40742529452454
C            9.74294992675714       -4.01841937820091       16.33466929541279
C           10.98504465496197       -3.27451622547746       16.43288376072534
C           11.99683280366628       -4.13978274463738       16.06622231120669
C           11.35848220573397       -5.41173425339214       15.75234568477789
C           11.52418010521799       -7.74391642379791       14.85182256208243
C           12.30294705695876       -8.84293383394673       14.29042452719666
C           11.39765366130526       -9.75888885328415       13.83858888894816
C           10.07377732801180       -9.22609990541378       14.14631366453109
C            8.84109681858273       -9.83501616320434       13.90232260539266
H            8.88414512060324      -10.81069194162090       13.42847355866382
C            5.25075369211404       -6.86485985743617       15.29442179675098
H            4.16844216263462       -6.91028725472909       15.26992112198752
C            8.46629094996503       -3.52606219650394       16.63283615778292
H            8.39353330313645       -2.53940453291258       17.08319129462820
C           12.05225862562363       -6.56327142706656       15.36519581929733
H           13.13337581651295       -6.55307508269576       15.44907187774007
C            3.82664588537356       -9.45782878857072       14.36342249476480
H            3.59233714356498      -10.46181813149850       14.01078844312202
H            3.29589186846903       -8.75615650636935       13.71453352297890
H            3.39614440521200       -9.35356290539175       15.36354031503360
C            6.22668624986668      -11.44884176872711       13.46510697518264
H            7.00914858226735      -12.08159655506938       13.88679149157779
H            6.33578586011071      -11.48062106764797       12.37781187077113
H            5.26838382594570      -11.90413212654091       13.71235246563638
C            3.50717087031582       -4.45871842580386       16.28102511202173
H            3.06983293480398       -5.39816043639992       16.62354311659275
H            3.08766102143770       -4.25063885352704       15.29265855607213
H            3.16664709697854       -3.66894543389996       16.95187546523692
C            5.61593227174884       -2.23750677079473       17.14017210828411
H            6.07182581972362       -1.92749694627658       18.07681550188391
C            4.79556208191338       -1.38605504210360       16.53012175608451
H            4.33430465700379       -1.63540496375555       15.59101441905214
H            4.57456869558215       -0.41044978433191       16.93445372518604
C           11.10206338846148       -1.82413862606315       16.83624324322342
H           10.13536931642604       -1.38058769978408       17.06653231034897
H           11.54376362553047       -1.21804309269495       16.03926801061725
H           11.73389268689674       -1.70646016672701       17.72242164079201
C           13.42503362586392       -3.90340509575202       15.93416327635319
H           14.05558582333635       -4.74780506359256       15.67068407735488
C           14.03004020245388       -2.72422625637998       16.09653004575878
H           13.47304080573982       -1.84713194697700       16.34257898065929
H           15.09395565479465       -2.60374449320203       15.98365456028552
C           13.80653860709967       -8.89820790994628       14.20696704386185
H           14.27194925283736       -8.82637306960934       15.19307339728942
H           14.21050986840898       -8.08101301498660       13.60288327400315
H           14.14389934602741       -9.83309382786946       13.75935347558068
C           11.68473996409250      -11.06449378266198       13.14987097344617
H           11.80735100003361      -11.88013929916491       13.86772423429446
H           12.60365435547029      -11.00995083101030       12.56494786736038
H           10.87847485806227      -11.34226732078925       12.47283967364433
O            8.77771687478027       -5.85334625438988       13.37873679935526
H            9.32235918786487       -5.06401898269493       13.36385261415163
H            8.45056563736404       -6.19446861106632       12.54514268427257
C            9.65236975995229       -8.28281005931521       20.83709693711966
H           10.05313762110255       -9.28530222299367       20.98902300848346
H            8.87657744228361       -8.11474528010482       21.58415006089868
H           10.44950706942913       -7.56546143227746       20.99557769274589
N            8.08197855329378       -8.92787475094657       19.00791169550272
H            7.61968153959406       -9.64454052582488       19.54652276144922
C            9.10488682318590       -8.14096671349430       19.46005396520325
C            7.82005261528040       -8.57969636585167       17.72841327109669
H            7.05219559699583       -9.03653552133425       17.13705156922830
N            8.61907307260408       -7.61717630008732       17.33688851795972
C            9.42182587538313       -7.33125487675282       18.40378290413286
H           10.16403001797787       -6.56030093357438       18.33903631238413
78
 energy: -116.042234128534 gnorm: 0.030658289179 xtb: 6.7.1 (edcfbbe)
Fe           8.65584507506816       -6.73614318856092       15.38843213581001
N            7.30987790523158       -8.09515701336323       14.73710058413412
N            7.12752972477409       -5.43326497206800       15.89286114658313
N           10.00661722634287       -5.30226123934659       15.89552703658063
N           10.18176450368085       -7.99778591747998       14.76338672923397
C            7.57365426738445       -9.31838493113062       14.20175714024005
C            6.32970622884133      -10.03877123154899       13.98911430795095
C            5.32518704002766       -9.20625315807261       14.37066923517397
C            5.95353008830208       -7.97995237721321       14.82525806739168
C            5.79910426783762       -5.69179685644539       15.77833347332702
C            5.03201114154851       -4.54606539210097       16.22676293269751
C            5.93809198176627       -3.60054164046799       16.61951255292224
C            7.25943429612234       -4.18275065136084       16.40763978406806
C            9.74115529064622       -4.03585834229347       16.33385138815587
C           10.97078583460689       -3.28506172634325       16.43879299237582
C           11.98853585404093       -4.13874612185732       16.07828262292148
C           11.35240328393233       -5.41038277130757       15.76124396829750
C           11.50758637969438       -7.72998351742330       14.86512209802243
C           12.27623970794829       -8.83042183901680       14.30229511164408
C           11.37367232053234       -9.74211551080384       13.84918603551198
C           10.05373183956207       -9.21107218918081       14.16194563921840
C            8.83460760612599       -9.82321905961619       13.91013359013619
H            8.87380147750770      -10.80144794758947       13.44677230119872
C            5.26001063359888       -6.87364799633091       15.29029000859607
H            4.17944458413781       -6.92961660656627       15.27049875085541
C            8.47065851228319       -3.54275365925481       16.62156577669080
H            8.40405410435293       -2.54530782097600       17.04336557746807
C           12.04110225490747       -6.55157264921614       15.36188895214098
H           13.12364615023351       -6.52058969076768       15.40958150069607
C            3.84778240869715       -9.45350191117526       14.36386874967380
H            3.62289267531422      -10.45691500720402       14.00970170418323
H            3.33515381229882       -8.74469625112893       13.71278855067672
H            3.43024182688180       -9.34408777039388       15.36585521533964
C            6.23207965212550      -11.43782066911092       13.46638961168705
H            7.01315322402707      -12.06390414739685       13.89438160372025
H            6.34126772365512      -11.45711465437682       12.38105230725140
H            5.26948899588171      -11.87953881104906       13.71480266207608
C            3.53779149963693       -4.46498472126595       16.27487651030984
H            3.10552247575693       -5.40190339447136       16.62525012268823
H            3.12311592837943       -4.25850911886148       15.28636827381731
H            3.21616933501414       -3.66729957866588       16.94325735238693
C            5.64004262452877       -2.26332752034415       17.12649168284563
H            6.12033098516208       -1.96210151734753       18.05232980561651
C            4.81007449310990       -1.41179060078476       16.53199885044569
H            4.33166631042192       -1.65129181940305       15.59747395289282
H            4.59120225913314       -0.43927154648005       16.94192441492164
C           11.07543661854629       -1.84532242571393       16.83640694640109
H           10.10364086312946       -1.42130817484297       17.07086324602672
H           11.50601653889130       -1.25046881990411       16.02863494996367
H           11.71630915029659       -1.73643245758400       17.71391460653804
C           13.40784709640359       -3.89641342439650       15.94764558405249
H           14.01488538640820       -4.75348356962553       15.68056419890991
C           14.03635815559366       -2.72876930909603       16.10163509171764
H           13.51299065995932       -1.82739395074978       16.35117868075887
H           15.10112825176578       -2.63368784395475       15.97381386618704
C           13.77229012303423       -8.88901424301797       14.21613719100125
H           14.22800423151951       -8.81726524220007       15.20416289566638
H           14.16460070068230       -8.07040674777910       13.61041537828193
H           14.10009308456211       -9.82441152938032       13.76667128561281
C           11.66238324280510      -11.04213556069011       13.16139217589391
H           11.78505759948727      -11.85111194525281       13.88451804964189
H           12.58278539499376      -10.97898968657263       12.58197931410508
H           10.85866077332455      -11.31822793073479       12.48275220739873
O            8.71531820314095       -5.80461416531669       13.38572985087893
H            9.34161884749058       -5.06512152613189       13.31084027213510
H            8.47210471149654       -6.19365139022449       12.53344855058313
C            9.65433751817225       -8.27822554562875       20.82772339718828
H           10.05502794331414       -9.28008380707989       20.98158106536717
H            8.87766746801841       -8.10817211215929       21.57286108770630
H           10.45013578659965       -7.55888081006469       20.98527353990286
N            8.08123796231289       -8.92801333486100       19.00349437508894
H            7.61739802139880       -9.64355989433558       19.54067438280862
C            9.10791544306287       -8.13956949743838       19.45308907165711
C            7.82192420997623       -8.57620927058799       17.72540904677236
H            7.05765544555322       -9.03376619635237       17.13263015580999
N            8.61698405097048       -7.61353776256658       17.33268853234812
C            9.42288550491966       -7.33144129167661       18.39717599187081
H           10.16753520110707       -6.56532547691771       18.33271220114939
78
 energy: -116.046611199434 gnorm: 0.044843315642 xtb: 6.7.1 (edcfbbe)
Fe           8.65176853509125       -6.73481363477999       15.38578210657276
N            7.31606318801208       -8.08956301638809       14.74570714713783
N            7.14639415732300       -5.46683270931143       15.90240078219292
N           10.00239636336896       -5.31974319767399       15.89769370001879
N           10.15701905428171       -7.97418551000003       14.77558316431439
C            7.57613500858167       -9.31446929200250       14.22489790486871
C            6.34075127325428      -10.03567460994955       13.99004023655717
C            5.33400200772468       -9.20168809721698       14.37389957614033
C            5.96555621696355       -7.98636141296958       14.84107392606830
C            5.81867631866216       -5.71341094424774       15.78291967369863
C            5.05416543365609       -4.56546644102622       16.21557766822729
C            5.96078677154332       -3.62295575331517       16.60911655578531
C            7.27397708701346       -4.21390517011653       16.40492596358950
C            9.73635124682456       -4.05641044929514       16.33304355933025
C           10.95399793765985       -3.29578704803432       16.44626260875360
C           11.98084140557658       -4.14120233793405       16.08891402305939
C           11.34817982589267       -5.41280651177102       15.76665068153363
C           11.48432849572967       -7.71428777945536       14.87251456834202
C           12.24975759890919       -8.81181071188040       14.31411561264863
C           11.34498801307886       -9.72382619829435       13.86247174808174
C           10.03408927438669       -9.18905617346377       14.18121911779417
C            8.83054567340383       -9.82179950020965       13.93246628392818
H            8.86702834630672      -10.79558254536847       13.46586424526787
C            5.26593978951769       -6.88875912056942       15.30335788459125
H            4.18747244158289       -6.94799518444830       15.27225581729990
C            8.47128040342079       -3.55674222251406       16.61029645786666
H            8.40763147886934       -2.54980136390450       17.00244229659119
C           12.03658818746040       -6.54123839061992       15.35133374080667
H           13.11775064350029       -6.49507523816297       15.36648099131540
C            3.86544691955693       -9.44559486682466       14.36351806415215
H            3.64447814473749      -10.44814696977124       14.00672990923026
H            3.36399982552332       -8.73191784233631       13.71131319608878
H            3.45280693413028       -9.33537142165213       15.36613808654391
C            6.24064120270682      -11.42555056535594       13.46462651925799
H            7.01512709843857      -12.05448319474895       13.89856787301946
H            6.35523325704807      -11.43897427570453       12.38058763500922
H            5.27239855591075      -11.85719775495965       13.70854653543106
C            3.56768981109921       -4.47494037334056       16.26557164464785
H            3.13535701031811       -5.40674833701832       16.62760744262769
H            3.15593129346249       -4.27387272016162       15.27602553941433
H            3.26452061561020       -3.66603503524727       16.92872864984301
C            5.67498999006198       -2.28875269530787       17.11184537022896
H            6.18865953705794       -1.99411612932417       18.02243383976423
C            4.82770797466712       -1.44208240402790       16.53810944006960
H            4.32462471040079       -1.67797829289372       15.61346838440413
H            4.61836852185295       -0.46897274082490       16.95218574726594
C           11.05029835493568       -1.86479300593216       16.83951185089330
H           10.07565478939994       -1.45377480335039       17.08326919164722
H           11.46831643138675       -1.27605304521691       16.02245643374734
H           11.70075600006392       -1.75591620424546       17.70770897536249
C           13.39321128566831       -3.88987679561093       15.96145930848097
H           13.98286245926193       -4.75743194463621       15.69388241630352
C           14.03929789958521       -2.73322714312319       16.10866095357971
H           13.54865951299311       -1.81016581075542       16.36278988038845
H           15.10664342368110       -2.66689218793200       15.96942346968346
C           13.73777034707273       -8.87397023608274       14.22867262447822
H           14.18581759289285       -8.80211254314561       15.21895595873268
H           14.12389244238708       -8.05455159387090       13.62185112688967
H           14.05756415715007       -9.81124476152001       13.77934827124487
C           11.63233401580626      -11.01916850482762       13.17697054463580
H           11.75314013880208      -11.82416404732023       13.90404681023441
H           12.55448139521094      -10.94959620396728       12.60149921540023
H           10.83011129110262      -11.29270113316345       12.49620246059201
O            8.63573213402642       -5.74463485728999       13.38471555215379
H            9.35128871231149       -5.07773708271466       13.26996816796839
H            8.52269347348161       -6.19533785457425       12.50962217258343
C            9.65775841366709       -8.27070880478858       20.81634296306134