87
 energy: -124.720040173238 gnorm: 0.000027590960 xtb: 6.7.1 (edcfbbe)
Fe           2.76438596387416       20.95122054859550       13.02374246058010
N            4.17218462513233       19.82106136528246       12.16682502391984
N            3.36476137482079       20.32518919242299       14.82999366917972
N            1.37734469770740       22.11439360778785       13.89453322797152
N            2.19136992242928       21.61527020294362       11.22189224081069
C            4.44952027958114       19.73032660035362       10.84036089626182
C            5.53180057819115       18.79816886379877       10.60639608497044
C            5.89791758682667       18.32599616317576       11.82667682719666
C            5.03925859341572       18.98267047495022       12.78886359826948
C            4.35370990724888       19.43287406277531       15.09900498877129
C            4.49517089831067       19.24059910976681       16.52550786745051
C            3.56880962557317       20.04536816285874       17.11210993561465
C            2.87501693192013       20.71629737385509       16.03555700524005
C            1.16889404535880       22.28188944242424       15.22472351160397
C            0.10804048603954       23.24153979179057       15.46106232280042
C           -0.29119837626044       23.67466777483975       14.22403351037954
C            0.51592344124047       22.96308173812108       13.26706906424126
C            1.17248537330647       22.47261347281868       10.95143966369226
C            1.05182246534797       22.68588475683156        9.52250656681221
C            2.06320489782494       21.96334321750197        8.94926141320370
C            2.74528758000065       21.29240814783205       10.02445421394621
C            3.80269703405324       20.41943894548104        9.83606261224672
H            4.13778985296406       20.25844942891863        8.82284734283805
C            5.13115509383316       18.78875045424846       14.15421338566789
H            5.87324434730419       18.09094438059357       14.51137947352423
C            1.85063080366833       21.62271325847585       16.23132678929635
H            1.56519564311070       21.83428330331698       17.25032190688636
C            0.40865141274648       23.12957211627743       11.89666218518126
H           -0.31617949452445       23.84210249054091       11.53539108182897
C            6.07976624202207       18.46659395678800        9.26092687495272
H            6.46076490065674       19.36255105330215        8.77003063265388
H            5.30279016285223       18.03859974490240        8.62734207885078
H            6.89169529785408       17.74771456727700        9.33969105466656
C            6.95561594351934       17.33724370573912       12.18050048909875
H            6.52142924918628       16.48431553885105       12.70223972543898
H            7.70291981529674       17.78847866210346       12.83430734126484
H            7.45817969667020       16.97268123768234       11.28801829483462
C            2.39117385297177       21.81730340750401        7.50371862489212
H            2.22831974781700       20.79018612562565        7.17508348218440
H            3.43628118597830       22.06768822304817        7.32004807183931
H            1.76458061116987       22.47021864412069        6.90109734035590
C            0.05642182494471       23.48558741511869        8.83848098533188
H            0.41774705822229       24.03928219248997        7.97822978892563
C           -1.23271181240310       23.55147202616900        9.15167187878987
H           -1.65515469769025       22.97954050842725        9.96062810916525
H           -1.91859535540841       24.16436124282340        8.59056463812413
C           -1.30038445000479       24.71671145251853       13.88868512215300
H           -2.25440241564772       24.26290722582916       13.61408446960567
H           -0.96437569848810       25.32427743356986       13.04962709521728
H           -1.46433654676649       25.36622513072914       14.74625049795153
C           -0.36535152870442       23.64331884831991       16.76683582814302
H            0.38033730214391       23.65082827552471       17.55353731122019
C           -1.61537469353411       23.98468094306020       17.06278687184401
H           -2.40707231122180       23.95021943818363       16.33484660209421
H           -1.89591615113057       24.28751058859976       18.05802702680048
C            3.26937779711323       20.24289969335686       18.55833918157494
H            2.23561521542548       19.97293789546891       18.77588114348775
H            3.41237933865970       21.28621542515132       18.84109248418977
H            3.92035385157868       19.62879234485772       19.17584902633272
C            5.48141254335045       18.31777059898743       17.15572071720342
H            5.39293345977933       18.33885949778014       18.23912177045095
H            6.50008082653748       18.60169553261903       16.88942658295712
H            5.31768838460965       17.29393138266049       16.81831660512823
C            5.31491608963971       25.91081997562532       12.85308329234050
H            6.13151016031156       26.04051030185184       12.14285759484968
H            5.61023440524476       26.36553462106819       13.79867410390522
H            4.43959363408247       26.43017264725885       12.47580972786826
N            5.91785899864863       23.56713163860145       13.49857681208625
H            6.86966324255841       23.77364502891494       13.75360045313149
C            4.99825520867875       24.47178414500218       13.03592252156262
C            5.31443725111040       22.35847353577176       13.54819529531265
H            5.79564238585566       21.45929095390975       13.87296812616985
N            4.07019121693070       22.44293836363848       13.14573054458342
C            3.85845630789678       23.75068215695789       12.82347115069672
H            2.90786182368561       24.08442168321418       12.46277612551724
C            1.31955159577096       17.56019046941612       15.10884452806421
H            0.91587461316022       17.34248648244772       16.09570923407832
H            2.36394503413907       17.83853402279475       15.21393621653660
H            1.26169422272932       16.66226433365230       14.49818011275392
C            0.53691418778525       18.68784492597038       14.46461915250363
H            0.57373052450429       19.59168219634082       15.07031219592246
H           -0.49976533276426       18.39310331471960       14.30180674233402
S            1.23967195180366       19.08537280877805       12.81141480698416
C           -0.27947503408361       19.73212712379485       12.04751639195461
H           -0.64074182789592       20.58469909041568       12.61371447451333
H           -1.02349169415048       18.94043587967071       12.01439714150798
H           -0.02261320404490       20.04213589243509       11.04065663678702
