78
 energy: -115.973457294508 gnorm: 0.249534108429 xtb: 6.7.1 (edcfbbe)
Fe          45.44200000000000       54.81600000000000        8.35600000000000
N           45.26600000000000       56.57700000000000        7.42400000000000
N           44.81799999999999       53.75200000000000        6.68000000000000
N           45.51700000000000       53.01700000000000        9.30000000000000
N           45.93200000000000       55.78900000000000        9.90900000000000
C           45.54700000000000       57.84500000000000        7.86000000000000
C           45.33800000000000       58.79399999999999        6.84300000000000
C           44.95900000000000       58.11500000000000        5.73500000000000
C           44.90400000000000       56.74900000000000        6.08900000000000
C           44.51500000000000       54.36400000000000        5.49700000000000
C           44.12000000000000       53.38900000000000        4.61100000000000
C           44.22000000000000       52.19300000000000        5.25400000000000
C           44.64399999999999       52.45300000000000        6.61700000000000
C           45.23400000000000       51.73600000000000        8.89900000000000
C           45.15300000000000       50.91800000000000        9.98400000000000
C           45.48400000000000       51.63000000000000       11.11600000000000
C           45.75400000000000       52.93700000000000       10.68500000000000
C           46.08799999999999       55.31300000000000       11.15900000000000
C           46.36400000000000       56.39599999999999       12.13600000000000
C           46.28200000000000       57.51900000000000       11.43400000000000
C           45.99000000000000       57.14899999999999       10.05500000000000
C           45.88000000000000       58.15500000000000        9.13700000000000
H           46.05700000000000       59.18900000000000        9.42700000000000
C           44.58299999999999       55.73400000000000        5.19200000000000
H           44.36600000000000       56.02700000000000        4.16500000000000
C           44.86399999999999       51.42799999999999        7.59600000000000
H           44.73799999999999       50.38400000000000        7.31100000000000
C           46.06500000000000       53.97500000000000       11.54400000000000
H           46.30499999999999       53.73299999999999       12.57900000000000
C           44.70699999999999       58.68399999999999        4.35800000000000
H           45.50899999999999       58.35000000000000        3.66600000000000
H           44.70999999999999       59.79399999999999        4.40400000000000
H           43.72800000000000       58.32299999999999        3.97600000000000
C           45.55700000000000       60.27500000000000        6.95300000000000
H           46.23600000000000       60.48699999999999        7.80600000000000
H           44.58600000000000       60.78599999999999        7.13000000000000
H           46.02200000000000       60.65599999999999        6.01900000000000
C           43.70699999999999       53.57599999999999        3.16500000000000
H           44.09699999999999       54.54599999999999        2.79000000000000
H           42.59900000000000       53.58000000000000        3.08900000000000
H           44.12700000000000       52.75500000000000        2.54500000000000
C           43.84200000000000       50.85500000000000        4.85300000000000
H           44.31799999999999       49.98799999999999        5.33500000000000
C           42.93300000000000       50.61499999999999        3.91500000000000
H           42.42700000000000       51.44599999999999        3.40200000000000
H           42.67400000000000       49.58199999999999        3.64000000000000
C           44.82200000000000       49.45499999999999        9.87000000000000
H           44.84600000000000       49.15200000000000        8.80100000000000
H           43.80500000000000       49.26799999999999       10.27500000000000
H           45.57099999999999       48.85600000000000       10.43100000000000
C           45.55599999999999       51.17200000000000       12.53400000000000
H           45.86500000000000       51.86799999999999       13.32800000000000
C           45.24900000000000       49.91500000000000       12.87400000000000
H           44.93500000000000       49.18999999999999       12.10800000000000
H           45.30599999999999       49.59100000000000       13.92400000000000
C           46.67600000000000       56.34999999999999       13.63400000000000
H           47.03400000000000       55.33400000000000       13.90700000000000
H           45.75699999999999       56.57700000000000       14.21600000000000
H           47.47000000000000       57.08900000000000       13.87500000000000
C           46.43600000000000       58.90000000000000       11.96100000000000
H           47.46000000000000       59.26900000000000       11.74000000000000
H           46.28200000000000       58.90100000000000       13.06100000000000
H           45.69800000000000       59.57200000000000       11.47400000000000
O           43.49100000000000       54.81000000000000        9.13200000000000
H           43.35300000000000       53.93400000000000        9.49100000000000
H           42.90400000000000       55.47800000000000        9.13300000000000
C           50.82800000000000       53.32800000000000        7.41400000000000
H           51.55700000000000       53.97500000000000        7.94700000000000
H           51.18200000000000       53.16699999999999        6.37300000000000
H           50.75500000000000       52.35499999999999        7.94500000000000
N           49.28299999999999       55.22199999999999        6.81200000000000
H           49.99500000000000       55.74200000000000        6.34200000000000
C           49.47600000000000       54.00200000000000        7.39500000000000
C           48.01499999999999       55.59899999999999        6.96900000000000
H           47.59900000000000       56.52500000000000        6.57300000000000
N           47.36900000000000       54.68000000000000        7.66900000000000
C           48.27000000000000       53.65699999999999        7.93000000000000
H           47.96400000000000       52.77300000000000        8.47600000000000
78
 energy: -116.022967898769 gnorm: 0.098542401083 xtb: 6.7.1 (edcfbbe)
Fe          45.46413835817489       54.82471049871364        8.35376926178952
N           45.25376878833107       56.57804280369911        7.40455793997917
N           44.82601585050266       53.78724131523634        6.71078240685450
N           45.52649963711554       53.04534576790410        9.32464019623795
N           45.92922447475017       55.80522121213981        9.93881687622327
C           45.52836830627397       57.83992458895335        7.84631673461339
C           45.34322107543685       58.80594920116138        6.82084730315592
C           44.95962285361704       58.11878526162153        5.71290943649024
C           44.90815327509622       56.73883090799564        6.08144760007844
C           44.52172886556309       54.36559116086203        5.50987962752415
C           44.11966500982193       53.36532670700479        4.59733707894232
C           44.21060878134840       52.16727543554055        5.25559654975494
C           44.66775965596598       52.46375832852657        6.60616401620966
C           45.21416889511377       51.77694724148370        8.89959347361644
C           45.16923894191102       50.89268420885178        9.99223859521961
C           45.49506825498645       51.60621715698240       11.12809195535415
C           45.74148860792918       52.94030928539922       10.68747317779106
C           46.11875858396716       55.30941901932488       11.18431638117924
C           46.37133879798860       56.38342518282069       12.15314900879341
C           46.28582027886702       57.52534701247230       11.44907632706106
C           46.00974866120814       57.16011012452304       10.07774532904207
C           45.88446005044494       58.14642311269797        9.13613557681969
H           46.05259776289012       59.17493003533187        9.42125482063530
C           44.58561244815014       55.72214198622910        5.20417971679299
H           44.36141182042461       56.01415683430844        4.18455135339349
C           44.86961692738014       51.47719839222441        7.58422977129318
H           44.73230831911394       50.43724867806915        7.30527133628082
C           46.07410320931486       53.97705226334047       11.54247280050979
H           46.29339452371904       53.73254286714631       12.57242391086548
C           44.70298446631892       58.68055673084413        4.35203981283229
H           45.49257846301197       58.35539548880261        3.66423084595894
H           44.70224027407817       59.77363844654003        4.39366272497876
H           43.73785289236773       58.33365224644817        3.97067431668716
C           45.56021842872208       60.27774435646042        6.95141887988590
H           46.22730487322931       60.49626590175991        7.79060065631124
H           44.60505001062215       60.78874205887791        7.12376484122152
H           46.01396628327827       60.66666391387469        6.03509503561023
C           43.71235063862412       53.57445002826480        3.16741334210102
H           44.09178010325285       54.52889944306532        2.78867585430966
H           42.61919486260232       53.58517430842288        3.08130728262341
H           44.11376813154036       52.76638575763417        2.54779967116317
C           43.84041990566701       50.84139657563968        4.83393431749995
H           44.31385503760007       49.99723819182852        5.33042714616346
C           42.92927188236047       50.59935963085756        3.89855786017950
H           42.41510751098623       51.41154299700447        3.40354852069671
H           42.66247533000156       49.58609864223781        3.62988918757207
C           44.82601592883184       49.44442009938328        9.86292530967732
H           44.83929114814411       49.14192564152069        8.81413887002396
H           43.82352757871651       49.25435798553824       10.26702113370795
H           45.56477452364771       48.84108207691362       10.39882215892546
C           45.55495578603219       51.15491468126564       12.51962005674168
H           45.85907245728678       51.86395401600952       13.28908803626378
C           45.24765340670878       49.91361628275966       12.88950964786908
H           44.92454010348462       49.18557095146558       12.16639031046609
H           45.30809590342614       49.59749257917836       13.92293319457995
C           46.67347978703422       56.32535016166143       13.62618310046314
H           47.03179725668875       55.33532332338036       13.91518912337354
H           45.77439175289581       56.56435638599876       14.20753485380230
H           47.44885392963577       57.06201134789863       13.86806126248826
C           46.43777359485376       58.90998454220106       11.96289389196345
H           47.44741945496967       59.28065856720766       11.74725531815256
H           46.28299916955714       58.91736063402748       13.04504501484087
H           45.70934885290914       59.57751344824599       11.49271698648392
O           43.49005973780223       54.80013429395547        9.12055117465899
H           43.32949534424668       53.93564743815451        9.49960160069900
H           42.85998846627886       55.49701805004210        9.13978773423991
C           50.82070432828134       53.33179513386607        7.41382664923752
H           51.54932211772527       53.96206228316738        7.93748347376868
H           51.17888173934129       53.16466465304521        6.39140650647104
H           50.75345519634790       52.37248289020096        7.93245973043137
N           49.29735089393741       55.21929145688395        6.80595394591856
H           50.00985886508725       55.74394373536774        6.33102196556962
C           49.48372947749169       54.00146727786908        7.39885739685161
C           48.01944724149726       55.59098447235264        6.97898530140341
H           47.60358629462265       56.50526990307686        6.58937042396499
N           47.37281475510535       54.67745132282946        7.67011347166029
C           48.27071230191835       53.66973337733013        7.93055790837294
H           47.96527249582283       52.79279967807452        8.47038558863255
78
 energy: -116.038464462220 gnorm: 0.030964126832 xtb: 6.7.1 (edcfbbe)
Fe          45.46908989994149       54.82368079594436        8.34629216176243
N           45.24926183321898       56.57784936977239        7.38384938903515
N           44.84578904703572       53.81487309873950        6.72482345275708
N           45.52895914695998       53.06878538066847        9.35549613839345
N           45.93881557593643       55.81820109631636        9.96100336490609
C           45.51436981246347       57.83226389734224        7.83529522257322
C           45.34876109364342       58.81231167962385        6.80132271820661
C           44.96399979238597       58.12160502182180        5.69286248052057
C           44.91342390323378       56.73118204208796        6.07249329052016
C           44.53157280674851       54.36420170999607        5.51540178555161
C           44.12193962231820       53.34781399245851        4.58851618855793
C           44.20754376388684       52.15349816832068        5.25958707136981
C           44.68712275817195       52.47644069557219        6.59719091793399
C           45.20530622695488       51.81651495737137        8.90322569140115
C           45.18758378709259       50.87834308964073        9.98851101436459
C           45.50672424567085       51.58547966382923       11.13049923393648
C           45.73601791666381       52.94300500241989       10.69332298295344
C           46.14862751605385       55.31029772372962       11.20676343055796
C           46.39038457877844       56.37526992185835       12.16491993009942
C           46.29857270242632       57.53136193571662       11.46400823810226
C           46.02930727074546       57.16857541074477       10.09850636690613
C           45.88354548270766       58.13290730224119        9.13031561026663
H           46.04470917602035       59.16023728163492        9.40754971831643
C           44.58529991105370       55.71128573201598        5.20661577147928
H           44.34829379083375       56.00191156464331        4.19346739734120
C           44.87481327614709       51.52753083419837        7.58314240157107
H           44.71914248958924       50.49111671982371        7.31590101898601
C           46.08133979109120       53.97811593288762       11.54711744297409
H           46.27960052023646       53.72995326309157       12.57697125926870
C           44.69857945488940       58.67564065396359        4.33901282390933
H           45.47674734436879       58.35690880147727        3.64590745170771
H           44.69304492782568       59.76046661950297        4.37775712180127
H           43.73897051064054       58.33652035941984        3.95925519775018
C           45.56248407038917       60.28033055561313        6.94560626077883
H           46.22305427762854       60.49938936781810        7.77846086638447
H           44.61540612979299       60.79098942476644        7.11869086328050
H           46.00837922051918       60.68342500381483        6.04019222000576
C           43.71727559692808       53.57298045656770        3.17102942570534
H           44.09861527351510       54.51763020468663        2.79383806003653
H           42.63130087565070       53.59372105107401        3.07827448487110
H           44.10079721901552       52.76890812427006        2.54747531546206
C           43.83591585512526       50.83345750973216        4.82380250864811
H           44.31777535264371       50.00423870957648        5.32366016527895
C           42.92169617612675       50.58312552159580        3.89008349504820
H           42.39780108972265       51.37772898954849        3.39758228125869
H           42.66203670632705       49.57900967424829        3.61381163206307
C           44.83652494039129       49.43830672637579        9.84424200863362
H           44.83292769042381       49.14043568424225        8.80241446875293
H           43.84509289144221       49.24381933453229       10.25623384326183
H           45.56384928968089       48.82240235961956       10.36736877942834
C           45.55970772213636       51.13658167152306       12.50011763761016
H           45.86550117561392       51.86281150506102       13.24388693564566
C           45.24528978243086       49.90890217239431       12.91124706292269
H           44.90986241752449       49.16015471319555       12.22807837304708
H           45.30862211112942       49.61518744374047       13.94236355521005
C           46.67573405232015       56.29747036219167       13.62408969718677
H           47.02867253723182       55.31790194477150       13.92051700299520
H           45.78360465507524       56.53985103964988       14.20271073540777
H           47.44099623890053       57.03099944926611       13.87470095881653
C           46.44209888475343       58.92125685739396       11.97335963526133
H           47.44083750478763       59.29911774233356       11.75544199236364
H           46.29008718228474       58.93901539778304       13.04725773114154
H           45.71565039538259       59.58313611078164       11.51073090253990
O           43.45840672137398       54.79893221226024        9.08686887978215
H           43.27258328293275       53.96106266020685        9.52070620237747
H           42.81659038027615       55.50625988576617        9.15895313238972
C           50.81366134881132       53.33148456251954        7.41440775988000
H           51.54462690951264       53.95204013521150        7.93172299122160
H           51.17145633418956       53.16102851673686        6.40045966724484
H           50.74537448007217       52.37911664366829        7.92639585277107
N           49.30876158645946       55.21910868833045        6.80140306513514
H           50.01973294719709       55.74417460999416        6.31904715468121
C           49.48864598951830       54.00263688038028        7.40349340191890
C           48.02474690718486       55.58971128736313        6.99164204856148
H           47.60911320319394       56.49649222994748        6.60669776118668
N           47.37768463209123       54.68545662651563        7.68527356258322
C           48.27133018306009       53.68482038941655        7.93762117804886
H           47.96942780349762       52.81123984463920        8.47513415738987
78
 energy: -116.043907488220 gnorm: 0.031321918625 xtb: 6.7.1 (edcfbbe)
Fe          45.46276481952464       54.82299853731157        8.34053558047777
N           45.24858550997058       56.57766588954733        7.36644771166260
N           44.86642233647735       53.83011335596435        6.71878575257815
N           45.52922874675014       53.08128309331025        9.37181212656160
N           45.94444773161774       55.82449197365373        9.97575143202526
C           45.51107310129993       57.82709996360522        7.82720201006770
C           45.35205272668641       58.81334278574365        6.78778463198767
C           44.96918772603296       58.12451817075864        5.67708879894369
C           44.91844861598702       56.73040731525316        6.05872486341825
C           44.54205554951532       54.36592348212124        5.50912012771451
C           44.12307457544715       53.34251538368972        4.58217349095638
C           44.20567309990055       52.15253066839610        5.25943249911168
C           44.69551352275306       52.48746820095741        6.58917455875490
C           45.20778515606889       51.83878946976814        8.90384033505821
C           45.19924266440912       50.87506496464903        9.97816228086354
C           45.51571059879031       51.57129420696965       11.12624439525916
C           45.73676654443560       52.94327283989663       10.70105043781530
C           46.16411645197425       55.31142861448534       11.22153256468109
C           46.40972580470928       56.37231540177483       12.17325186038008
C           46.31483321769928       57.53580760010492       11.47623413409192
C           46.04022367766176       57.17348005650326       10.11176204766129
C           45.88154406989865       58.12251368000510        9.12419343016249
H           46.03623492385258       59.15274896667418        9.39468681980262
C           44.58541070664205       55.71000879352176        5.19469617042475
H           44.33046686528487       55.99884590841172        4.18646824789975
C           44.87561676431752       51.55608020811627        7.58656694790040
H           44.69908141051710       50.52191488334824        7.33089998843659
C           46.08377634923277       53.97670377553332       11.55713590371493
H           46.26826784490766       53.72645925464566       12.58960868937971
C           44.69304084895829       58.67227856926809        4.32195683388744
H           45.46282545977505       58.35468508194337        3.61868498627967
H           44.68292937837567       59.75726375182431        4.35545409192627
H           43.73100486295107       58.33152108213272        3.94839254146203
C           45.56259716953497       60.28173086766800        6.93789533865433
H           46.22447519397735       60.49989634954972        7.76969783190805
H           44.61564571339508       60.79081289885658        7.11616292905897
H           46.00333907542893       60.69759685616008        6.03495497840731
C           43.71951642166119       53.57203230608204        3.16866876934875
H           44.11587714043112       54.51010708198071        2.79181992688723
H           42.63389188585722       53.60957180832743        3.07576361118734
H           44.08632723158264       52.76167464192606        2.54192981441230
C           43.83633553437704       50.83059172696183        4.81724463634730
H           44.32739767451262       50.00711794812850        5.31817352506861
C           42.92511357388133       50.56711450346440        3.88283131364359
H           42.37423218223277       51.34846229145047        3.39560698285289
H           42.67359733582401       49.56004537544833        3.60569769615868
C           44.85067800458565       49.43600268557874        9.81934051377861
H           44.82871837245155       49.14797164177990        8.77386000569042
H           43.86616149032464       49.23366865465003       10.24456766521590
H           45.58140305361515       48.80660939267690       10.32381427706124
C           45.56991461791356       51.12074238029555       12.49014142414757
H           45.88872084149499       51.86041330497836       13.21376887787579
C           45.24509091199348       49.90719106259331       12.94205768750355
H           44.88294961971233       49.13034649841870       12.29730277703954
H           45.31435741151432       49.64913529440503       13.98375145508046
C           46.68330823045563       56.27054369400641       13.63232246678368
H           47.02821146242569       55.28551459402031       13.92177568653628
H           45.78669093630460       56.50662201944638       14.20640972150117
H           47.44785628279999       56.99719348121397       13.90259158743210
C           46.45023519555398       58.92928798529550       11.98688538344977
H           47.44313020523602       59.32005058105798       11.76455824458188
H           46.30189946907969       58.95382088917600       13.06144165042897
H           45.71667188461900       59.58599430978168       11.52722442983325
O           43.39554191385105       54.79522801027250        9.01421217974507
H           43.21321693076258       54.00834322088158        9.56429945571808
H           42.78123281879655       55.52917231218751        9.19092873426004
C           50.80839142126270       53.32630256530756        7.41484541804745
H           51.54633903794767       53.94079278500799        7.92923800925572
H           51.16213087256562       53.15282980940179        6.40025952264629
H           50.73422861345410       52.37428630619457        7.92620307864938
N           49.31355714559120       55.22157334836496        6.80233179481722
H           50.02253308891295       55.74266849814782        6.31170408140038
C           49.48976117034196       54.00586043167734        7.40943385493690
C           48.03005440799776       55.59659938511030        7.00399739014096
H           47.61574524175505       56.50431860327150        6.62338411722761
N           47.38144209031212       54.69674451733654        7.70079659508606
C           48.27411041592180       53.69819545393512        7.95342887024916
H           47.97723904532604       52.82638569763407        8.49581939859746
78
 energy: -116.046623011318 gnorm: 0.032099389188 xtb: 6.7.1 (edcfbbe)
Fe          45.45192360726858       54.82512293573594        8.33478956160877
N           45.24860952805950       56.57819930545980        7.35072797141022
N           44.88236357718034       53.83961742616502        6.70481011527734
N           45.52154943285785       53.09112982089095        9.38101499592173
N           45.93813768701814       55.82972102959263        9.98950704490121
C           45.51117799587622       57.82443452198318        7.82083191878424
C           45.35411187604783       58.81349857606728        6.77744920054444
C           44.97370193575924       58.12832658160832        5.66406489894071
C           44.92127066712951       56.73322598447538        6.04329857659261
C           44.55030665072730       54.36984926843832        5.49745782784536
C           44.12255005979478       53.34290391236953        4.57582648027708
C           44.20188296747156       52.15696086920628        5.25780096018491
C           44.69746726787397       52.49714391274640        6.58192615005620
C           45.20878335228561       51.85383712434223        8.90349111780473
C           45.20515893844806       50.87781692819691        9.96764884476919
C           45.52027094775040       51.56313817802732       11.12048485713557
C           45.73552894896936       52.94474863573964       10.70966199312529
C           46.16716530165036       55.31340264714787       11.23339393816853
C           46.42577645534137       56.37207729697003       12.18116341308319
C           46.33075562938218       57.53969897326136       11.48755950347924
C           46.04273384636735       57.17860049542170       10.12272670626322
C           45.87806012505263       58.11513539146057        9.11973444067470
H           46.02922550639780       59.14910279694185        9.38389837442250
C           44.58433717016707       55.71382693648329        5.17760890778364
H           44.31302506338933       56.00087766123263        4.17337496481089
C           44.87047358829268       51.57433763487673        7.58992936024125
H           44.67393239588908       50.54268247229025        7.34229433350851
C           46.08068298819115       53.97610646641082       11.56861725161754
H           46.26044282301861       53.72497768556796       12.60239949260205
C           44.68640969445635       58.66971791636283        4.30597175946783
H           45.44783465124898       58.34921894668722        3.59283039781324
H           44.67287348524519       59.75643299324494        4.33045396385817
H           43.71975043813818       58.32375812133096        3.94319457804789
C           45.56204474034860       60.28290698681975        6.92953040852340
H           46.22934187847926       60.50070085747289        7.75914454081309
H           44.61357907776337       60.78931722679472        7.11570493463197
H           45.99601947121474       60.70670044331501        6.02511153476782
C           43.71968047934197       53.57069767798352        3.16235913756785
H           44.13824059950829       54.49865170421698        2.77970439099803
H           42.63341677959976       53.63158621031601        3.07197322610201
H           44.06608973148388       52.74780002735832        2.53705009852931
C           43.83627801578525       50.83078347249133        4.81594449333181
H           44.34458737531805       50.01117495023416        5.30988958424445
C           42.92589494763205       50.55138454958364        3.88558309004487
H           42.35714764684106       51.31862478188755        3.39152005017040
H           42.69706098520331       49.53781773349735        3.60111395429016
C           44.86633973044908       49.43659755719790        9.80330535190183
H           44.83176798832771       49.15375116963858        8.75453151035344
H           43.88768918910854       49.22394578808019       10.23886307880584
H           45.60341381615572       48.80486286333664       10.29815560254152
C           45.57994406165135       51.10778373213574       12.48387618113664
H           45.92377284894274       51.84987315727661       13.19413186298115
C           45.24267460480876       49.90887787175618       12.96345217197673
H           44.87136887619917       49.10887115502916       12.34704668316286
H           45.32462309881330       49.68305089471891       14.01516114097511
C           46.69351541708664       56.24399259966285       13.64253974380304
H           47.03069200587382       55.24827360671722       13.91324563138479
H           45.79110540949168       56.46764135738228       14.21473177378393
H           47.46060392591946       56.95969606871465       13.93767600888809
C           46.46275458734722       58.93438869933539       12.00065219466224
H           47.45053052019510       59.33822738220478       11.77180467329356
H           46.32210580601767       58.96063450322662       13.07807537176662
H           45.71881904491996       59.58627476729837       11.54578844414021
O           43.33505169246055       54.80408628488063        8.96630719728596
H           43.15385784482504       54.05584185869859        9.56341406966773
H           42.75128442020527       55.54943393418596        9.22257954160204
C           50.80309732730116       53.31722764177345        7.41544134285759