78
 energy: -116.058075765343 gnorm: 0.000039589576 xtb: 6.7.1 (edcfbbe)
Fe          45.30431649807190       54.88853763780171        8.34186221000210
N           45.20980648573281       56.60359346495061        7.33298061898234
N           44.79278147461743       53.87507824888754        6.70309357288058
N           45.34104479021479       53.17175813183153        9.39728027980644
N           45.77012531344011       55.90736692664477       10.01559986783936
C           45.42269257928523       57.85604922713363        7.81432379122206
C           45.25602946556818       58.84319426995523        6.76897033922056
C           44.94199044172237       58.15296018574776        5.64132000279629
C           44.91902267118451       56.75447941328189        6.01463012261636
C           44.57438238469928       54.38976280563249        5.46470993381575
C           44.23640677855749       53.34869487827359        4.52657095313227
C           44.24653375748127       52.17622466916543        5.23298586185602
C           44.60894485182757       52.53437352071711        6.59237904298101
C           45.08612764110357       51.91978609271455        8.92291197486256
C           45.23351944400415       50.93755703797451        9.96447909688646
C           45.59549698761404       51.62498803170446       11.09378158800379
C           45.66755761536216       53.01976646961013       10.70750883890322
C           46.04192767475946       55.38614048786335       11.24338351797347
C           46.38881521942663       56.43342334810401       12.17687328250976
C           46.32527374692137       57.60195299048898       11.48216161341835
C           45.94065684290042       57.25245285755958       10.13419339714070
C           45.76882430069583       58.17141877824151        9.11542871715895
H           45.92051574180621       59.21318435403906        9.35383161121127
C           44.63302492810855       55.73196156593578        5.13393068902994
H           44.41787572282630       56.00336645738670        4.11174721913727
C           44.72794990719866       51.61867098345318        7.61971882286617
H           44.52819678742718       50.58321907843160        7.38995427631899
C           45.98852395266701       54.04604266546876       11.57688960456178
H           46.21779828844802       53.78201280778588       12.59769543965561
C           44.65916910449632       58.66205910732098        4.26972899461591
H           45.36471256366593       58.24321643988731        3.55168906415458
H           44.73781146275755       59.74594723770293        4.23476578508050
H           43.65308689379548       58.38082987234814        3.95852436108473
C           45.40980560776675       60.31255362211139        6.96720336687274
H           46.41660802629109       60.55255740147149        7.31087639213797
H           44.70302128293487       60.67365085674523        7.71453873132955
H           45.22901153716681       60.84864381766442        6.03887032834703
C           43.99864443961294       53.55072366007479        3.07093495720354
H           44.67449371449666       54.30532868246763        2.67133809616688
H           42.97548260770700       53.88225442063607        2.88702704472447
H           44.15943410190900       52.61846622036823        2.53314413224723
C           43.99346403318503       50.82855889572205        4.77368310270678
H           44.56575830403048       50.04975449144946        5.26500917661088
C           43.12815272481733       50.48661142821459        3.82448811620679
H           42.49807495193856       51.20951729748981        3.33683242693592
H           43.00050489140691       49.46044987995374        3.52169582897589
C           45.08407447021716       49.46719384448926        9.78431856572551
H           45.48898296536214       49.15300908614617        8.82342040017983
H           44.03309733377338       49.17504334380612        9.81824854592517
H           45.61335024757404       48.93867146701530       10.57453899929758
C           45.88503961165865       51.12035931448435       12.41776956250291
H           46.65076933381744       51.65704425628105       12.96606981892858
C           45.28860000084612       50.08213646356225       12.99464706095938
H           44.48945628423443       49.54223312902727       12.51739101684201
H           45.56428880782762       49.75131714791423       13.98227532075539
C           46.73714725364020       56.20378018637317       13.60753461308350
H           47.61079881500021       55.55672787172647       13.69003129797922
H           45.91081623017575       55.72294828608177       14.13176127618312
H           46.95876160086005       57.14344365755854       14.10760309636815
C           46.58384197904966       58.99387233717419       11.94839463176102
H           47.39892864031642       59.44449810058272       11.38123978831509
H           46.85313653826301       59.00539203778195       13.00163736906547
H           45.69720989915741       59.61402276831266       11.81438431636202
O           43.11566031332683       55.07703704134541        8.99934203861816
H           42.97086012922629       54.20276432582775        9.37727336157076
H           43.22222720515111       55.68964066453768        9.73521843554331
C           50.33773113771824       52.94573250416527        6.94035781251390
H           51.09067744970020       52.89319051022397        7.72671861645147
H           50.81301094602068       53.33159867101148        6.03862050987771
H           49.97363507343366       51.94300582034423        6.74012158415800
N           49.36521226874001       55.13864165319926        7.65924976418552
H           50.23438608080343       55.64628918038406        7.63903333920120
C           49.20498919231406       53.81284969090599        7.35206697091957
C           48.15111169942392       55.63186347890075        7.99242151365944
H           47.97332391845676       56.64757710004842        8.27989074725368
N           47.23277719680458       54.69950315941469        7.91507860481115
C           47.87294175226383       53.56258058656434        7.51735528411484
H           47.33675708318973       52.64689159636779        7.37843954467802
