78
 energy: -115.904039495998 gnorm: 0.328085466857 xtb: 6.7.1 (edcfbbe)
Fe          -5.66500000000000        5.91100000000000       -8.48500000000000
N           -5.31600000000000        7.66300000000000       -7.63600000000000
N           -4.90000000000000        5.01100000000000       -6.77500000000000
N           -5.52400000000000        4.24700000000000       -9.55700000000000
N           -6.07300000000000        6.95800000000000      -10.21200000000000
C           -5.71100000000000        8.95400000000000       -8.04700000000000
C           -5.61700000000000       10.00300000000000       -7.03800000000000
C           -5.23000000000000        9.33000000000000       -5.78900000000000
C           -5.11100000000000        7.92000000000000       -6.21500000000000
C           -4.70500000000000        5.51500000000000       -5.53900000000000
C           -4.23900000000000        4.57400000000000       -4.50100000000000
C           -4.26800000000000        3.34400000000000       -5.23300000000000
C           -4.70100000000000        3.69700000000000       -6.59500000000000
C           -5.16600000000000        2.97000000000000       -9.08500000000000
C           -5.07900000000000        1.93600000000000      -10.17200000000000
C           -5.48800000000000        2.65500000000000      -11.38300000000000
C           -5.74400000000000        4.04100000000000      -10.97200000000000
C           -6.35000000000000        6.47800000000000      -11.42100000000000
C           -6.65400000000000        7.47500000000000      -12.46400000000000
C           -6.60400000000000        8.71200000000000      -11.73600000000000
C           -6.23500000000000        8.27200000000000      -10.39900000000000
C           -6.05500000000000        9.28100000000000       -9.39300000000000
H           -6.18500000000000       10.32800000000000       -9.66600000000000
C           -4.78100000000000        6.93200000000000       -5.23900000000000
H           -4.57600000000000        7.25800000000000       -4.21900000000000
C           -4.87600000000000        2.69400000000000       -7.66900000000000
H           -4.78100000000000        1.64700000000000       -7.38300000000000
C           -6.25000000000000        5.10200000000000      -11.83800000000000
H           -6.56700000000000        4.84100000000000      -12.84800000000000
C           -5.02300000000000        9.98400000000000       -4.43000000000000
H           -5.21000000000000       11.07600000000000       -4.51200000000000
H           -3.97800000000000        9.82200000000000       -4.09100000000000
H           -5.73300000000000        9.55100000000000       -3.69300000000000
C           -5.86800000000000       11.48300000000000       -7.21000000000000
H           -6.62600000000000       11.64000000000000       -8.00700000000000
H           -4.92500000000000       11.99200000000000       -7.50300000000000
H           -6.25100000000000       11.91200000000000       -6.25900000000000
C           -3.92000000000000        4.96900000000000       -3.07300000000000
H           -4.76300000000000        5.55900000000000       -2.65400000000000
H           -3.00000000000000        5.59100000000000       -3.05200000000000
H           -3.77600000000000        4.05700000000000       -2.45500000000000
C           -3.94200000000000        1.97700000000000       -4.77700000000000
H           -4.50200000000000        1.09400000000000       -5.11500000000000
C           -2.92700000000000        1.84700000000000       -3.92600000000000
H           -2.36600000000000        2.73000000000000       -3.58700000000000
H           -2.63700000000000        0.85500000000000       -3.55100000000000
C           -4.68000000000000        0.52200000000000       -9.95900000000000
H           -5.58800000000000       -0.11800000000000       -9.92100000000000
H           -4.13200000000000        0.42700000000000       -8.99700000000000
H           -4.03500000000000        0.18300000000000      -10.79800000000000
C           -5.55900000000000        2.17200000000000      -12.78600000000000
H           -5.84400000000000        2.86700000000000      -13.59000000000000
C           -5.29000000000000        0.91900000000000      -13.11900000000000
H           -5.00100000000000        0.18700000000000      -12.35100000000000
H           -5.35200000000000        0.59400000000000      -14.16800000000000
C           -6.96800000000000        7.17800000000000      -13.92100000000000
H           -7.87200000000000        6.53500000000000      -13.98200000000000
H           -6.11300000000000        6.64300000000000      -14.38800000000000
H           -7.16400000000000        8.12700000000000      -14.46400000000000
C           -6.78300000000000       10.15100000000000      -12.14600000000000
H           -6.99200000000000       10.20300000000000      -13.23600000000000
H           -5.85400000000000       10.72100000000000      -11.93000000000000
H           -7.63800000000000       10.59500000000000      -11.59300000000000
C          -11.04000000000000        4.45000000000000       -7.37400000000000
H          -11.78100000000000        5.06200000000000       -7.93200000000000
H          -11.37800000000000        4.34800000000000       -6.32100000000000
H          -10.96900000000000        3.44800000000000       -7.84900000000000
N           -9.51100000000000        6.36900000000000       -6.90700000000000
H          -10.21100000000000        6.90700000000000       -6.43900000000000
C           -9.70500000000000        5.12400000000000       -7.41300000000000
C           -8.23000000000000        6.75200000000000       -7.14000000000000
H           -7.80000000000000        7.70000000000000       -6.82000000000000
N           -7.59900000000000        5.74600000000000       -7.83500000000000
C           -8.47800000000000        4.71600000000000       -7.99300000000000
H           -8.18900000000000        3.79700000000000       -8.48700000000000
O           -3.66600000000000        6.08900000000000       -9.40200000000000
H           -3.47900000000000        5.23600000000000       -9.79500000000000
H           -3.13300000000000        6.80100000000000       -9.41200000000000
78
 energy: -115.994053713044 gnorm: 0.150404911426 xtb: 6.7.1 (edcfbbe)
Fe          -5.63668004474853        5.93149100529211       -8.49322039897750
N           -5.37334175648650        7.69982544653729       -7.57336369254163
N           -4.91865592773917        4.99995189970925       -6.76445879650046
N           -5.54616111843196        4.21703648351726       -9.56663564699975
N           -6.10358365706850        6.96295084155006      -10.22400853874906
C           -5.69342233208423        8.96643960406165       -8.04815828109607
C           -5.61030515936338        9.98382168231356       -7.02076135284878
C           -5.23702031052580        9.32722653143802       -5.83019078569162
C           -5.10687469301920        7.91983728060787       -6.19936705081949
C           -4.68586693666650        5.54336116806814       -5.54225732532275
C           -4.25793682595036        4.56560465091824       -4.54382231852096
C           -4.28820631865557        3.34817306279388       -5.24932918477048
C           -4.71574904736178        3.67094762251930       -6.61869903102501
C           -5.16504418435093        2.97700181529716       -9.07303588015746
C           -5.09700088142359        1.98308165809537      -10.16522193178493
C           -5.48181134956316        2.66817891360911      -11.35408173664607
C           -5.76452249580097        4.04383868375263      -10.95267145578303
C           -6.34627639478948        6.44814133271239      -11.44484801171549
C           -6.65832419731100        7.47818911393693      -12.44212102102284
C           -6.59437070018671        8.68524188332366      -11.73737709594714
C           -6.23852106193095        8.29734108410511      -10.38427031156775
C           -6.04697582027001        9.26530730379378       -9.37775106403020
H           -6.18556239539445       10.30500920776293       -9.65284737195929
C           -4.77887564994032        6.93123814161725       -5.26171347104314
H           -4.58285802762916        7.25270608134717       -4.24319833696004
C           -4.87471424405783        2.71869589476499       -7.68736450488733
H           -4.77240491285251        1.67500778398382       -7.39781650386346
C           -6.23709169916444        5.08340961341445      -11.80583272298746
H           -6.54236427666539        4.83161375015419      -12.81820666358110
C           -5.02834170533121        9.96517164392933       -4.46773417246697
H           -5.20610623281551       11.04868456009558       -4.51839324064458
H           -4.00021778384362        9.81829787992325       -4.10394812748571
H           -5.71717729425465        9.55222917107009       -3.71387488070382
C           -5.86641513124730       11.45765644251472       -7.20677008316251
H           -6.61339887606367       11.63614413946592       -7.99203085592364
H           -4.94231625020948       11.98121966303778       -7.49524756337349
H           -6.24163747740075       11.90410141864882       -6.27635269857070
C           -3.93081205167954        4.94999349115402       -3.11201224719967
H           -4.74764053936120        5.54314114770958       -2.67090298672235
H           -3.02035006008636        5.56968334756862       -3.06118108847141
H           -3.78110687774987        4.06843014779022       -2.47426113256414
C           -3.93872597664511        2.00251320022776       -4.77471635302517
H           -4.49488505356744        1.12813827864551       -5.11982667892186
C           -2.92808024855679        1.84765359056347       -3.92270148003033
H           -2.36110278146685        2.70870443545764       -3.58865067385644
H           -2.63839833843077        0.86838058257405       -3.55142330699130
C           -4.68961804341853        0.55409773898458       -9.95997146486381
H           -5.57258501578070       -0.10566541746621       -9.92338282559318
H           -4.14318409484039        0.43234215974525       -9.01513205905690
H           -4.03870811380339        0.19488017102511      -10.77042413862086
C           -5.55378209796409        2.17745728710917      -12.74699476749711
H           -5.83835301418539        2.87222302611326      -13.54383978948272
C           -5.29251475598781        0.92179787271815      -13.11135740380262
H           -5.01202840860885        0.18101952846458      -12.37818193160698
H           -5.35090869043710        0.60236293464136      -14.14968965753508
C           -6.96558255467224        7.18788552328094      -13.89321631342805
H           -7.85699599117499        6.54858688273909      -13.97851573345911
H           -6.12910105833789        6.65893204481482      -14.37511238118955
H           -7.15805970015952        8.11368330868895      -14.44977888625410
C           -6.78072112253032       10.12157959164792      -12.15087165886438
H           -6.99014656278512       10.19852172282895      -13.22428848793808
H           -5.87362333234483       10.70722347493120      -11.93711857224565
H           -7.61957807532039       10.58189589862557      -11.60568596167518
C          -11.03249601354406        4.44972437393162       -7.37519129179069
H          -11.77297971976363        5.04964180041641       -7.92308809109614
H          -11.37606604070646        4.34431733801073       -6.33723520063101
H          -10.97167981619376        3.46098476073565       -7.83946902919561
N           -9.50192188923215        6.36026753865773       -6.91341396429520
H          -10.20549434527668        6.90414213827703       -6.44051166005326
C           -9.69808867482235        5.11579508695506       -7.42331719630142
C           -8.22482864295878        6.73611847378533       -7.15378614563745
H           -7.80196981589169        7.67558800154280       -6.83470577247443
N           -7.58953521905987        5.76032223870904       -7.82312652718125
C           -8.48268820754861        4.74302059862358       -7.98606041519451
H           -8.19720304971039        3.82530244509404       -8.47641862022923
O           -3.65931392485850        6.07325229273829       -9.38282188836159
H           -3.45835702454056        5.23871765162336       -9.80602845245367
H           -3.09665188539840        6.82216883063270       -9.42060565407672
78
 energy: -116.028166122128 gnorm: 0.041631588722 xtb: 6.7.1 (edcfbbe)
Fe          -5.61460515273772        5.95636816797893       -8.49589746235706
N           -5.38815873429757        7.73706519568079       -7.52893524592395
N           -4.92801179216187        4.99832436255376       -6.77160201038788
N           -5.55845226850199        4.20274048276568       -9.57363842797578
N           -6.12159022745048        6.96333294258875      -10.22690108878622
C           -5.69433396636559        8.96664171050054       -8.03953751815293
C           -5.59949799855133        9.97213732544579       -7.00269910572723
C           -5.24427308899440        9.33174106166035       -5.86012029950894
C           -5.12493613618476        7.92272752790234       -6.19683688954019
C           -4.68043056884851        5.56628533556559       -5.55844011244983
C           -4.27145437472515        4.56375792269903       -4.59156758342921
C           -4.30590914661761        3.36039646248691       -5.27099339959357
C           -4.73616694479861        3.65876406805342       -6.64819502489676
C           -5.17631475751434        2.98977084791626       -9.06262039999028
C           -5.11031431344805        2.01872023757441      -10.14933692590867
C           -5.48422455383980        2.67265202704991      -11.31329543621062
C           -5.78002082970895        4.04851612372418      -10.92116095825469
C           -6.34835378439435        6.42251654677457      -11.45183815105050
C           -6.65831849424583        7.47707054431454      -12.41892564405503
C           -6.58645113541770        8.65624635445410      -11.73564072897665
C           -6.23981228337246        8.30942260561269      -10.36668269131979
C           -6.04858504256385        9.24055810478806       -9.35733407782433
H           -6.18477860525688       10.27786579423897       -9.63300491236881
C           -4.78962704754948        6.92865471068618       -5.29089232165554
H           -4.58636979401804        7.24697998366483       -4.27476879327210
C           -4.88469351129095        2.74674883056853       -7.70333556939505
H           -4.75099734313999        1.70555573318608       -7.41960790974840
C           -6.22785163506170        5.06834094037463      -11.76484249352126
H           -6.50407326126945        4.81693494024415      -12.78437097219665
C           -5.03216622535813        9.94965971338909       -4.49901432169687
H           -5.20428649421749       11.02599363673729       -4.53600944080025
H           -4.01385703977706        9.80038911673461       -4.13224732551654
H           -5.71069813032428        9.53787436077101       -3.74652688441781
C           -5.86235953127289       11.43795809178777       -7.20089479376206
H           -6.60359271869618       11.61663330606751       -7.97892710607814
H           -4.94914842021275       11.96457374551655       -7.48980991660667
H           -6.23204739551830       11.89285082791690       -6.28284062863249
C           -3.94312299151405        4.92742782739270       -3.15704411647056
H           -4.74600700182155        5.52197662715928       -2.70844278410203
H           -3.03744691829108        5.54189231817354       -3.09476022976440
H           -3.79259435662055        4.05990056204181       -2.51562084258968
C           -3.93693097515679        2.03646558513756       -4.77614300823463
H           -4.49219044385375        1.17240905709291       -5.13191724430988
C           -2.93069829837344        1.85223153110194       -3.92436210946026
H           -2.35023969439714        2.69126803899444       -3.58683711934905
H           -2.64754578671026        0.87997845735272       -3.55619104761999
C           -4.69529381813789        0.58294082394700       -9.95575264290329
H           -5.56682387784542       -0.08011496199746       -9.92831146699396
H           -4.15463152723854        0.45187013228662       -9.01979464471067
H           -4.04074848967164        0.22611618840344      -10.75209633280227
C           -5.55138813409804        2.18036677151976      -12.69326230125305
H           -5.82942508721498        2.88561946454356      -13.47541878287584
C           -5.29736507068608        0.93069014712874      -13.09522076259830
H           -5.02346404158463        0.16656855015546      -12.39858536530634
H           -5.35520549488485        0.62780734849374      -14.12971266584093
C           -6.96273919250495        7.19926498749422      -13.86470177365154
H           -7.84590448973673        6.56249718573541      -13.96137856370192
H           -6.13529263164362        6.67548815759000      -14.35079705913545
H           -7.15131494601141        8.11357666589298      -14.42457842556985
C           -6.77927441612408       10.08720429044013      -12.15932567954430
H           -6.98918044788140       10.17692260241747      -13.22202166016420
H           -5.88526822223522       10.67943971440564      -11.94432483688301
H           -7.60707158277222       10.55229370749593      -11.61513942186749
C          -11.02437636969871        4.44759191311440       -7.37753036475759
H          -11.76336847872675        5.04130801006871       -7.91784344792554
H          -11.36705997812222        4.34207018282619       -6.34799414119406
H          -10.97002564907598        3.46609545559489       -7.83346126601361
N           -9.49778766952770        6.35788090794230       -6.91653707698719
H          -10.20017347712128        6.90520015112518       -6.44065171193061
C           -9.69258732534637        5.10940130439283       -7.43442481583243
C           -8.22219704119708        6.72171509549277       -7.16343049564851
H           -7.80413576159154        7.65588572842598       -6.84840530155840
N           -7.58908901288295        5.77617899033817       -7.81614220165641
C           -8.48777019887376        4.76259964267957       -7.98240193185648
H           -8.20440447412545        3.84957500227928       -8.47236319643251
O           -3.62902689150465        6.05734354047160       -9.32398248524155
H           -3.42598356570230        5.26143043960068       -9.82917980718530
H           -3.07008342178835        6.82985216527311       -9.44661829608818
78
 energy: -116.039395645719 gnorm: 0.053628105268 xtb: 6.7.1 (edcfbbe)
Fe          -5.60270391512361        5.96680799909550       -8.49722405738182
N           -5.42178073860159        7.74397441020540       -7.51609580607372
N           -4.94797624900321        5.00674459371415       -6.79142734407293
N           -5.58550088175828        4.20335139588260       -9.55533781745994
N           -6.12706609721856        6.95600783127155      -10.21334511731495
C           -5.69737190611584        8.96968758000336       -8.03612830166541
C           -5.59946331629350        9.97921657776882       -7.00279747620637
C           -5.24624299771841        9.33427201309758       -5.86051841811104
C           -5.12844225429417        7.92912674003172       -6.20110199925249
C           -4.69030573430098        5.57646023484188       -5.58359592570135
C           -4.28214635026707        4.56957285917491       -4.62773691594070
C           -4.31315266567187        3.37187981699741       -5.29566127536485
C           -4.75272776842397        3.66867347303808       -6.66699948393162
C           -5.19044405731322        3.00009304510901       -9.04896414431893
C           -5.12204317985925        2.02696643732121      -10.12078325767789
C           -5.49506281046377        2.67192658812667      -11.27986913130542
C           -5.79594455445464        4.04671568222754      -10.88910012782392
C           -6.35247188751360        6.40838114475066      -11.43665496347030
C           -6.66044783710529        7.46153951342415      -12.40057258584832
C           -6.58418928200175        8.63819803677748      -11.72498427786434
C           -6.24490053660772        8.30179346770464      -10.35237640307948
C           -6.05146193264448        9.23225335880448       -9.34926490839348
H           -6.19028413482908       10.26836429877102       -9.62141064593548
C           -4.78992268806751        6.93105316069304       -5.30591335069942
H           -4.58361598382385        7.24363925781907       -4.29079578915094
C           -4.88344763330764        2.75546875909295       -7.70625499891884
H           -4.71337446098217        1.71764219071046       -7.43571581447682
C           -6.22215880059640        5.05979723039548      -11.74225348835030
H           -6.46083946996407        4.79696664626528      -12.76703705841540
C           -5.03066520247302        9.93761632386903       -4.50769863852201
H           -5.20203628426948       11.01152815735639       -4.54628493201671
H           -4.01181602008002        9.77463429224449       -4.15764260169393
H           -5.71061260087136        9.51160620716011       -3.76910302736031
C           -5.85995924453857       11.43776593821469       -7.19946947150807
H           -6.60323119399622       11.60331826866236       -7.97538998100710
H           -4.94549632820314       11.95626341253806       -7.49070654493713
H           -6.22548320193069       11.88989765602612       -6.28009453174020
C           -3.95575692380761        4.90879466063300       -3.19894591880745
H           -4.75877243674559        5.50189228708919       -2.75566932836590
H           -3.04576700524953        5.51187737744990       -3.14183647124955
H           -3.81396242812247        4.02880837328771       -2.57704551188633
C           -3.93544549537013        2.06078193308407       -4.79186848468016
H           -4.49720783313999        1.20734204428060       -5.15471040299378
C           -2.93676627187471        1.86042928678766       -3.93468154310751
H           -2.33423823461214        2.68317016614355       -3.59087006603171
H           -2.66904113518966        0.88436548090369       -3.56714112025693
C           -4.69567436368573        0.60148495574892       -9.93480344684365
H           -5.56535286210703       -0.06082045092300       -9.92965710876410
H           -4.16596665130633        0.47385394131369       -8.99505868862070
H           -4.02708620142366        0.27083083974718      -10.72766316463835
C           -5.55316481357467        2.18578997083690      -12.64869638607657
H           -5.82309214322212        2.91434984634466      -13.40732475630661
C           -5.31011685437520        0.94425220171888      -13.07960888790207
H           -5.05113851333603        0.14372478232479      -12.41282132686623
H           -5.36585585214004        0.67364827825221      -14.12198489173788
C           -6.96228066582342        7.20227629621517      -13.84291275659884
H           -7.84554976224260        6.56943078448243      -13.94127750995760
H           -6.13125776623709        6.68573504994654      -14.32568008564025
H           -7.14550095085052        8.12507456763568      -14.38812431845783
C           -6.77809160492278       10.05685297695605      -12.16838028148047
H           -6.98923378703849       10.13303937752972      -13.23092350597688
H           -5.88473631640101       10.64727475936427      -11.95679834113351
H           -7.60575153106155       10.51699086415709      -11.62471835763065
C          -11.01499204297506        4.44337256381600       -7.37991238786750
H          -11.75761361885302        5.03357670811145       -7.91732666997255
H          -11.35271879380706        4.33736602303005       -6.34973141578859
H          -10.96071961677895        3.46061276779457       -7.83327339307647
N           -9.49868194262465        6.36207524704237       -6.91809083607092
H          -10.19892126099209        6.90692382155823       -6.43959133135975
C           -9.68830232019850        5.11106967005620       -7.44202209119792
C           -8.22335024510740        6.72461223798426       -7.16872232843236
H           -7.80715299044038        7.65872816022352       -6.85670376176789
N           -7.58586040200452        5.78514839934889       -7.81899637422291
C           -8.48455243372156        4.77151273421999       -7.99191434816782
H           -8.20215620224262        3.86407131832061       -8.48566124290485
O           -3.54609480000746        6.03529823083215       -9.21491699815106
H           -3.39167316641512        5.30612245052439       -9.87512014871138
H           -3.04761155928326        6.84805441663910       -9.48450339730460
78
 energy: -116.044758244539 gnorm: 0.036381585774 xtb: 6.7.1 (edcfbbe)
Fe          -5.59061346817217        5.97611436797045       -8.49643877608455
N           -5.44454833551089        7.74502382609827       -7.51580652800472
N           -4.97728961146246        5.01920601523824       -6.81794672701423
N           -5.60220830546484        4.21501897604067       -9.53037216036791
N           -6.12049777775959        6.94530565313982      -10.19381197277581
C           -5.70639099513232        8.96981377834449       -8.03293243537658
C           -5.60050028547131        9.98608787344870       -7.00794835680403
C           -5.24553260719562        9.33482655754130       -5.86152739731416
C           -5.14124425185058        7.93349873370375       -6.20813549679500
C           -4.70807139089390        5.58555075824933       -5.61495610267824
C           -4.29128718717145        4.58118196995009       -4.66648651782536
C           -4.31617657425509        3.38620315909136       -5.32582616560607
C           -4.76856078048577        3.68627178816098       -6.68579916922355
C           -5.20573156446498        3.01364485938664       -9.03194300235056
C           -5.13391886098253        2.03467342288825      -10.08691073340767
C           -5.51073651208332        2.67374632931565      -11.24573492031419
C           -5.81110879484358        4.04714294976276      -10.85545299114067
C           -6.35366523697237        6.39563543445258      -11.41424225604552
C           -6.66277683717657        7.44018105787810      -12.37932185833790
C           -6.58456800265886        8.61926470493301      -11.70853483851911
C           -6.24790556910249        8.28808187753280      -10.33716424563542
C           -6.06066639654676        9.22661747637623       -9.34251743361760
H           -6.20074868275744       10.26166134236291       -9.61233461001069
C           -4.79802743343713        6.93420958438588       -5.31854870684225
H           -4.57590582513135        7.24058712793125       -4.30712260996767
C           -4.88028380810038        2.76113024524244       -7.70482825192579
H           -4.66800427544884        1.72952654748216       -7.44810687702906
C           -6.21817559955050        5.05314389957735      -11.72237613107781
H           -6.41867194247561        4.77635591907660      -12.74980623289125
C           -5.02540289413827        9.92257639190597       -4.51567800631995
H           -5.19479807621183       10.99568400088191       -4.55010073345721
H           -4.00533585495685        9.74436285942282       -4.18134291306834
H           -5.70703806393005        9.48213969539364       -3.78944257633822
C           -5.85711250496923       11.43870225411150       -7.19945439533805
H           -6.60554920307870       11.59477304799063       -7.97155109949114
H           -4.94186279769442       11.95104730436656       -7.49561597187241
H           -6.21646931458808       11.88868241071463       -6.27663709474895
C           -3.96818403089869        4.89168775287390       -3.24448956770768
H           -4.77070782415187        5.48336618456122       -2.80393361189581
H           -3.05033223429235        5.47853445613778       -3.18845881360370
H           -3.84075869381077        3.99098642356411       -2.65034816528994
C           -3.93336227480188        2.08580780241608       -4.81559925100260
H           -4.50415697840792        1.24323020356685       -5.18496156315078
C           -2.94276507665517        1.87006465495947       -3.95344083098686
H           -2.31582433625267        2.67413596425729       -3.59961784227705
H           -2.69684028800736        0.88709620365280       -3.58573923415289
C           -4.69581795976364        0.62243046327867       -9.91109060622435
H           -5.56150668972818       -0.04292241826719       -9.93340319361457
H           -4.17988772448141        0.49341125768136       -8.96471030499501
H           -4.01158934486447        0.32499781632090      -10.70373073177143
C           -5.56149721308965        2.19208047514571      -12.60232183597822
H           -5.81520975791947        2.94740549532353      -13.33729207151857
C           -5.33117341060188        0.95954705142800      -13.05866599841405
H           -5.08607377336508        0.12251402899427      -12.42320514902678
H           -5.38067312684628        0.72827092668830      -14.11209342291986
C           -6.96355118251497        7.20121402091942      -13.81868799047934
H           -7.84820120986172        6.57317413794425      -13.92130382108739
H           -6.12865098949919        6.69380998359300      -14.30188749014146
H           -7.14219661040791        8.13714082034297      -14.34343960076738
C           -6.78011254254849       10.02275138798932      -12.17666542163483
H           -6.99224990397287       10.07516578055460      -13.24125306256465
H           -5.88607177728345       10.61306940496579      -11.97451376274652
H           -7.60963278015603       10.48089504497263      -11.63751339623524
C          -11.00235626827553        4.43657111940021       -7.38187126169145
H          -11.75218478774155        5.02114523063866       -7.91632569543947
H          -11.33297044443894        4.32923478147999       -6.34902216604574
H          -10.94514295897470        3.45143770385238       -7.83338157401198