78
 energy: -115.919793319945 gnorm: 0.336115676604 xtb: 6.7.1 (edcfbbe)
Fe          28.21400000000000       92.11199999999998       52.08500000000000
N           29.11100000000000       93.85899999999999       51.53500000000000
N           29.37100000000000       92.07500000000000       53.81800000000000
N           27.09900000000000       90.55200000000001       52.80200000000000
N           26.96099999999999       92.20499999999998       50.42799999999999
C           29.05800000000000       94.39599999999999       50.29200000000000
C           29.73600000000000       95.60100000000000       50.31400000000000
C           30.45900000000000       95.64799999999998       51.51200000000000
C           30.13500000000000       94.47499999999999       52.16100000000000
C           30.26000000000000       92.97900000000000       54.19100000000000
C           30.95499999999999       92.54200000000000       55.32800000000000
C           30.34200000000000       91.35499999999999       55.70300000000000
C           29.40200000000000       91.08199999999998       54.69300000000000
C           27.41700000000000       89.75999999999999       53.83300000000000
C           26.51400000000000       88.70800000000000       53.99600000000000
C           25.54600000000000       88.93000000000001       53.00500000000000
C           26.05099999999999       89.94899999999998       52.20500000000000
C           26.12100000000000       91.23999999999999       50.04300000000000
C           25.70100000000000       91.42199999999998       48.72800000000000
C           26.27700000000000       92.63000000000000       48.31600000000000
C           27.10400000000000       93.03500000000000       49.37499999999999
C           28.08900000000000       94.03300000000000       49.30900000000000
H           28.11800000000000       94.60700000000000       48.38400000000000
C           30.63400000000000       94.09600000000000       53.41400000000000
H           31.40300000000000       94.74099999999999       53.83900000000000
C           28.52600000000000       90.00699999999999       54.67199999999999
H           28.72300000000000       89.23600000000000       55.41600000000000
C           25.55900000000000       90.35999999999999       50.95799999999999
H           24.60200000000000       89.92900000000000       50.66600000000000
C           31.34500000000000       96.76500000000000       52.03400000000000
H           31.35500000000000       97.60200000000000       51.30399999999999
H           32.38200000000000       96.39000000000000       52.16699999999999
H           30.94900000000000       97.13700000000000       53.00300000000000
C           29.56900000000000       96.69400000000000       49.26100000000000
H           28.49800000000000       96.77699999999999       48.97900000000000
H           30.16100000000000       96.43699999999998       48.35600000000000
H           29.90900000000000       97.66800000000001       49.67399999999999
C           32.04000000000000       93.41800000000001       55.95200000000000
H           31.64600000000000       94.44600000000000       56.10200000000000
H           32.92000000000000       93.46400000000000       55.27600000000000
H           32.34000000000000       93.00000000000000       56.93700000000000
C           30.63100000000000       90.39400000000001       56.68500000000000
H           29.92500000000000       89.56000000000000       56.80499999999999
C           31.77000000000000       90.37900000000000       57.56800000000000
H           32.52700000000000       91.17499999999998       57.51600000000000
H           31.89500000000000       89.57099999999998       58.30400000000000
C           26.33700000000000       87.89200000000000       55.29200000000000
H           26.57200000000000       88.53300000000000       56.16900000000000
H           27.02900000000000       87.02300000000000       55.28599999999999
H           25.28600000000000       87.54100000000000       55.37400000000000
C           24.32800000000000       88.26300000000001       52.76900000000000
H           23.48500000000000       88.84699999999999       52.37199999999999
C           24.07300000000000       86.84699999999998       53.00500000000000
H           24.86600000000000       86.19499999999999       53.40100000000000
H           23.08500000000000       86.41400000000000       52.78900000000000
C           24.54200000000000       90.71599999999999       48.02600000000000
H           23.58400000000000       91.19799999999999       48.31600000000000
H           24.51400000000000       89.64800000000000       48.33000000000000
H           24.66600000000000       90.79499999999999       46.92500000000000
C           26.13300000000000       93.25500000000000       46.91100000000000
H           25.09100000000000       93.11799999999998       46.54900000000000
H           26.82900000000000       92.75400000000000       46.20400000000000
H           26.35800000000000       94.34200000000000       46.95900000000000
O           27.11500000000000       93.34300000000000       52.93900000000000
H           27.47200000000000       94.20599999999999       52.72899999999999
H           26.40100000000000       93.17799999999998       53.44200000000000
C           30.57000000000000       88.31300000000000       48.70499999999999
H           30.81400000000000       87.33199999999999       49.16600000000000
H           31.42800000000000       88.64000000000000       48.07899999999999
H           29.66200000000000       88.19900000000000       48.07500000000000
N           31.24700000000000       89.68000000000001       50.73500000000000
H           32.17100000000000       89.30200000000001       50.79400000000000
C           30.31500000000000       89.32399999999998       49.78399999999999
C           30.72100000000000       90.59200000000000       51.54400000000000
H           31.23900000000000       91.04499999999999       52.38799999999999
N           29.48500000000000       90.83499999999999       51.13800000000000
C           29.20700000000000       90.05800000000001       50.04500000000000
H           28.24300000000000       90.09999999999999       49.55300000000000
78
 energy: -116.005596982854 gnorm: 0.140605266282 xtb: 6.7.1 (edcfbbe)
Fe          28.21999199887430       92.09068419176029       52.07739695687948
N           29.14760772862855       93.79347712844654       51.50976606940895
N           29.35258574167930       92.07583631637219       53.79152819241763
N           27.13046801717198       90.53881339367557       52.77682490508149
N           26.99612721594206       92.19665311537040       50.42972473520933
C           29.00810212338028       94.41614872465244       50.30160366132834
C           29.74385072694692       95.62511542467254       50.30616585156158
C           30.45784593762627       95.66627036690419       51.49277390262181
C           30.11554876269773       94.47953554939789       52.18153184527272
C           30.27668414862902       92.97832456345702       54.16333203945085
C           30.95908667288925       92.55291232220570       55.33960635241262
C           30.37641535316083       91.34655999418662       55.70385682178552
C           29.38297703474427       91.08159373742258       54.69398908053025
C           27.43200241786858       89.76517179421224       53.84197284572008
C           26.48696682303942       88.72049555200063       54.02076327006856
C           25.54160478752235       88.90251854848768       53.01027393172354
C           26.03496376110013       89.97435147225031       52.20739702796882
C           26.09663490234407       91.25696937014068       50.06389755218332
C           25.66521645623739       91.45527623977055       48.72452289436350
C           26.28178512007069       92.61885393962731       48.29602316033866
C           27.13889646753901       93.02552050747349       49.36557629507153
C           28.08383926475323       94.04512156304391       49.31001265533808
H           28.11962682526119       94.61035640964303       48.38709614811027
C           30.62974413135550       94.10501332965009       53.41854796163598
H           31.40117122548719       94.74053069704617       53.83489282433924
C           28.52370867109276       89.99782036657905       54.68079270684360
H           28.71120834965095       89.23137349106945       55.42003890465433
C           25.53916121718197       90.35705022180078       50.96521941052811
H           24.60728205413407       89.89904275421395       50.65651655302909
C           31.34011808135236       96.76171029776026       52.02244480892913
H           31.36054291633737       97.59541430717046       51.31380414447748
H           32.36593381019402       96.39779806169469       52.16638777357035
H           30.95861464776171       97.12970786099581       52.98544840359442
C           29.57914563577369       96.69513724768342       49.26281562257646
H           28.52014152346922       96.77923644661185       48.98466676750070
H           30.15595637620818       96.44725397086560       48.36343357767314
H           29.91060259136273       97.65905670541999       49.66085623555463
C           32.03239791597981       93.40926234494383       55.95928947503684
H           31.65303058740026       94.42920884834717       56.10327492136302
H           32.90513563522963       93.45937177222473       55.29292532938985
H           32.34041458110671       93.01224254742267       56.92879075632761
C           30.66937654695992       90.39495871228553       56.72025095186884
H           29.95805943122173       89.57346691456497       56.82240357800850
C           31.74734577508135       90.38067497303592       57.55629060511223
H           32.50859157101958       91.15123530313515       57.51303253307748
H           31.88298712854772       89.58659268451348       58.28343825001316
C           26.33826395058232       87.89533934435241       55.28064528623751
H           26.56945325610576       88.52063540515638       56.15323130880756
H           27.01755897265950       87.03299143506470       55.28441018751251
H           25.30439400830334       87.54225528430435       55.36829204139479
C           24.31572780472146       88.21244382928894       52.77365424932432
H           23.49544535212032       88.81326222612486       52.37179193467334
C           24.07703474883049       86.88362296380849       53.00705915224789
H           24.85314875770763       86.22408779519789       53.38594244366769
H           23.10832179155871       86.43944261927835       52.79389074787530
C           24.54954731326914       90.71949053428258       48.02694655985372
H           23.59634726923244       91.18785798843767       48.30857181033659
H           24.51675410372929       89.66393043423261       48.32291378380900
H           24.66409927143371       90.78868252035925       46.93986223931361
C           26.13369245661059       93.24996167872361       46.92576415456581
H           25.10817670726569       93.12161212845946       46.55786726461854
H           26.81763396054852       92.76459920940218       46.21618242094297
H           26.35762031272037       94.32254092818160       46.95941141869204
O           27.10648132315749       93.35498561308695       52.94398159790737
H           27.45337132863204       94.22743355662115       52.74275808169553
H           26.35176092394277       93.19435853297280       53.47683273131769
C           30.57509224156219       88.31161723877355       48.70829763734894
H           30.81434281242418       87.33862666149116       49.15486756162758
H           31.41738466390747       88.62981682130020       48.08141275766174
H           29.68051331703914       88.20279216566605       48.08594750455823
N           31.25269698512454       89.66792662912229       50.72317379521038
H           32.18084136912173       89.29079069190421       50.78749983047636
C           30.32072967415897       89.31738996495132       49.77804547706065
C           30.71210562761490       90.59110649642329       51.53310915332213
H           31.22390871939068       91.03999599116680       52.36983873469706
N           29.48125037853749       90.84506806125393       51.14339169217097
C           29.21582849064394       90.06308563026154       50.05514632657929
H           28.25897341532787       90.10152953614022       49.56506182454154
78
 energy: -116.030799821833 gnorm: 0.055806232175 xtb: 6.7.1 (edcfbbe)
Fe          28.22739993515544       92.07737504576824       52.07087717857808
N           29.17565885480881       93.74307962388160       51.48498103546727
N           29.34454795281940       92.06586319313675       53.76109830385494
N           27.16177450672660       90.52756128045574       52.74974624806435
N           27.03719759467036       92.17601223442239       50.42888189792694
C           28.97166526333717       94.42430325096403       50.31160455796750
C           29.73693945771286       95.64188021421623       50.30817008986609
C           30.44373182204954       95.67538599963567       51.47788036501829
C           30.10016697663778       94.47219397913078       52.18697276809810
C           30.28862321091312       92.96926742067734       54.13191948207329
C           30.95717576236627       92.55465844811971       55.33882289560901
C           30.40062001828052       91.34143135041811       55.69107437826163
C           29.37505545247192       91.07672174770957       54.68588631195500
C           27.44667102273204       89.77431735413246       53.84453543448356
C           26.45935984283209       88.74506634241372       54.03892958232603
C           25.54252421311257       88.89864761560038       53.01988479736753
C           26.03333781327661       89.99349342027648       52.20540236942287
C           26.07224973185953       91.27450547068554       50.08916138976550
C           25.62771090850569       91.49351292640330       48.73572931244164
C           26.28841978964711       92.60690303030252       48.28893968503582
C           27.18327325866333       93.00149793974018       49.35746404135284
C           28.09002500735070       94.04653957756054       49.30799053569493
H           28.11496155790876       94.62344552269475       48.39495261144532
C           30.62665775001945       94.10547788175278       53.41298290974488
H           31.39156050621964       94.74383616199277       53.82866489823584
C           28.52510144053129       89.98789008637048       54.68887782745283
H           28.69309184240678       89.23120561618256       55.43873941739299
C           25.52440424045319       90.35031282143758       50.96920799957144
H           24.61927606442573       89.85582845919470       50.64259813109472
C           31.33082217220279       96.75364762968894       52.00948288757076
H           31.36455710232493       97.59090019515659       51.31802674062909
H           32.34969123826624       96.39477411867766       52.15936171506603
H           30.96208248474263       97.11756003637522       52.97058548923564
C           29.58847044971696       96.69590211452275       49.26551244755119
H           28.53911695059957       96.78517130630080       48.98465400292029
H           30.15817785814400       96.45447974779786       48.36924778135064
H           29.92037428407384       97.65712453954080       49.64618912264869
C           32.02060777082090       93.39649839360153       55.96336196618724
H           31.65431324518142       94.41408975135575       56.10437120514182
H           32.89368447314738       93.44912387466272       55.30878177633615
H           32.33316012837545       93.01512575385169       56.92659135760310
C           30.69565465070757       90.40048182529421       56.74185004589622
H           29.97679660251516       89.59166046238148       56.83277400539702
C           31.73873481121193       90.38311804721276       57.54650813681619
H           32.50849759740334       91.13288565205748       57.51475960228436
H           31.87452781654277       89.60257634538743       58.27638684007776
C           26.33678874924057       87.90348144641841       55.26673564033420
H           26.56933712198059       88.50844010941483       56.14381600048940
H           27.01087645249941       87.04628938734238       55.26547458510339
H           25.31629646503177       87.53907958231994       55.36186869197586
C           24.30959720755911       88.18455865983194       52.77791834744201
H           23.50829394893829       88.79501291937177       52.36614323725197
C           24.08664506405777       86.91010671351580       53.00051316691216
H           24.84699502692228       86.24563140845987       53.37819154760888
H           23.12666440017768       86.45752662433161       52.80412870563103
C           24.55080130886067       90.73169670014326       48.03426568603322
H           23.58741184861667       91.17463755350404       48.29606139827816
H           24.53152368486150       89.68338003883764       48.32514941254659
H           24.66921817180703       90.78819866737962       46.95506886558594
C           26.14047124197009       93.24317812232943       46.94393852146300
H           25.12324804934656       93.12257860110114       46.57396868451994
H           26.81448285763075       92.77271990772044       46.22500847578804
H           26.36426226686877       94.30689376652983       46.97209041310339
O           27.07368255486393       93.37491111027119       52.95680987826071
H           27.40316688062227       94.26163223677433       52.78060590542792
H           26.30655600699118       93.22926750135828       53.50737177040380
C           30.57883297259484       88.31021938343633       48.71062969579199
H           30.81703403662592       87.34133591334830       49.14673763836651
H           31.41196499118154       88.62104116557785       48.08196637924679
H           29.69276914385927       88.20542888924012       48.09284458856857
N           31.25903154000197       89.65836058343531       50.71342954253328
H           32.18978118927397       89.28207224888820       50.78203762069523
C           30.32427707551224       89.31302914183391       49.77454355555510
C           30.70800291821524       90.58965903904782       51.52316109758951
H           31.21560439040907       91.03648744528421       52.35287748974337
N           29.47887226988688       90.85103389936685       51.15205779983241
C           29.22385358502514       90.06711743437901       50.06589566852131
H           28.27320514469583       90.10065999006332       49.57526841111476
78
 energy: -116.038890082912 gnorm: 0.035264762824 xtb: 6.7.1 (edcfbbe)
Fe          28.22518171052366       92.07972841734468       52.06887484867741
N           29.18202583608663       93.72673116155627       51.46934800707061
N           29.35102049562113       92.04840490227446       53.73622451030419
N           27.17838263778893       90.52406459689227       52.73461389747955
N           27.06063607371870       92.15864068617596       50.42579249744515
C           28.95590818259631       94.42581175356442       50.31431574242126
C           29.72009313339885       95.65263611671183       50.31024621035471
C           30.42674949655023       95.67900771503805       51.47228409140838
C           30.09019719346297       94.46386999783194       52.17998066398538
C           30.29740837046750       92.95451011642530       54.10686690733541
C           30.95908041866982       92.54654919374745       55.32495621852514
C           30.41342528124287       91.33414883383963       55.67316915426375
C           29.38132375215233       91.06506412661136       54.67145439614552
C           27.44984061107357       89.78467385959793       53.84479522441551
C           26.44113863152878       88.76959810321800       54.04799282769621
C           25.54253755865323       88.91239447310602       53.02316727101523
C           26.04241379208349       90.00080224082139       52.19887525159980
C           26.06094427978117       91.28414679091084       50.10244888630812
C           25.60124487815173       91.51943786389803       48.75122296200063
C           26.29849060363567       92.59815500714168       48.28931873816995
C           27.21364683506108       92.97799759486936       49.35097529205639
C           28.09593435893255       94.04191403162186       49.30146592450772
H           28.10229775205664       94.63792800987878       48.40008255572905
C           30.62409976539073       94.10038550358070       53.40109758039163
H           31.37783380017894       94.74831511172206       53.82162062629561
C           28.52396995658062       89.98294885348693       54.69382869945981
H           28.66517303360402       89.23888293603360       55.46365289789402
C           25.52223445521590       90.34411916555230       50.96646102150596
H           24.64073621087182       89.81190428883276       50.62610478439086
C           31.32412618653396       96.74611495146141       52.00072432907708
H           31.36677718635386       97.58750157080996       51.31533189313085
H           32.33836201092270       96.37740838162284       52.14679216044324
H           30.96231870243118       97.10677515283938       52.96363815011207
C           29.59602487857574       96.70144880752925       49.26087162522516
H           28.55192678033044       96.80439901519492       48.97195168422382
H           30.16920113224163       96.45111532264660       48.37010272138887
H           29.94090996696993       97.66179665146585       49.63201969032785
C           32.01128131832441       93.38571493456207       55.96503149279922
H           31.64719410265942       94.40350741106327       56.10197528955621
H           32.89300241442287       93.43504413612864       55.32431008183311
H           32.31269634302918       93.00806793538946       56.93274974379615
C           30.70603776430920       90.40570276279084       56.74392758296817
H           29.98037622095189       89.60882622358041       56.84829405753572
C           31.75480464483572       90.38868629817770       57.55576459906619
H           32.54218778748712       91.11799116456783       57.51576069988663
H           31.87626040153350       89.61622494294502       58.29508937282976
C           26.33404877347061       87.90840694933452       55.25815355777319
H           26.57017466710057       88.49376784744874       56.14646992907381
H           27.01423672032156       87.05748892029430       55.22963967622105
H           25.31967079117055       87.53001598587498       55.35441551647736
C           24.30782686745649       88.19335377539542       52.77410863062325
H           23.51320642228860       88.79896221205239       52.34999626504298
C           24.08750619813626       86.90831829884725       53.01566324393043
H           24.85319061862804       86.24688704391363       53.38179564573270
H           23.13446906391661       86.44896309708619       52.81136826216072
C           24.54166447534790       90.74515896740947       48.04464278329715
H           23.56086467156223       91.16126897463921       48.28601545806168
H           24.54718617044286       89.69858615976432       48.33795015993203
H           24.67624845074706       90.79548167390783       46.96761535994502
C           26.15319444135447       93.24181884149935       46.95433871066856
H           25.13477533507988       93.12740866412895       46.58953482714990
H           26.82277715340923       92.77826797556806       46.22838840556028
H           26.38151865030475       94.30264446708516       46.99251358968588
O           27.02055289401476       93.39600603655758       52.97041915360113
H           27.33776818730634       94.29618267021844       52.83306256170892
H           26.25810753541586       93.25985577570212       53.53997754235893
C           30.58146246087979       88.30852690100322       48.71092011382203
H           30.82103346062311       87.33871202743855       49.14221745755324
H           31.41239939994146       88.61565278629193       48.07894990674031
H           29.69649831908559       88.20540467200968       48.09418901887241
N           31.26632953652403       89.65558185399765       50.70775261653150
H           32.19743553721864       89.27814745435522       50.77632955880351
C           30.32715412380727       89.31139357894509       49.77401503012935
C           30.71417937682945       90.59031489519805       51.51696399373027
H           31.22281098625001       91.03852726717511       52.34216905626432
N           29.48320478663429       90.85532529820787       51.15617238289236
C           29.22917688288656       90.06732334553551       50.07274122037865
H           28.27987009485281       90.09614846805235       49.58293750222381
78
 energy: -116.044510380994 gnorm: 0.027635995047 xtb: 6.7.1 (edcfbbe)
Fe          28.22812381137427       92.07606164737491       52.06107593511958
N           29.17603929290394       93.72185795474412       51.45810455545104
N           29.35325856551808       92.03364961920124       53.71832990307658
N           27.18666729273562       90.52441176208040       52.72720501726000
N           27.07550144410379       92.14269020284917       50.42582354675891
C           28.93897489790892       94.42450285550916       50.31830834334195
C           29.69595819376480       95.66149872928121       50.31342158458089
C           30.40568784504252       95.68088868998946       51.47043060842267
C           30.07544629391795       94.45494847393303       52.17196765031012
C           30.30053826776503       92.94154478264416       54.08656578265351
C           30.96306044207593       92.53627024417668       55.30509943071538
C           30.42587366828474       91.32512707984026       55.65374921549044
C           29.38891780438482       91.05360154097357       54.65840661700879
C           27.44551605310960       89.79930173523225       53.84991806861731
C           26.42621994795577       88.79345965788235       54.05662851583924
C           25.54476538075501       88.92284775043261       53.02187158073617
C           26.05660778079912       90.00145226766072       52.19036826088577
C           26.05721072189987       91.29076662746746       50.11358621482206
C           25.57987249282645       91.54380744633249       48.76943118270065
C           26.30759111606935       92.58992150256607       48.29403657185497
C           27.23439949149207       92.95608187563735       49.34918813210523
C           28.09519344374791       94.03602885679682       49.29634276392157
H           28.08525014219373       94.64593944664847       48.40427132202955
C           30.61725299105368       94.09481021918914       53.38927983748350
H           31.36081936807094       94.75191605300196       53.81420935275766
C           28.51734403777789       89.98355306546465       54.70390470232212
H           28.63291020345425       89.25285301931564       55.49147839447613
C           25.52994427433463       90.33149877012902       50.95777877464950
H           24.66725931510698       89.77757006059136       50.61301541009833
C           31.31823493587608       96.73565134078760       51.99551911629704
H           31.36880118058472       97.57912647938865       51.31165921311351
H           32.32799558947717       96.34981131307366       52.13225063223214
H           30.96541871018707       97.09762892091861       52.96144147667768
C           29.60051171165266       96.70511153109247       49.25359406961488
H           28.56231663514336       96.83199483790317       48.95030216150168
H           30.18171478971552       96.43380325787420       48.37207701839025
H           29.96732431266830       97.66226518114033       49.61832819664505
C           32.00411541489476       93.37485369162049       55.96275079581687
H           31.63896945378451       94.39383694868728       56.09277629116148
H           32.90170072046444       93.41870986017349       55.34282493379403
H           32.27806204972239       92.99296316707216       56.93945748822067
C           30.71828796444491       90.41256422798347       56.74020101551282
H           29.98257950702448       89.63117849732288       56.87417573399787
C           31.77445304523281       90.39347177047142       57.55119229794792
H           32.57941218019398       91.10316459927431       57.49974269045531
H           31.86643711204043       89.63780829096676       58.31470303521526
C           26.33271694808192       87.91104828663386       55.25110880451538
H           26.57106302971330       88.47323490313926       56.15454192680954
H           27.02432298519596       87.06896674073303       55.18541543268137
H           25.32311047462347       87.51674374707571       55.34474746968753
C           24.31253124398984       88.20111733460753       52.76249865421214
H           23.51596868767790       88.79524828476083       52.33399130543977
C           24.10022219925081       86.91225624159348       53.00809833412981
H           24.86324607402588       86.26759044250282       53.40458483245043
H           23.14285692360405       86.45581430420532       52.82145787468525
C           24.53111996652908       90.75963430812180       48.05943836642545
H           23.53387787421720       91.14677613346670       48.28347328546621
H           24.56225264605152       89.71300386416910       48.35549102617852
H           24.68063799627912       90.81070094286589       46.98301643207120
C           26.17012718093033       93.24300262285880       46.96339111402501
H           25.15080601511762       93.13369642454515       46.59822258284678
H           26.84133615472730       92.78793187385907       46.23315155478887
H           26.40120360462056       94.30347839731517       47.01638287046703
O           26.94401039792183       93.41928585225210       52.97586385581707
H           27.25485066303732       94.33482055577848       52.91479844799792
H           26.20897561708638       93.29561135476769       53.58924784300910
C           30.58470594787633       88.30319753539204       48.70803019059268