78
 energy: -116.057577545868 gnorm: 0.000073097214 xtb: 6.7.1 (edcfbbe)
Fe           3.21773764973282       31.82572141738227       46.90009186766433
N            1.52463236750550       32.07601208448285       47.96064665365345
N            4.21969983281563       32.90774926906440       48.27256560413173
N            4.91536692292961       31.50011033598704       45.91314250696579
N            2.21514783864222       30.74660994195795       45.56172729984876
C            0.28170594820455       31.63757354524301       47.62651600499572
C           -0.68276887104927       32.02006493041956       48.63242603078087
C            0.00694673527209       32.70433027862544       49.58519123901388
C            1.38247504691099       32.73975522351660       49.14290065385651
C            3.70721010942689       33.49193762524396       49.39225073676856
C            4.71528120233280       34.25760760216509       50.07346214954688
C            5.85356263438526       34.16048363947483       49.31691766465097
C            5.52367768328297       33.28815664573157       48.20875011802053
C            6.15339120957477       31.95984495066559       46.24296842040737
C            7.14496649657192       31.47391511653142       45.31584673151009
C            6.47174340511309       30.71365008193984       44.39766572878753
C            5.07776103839246       30.74428031837072       44.79990951971458
C            2.72609059403025       30.14265772595049       44.45850677849206
C            1.67923695217792       29.49480944714690       43.69674150298374
C            0.52191351944314       29.72269631855351       44.37133128364950
C            0.87903681810548       30.50404800121562       45.53670012210728
C           -0.03177439317950       30.91454419338334       46.49075927787930
H           -1.06569219116076       30.64192084407131       46.34464522589499
C            2.39338438699932       33.39180362275024       49.82223818189964
H            2.13462509536503       33.88852042478808       50.74497522095598
C            6.44247007775490       32.81092245043136       47.29412353938553
H            7.46819971415744       33.11960212472211       47.42051045176798
C            4.05974579259638       30.12485506388388       44.09865070042127
H            4.32479335657789       29.58726662628907       43.20095666185519
C           -0.48667991344275       33.32391982239731       50.84791533351605
H           -1.55079394517672       33.14255078990772       50.97696800520244
H           -0.32193823915939       34.40194695073677       50.83813930731517
H            0.03835273111974       32.91085926490113       51.70959570371853
C           -2.13441511174756       31.68859442348259       48.57382686380134
H           -2.27990142113299       30.60850809764290       48.54470877554194
H           -2.58820293645450       32.11415244201243       47.67856252275163
H           -2.65725785569095       32.08128755371686       49.44253747143281
C            4.49809668864218       35.03777272992265       51.32423160339408
H            4.09897901516990       34.39862272319037       52.11238270714509
H            3.78657284119346       35.84733625737798       51.15580455953557
H            5.43193661658860       35.47401317455620       51.66959982900212
C            7.12412228834876       34.80595914059888       49.57416849610950
H            7.40512115719028       34.87717612743557       50.61971393322796
C            7.92182725497085       35.33753726941443       48.65481318974648
H            7.66482938120336       35.34134448778817       47.60911017216096
H            8.85321558750010       35.80913521813181       48.92146659565270
C            8.60928478053600       31.72156115872927       45.42012661192287
H            8.92755738143033       31.71725126740527       46.46145190441737
H            8.87246723567703       32.68998269983199       44.99113024522656
H            9.15698543098808       30.94888993234049       44.88431701777178
C            6.98520177254608       29.97825343286895       43.26335734093914
H            6.46417996481819       29.05707277466935       43.02963196463323
C            8.01488855464871       30.34512355872635       42.50711806828837
H            8.53974685478421       31.27134119229770       42.66355410628994
H            8.35357311827115       29.73823675845549       41.68373035721046
C            1.90456245249525       28.73922799364620       42.43224451222247
H            2.56696298932202       27.89123002486314       42.60733165896361
H            2.36599985260023       29.37857963694466       41.67925110893979
H            0.96569940200771       28.36271001974060       42.03361760709226
C           -0.86470676133652       29.28460474988185       44.04510404665385
H           -0.88520153841586       28.73016220134394       43.11012169932027
H           -1.52645208408809       30.14566321995351       43.94863366868905
H           -1.25862333166493       28.64194414867594       44.83287640587920
O            3.60060078232275       30.00011642739462       48.23519929681682
H            2.75965006671950       29.97188628374836       48.70456243902865
H            4.24929152174039       30.37696062411543       48.83950799343531
C            2.70326857881863       35.66034342936998       42.88970955984882
H            3.37542475966195       36.51780999437849       42.92026914725892
H            1.70388163801455       36.01939018438488       42.64414735945792
H            3.03393953209026       34.98696053433363       42.10526754056635
N            2.32515898361301       35.54639151621432       45.36269119162303
H            2.02220560078450       36.50122068427758       45.46309523721696
C            2.70204657015690       34.94465987337086       44.19063888147164
C            2.43852740268725       34.62868749452515       46.34907944788087
H            2.20944822839916       34.82112400792220       47.37671909822956
N            2.86372997144048       33.48375470972020       45.87321698682305
C            3.03198571159278       33.66424561244305       44.53163924700149
H            3.37728346533740       32.86644753023117       43.90699530200870
