78
 energy: -115.964602163681 gnorm: 0.287299322451 xtb: 6.7.1 (edcfbbe)
Fe           3.21500000000000       32.00400000000000       46.80200000000000
N            1.56000000000000       32.08700000000000       47.98199999999999
N            4.26200000000000       32.96500000000000       48.27200000000000
N            4.95700000000000       31.52200000000000       45.94000000000000
N            2.25600000000000       30.77200000000000       45.57099999999999
C            0.29800000000000       31.58200000000000       47.68200000000000
C           -0.63200000000000       31.89800000000000       48.75600000000000
C            0.05400000000000       32.59400000000000       49.71000000000000
C            1.42000000000000       32.69800000000000       49.23499999999999
C            3.77000000000000       33.51800000000000       49.44700000000000
C            4.78300000000000       34.31700000000000       50.09500000000000
C            5.89700000000000       34.24199999999999       49.33500000000000
C            5.59700000000000       33.34800000000000       48.23000000000000
C            6.23500000000000       31.97200000000000       46.25999999999999
C            7.23600000000000       31.32500000000000       45.43600000000000
C            6.56900000000000       30.51800000000000       44.55299999999999
C            5.16000000000000       30.66000000000000       44.86100000000000
C            2.78300000000000       30.13200000000000       44.44900000000000
C            1.70900000000000       29.65300000000000       43.60000000000000
C            0.53800000000000       29.85300000000000       44.25399999999999
C            0.87700000000000       30.52300000000000       45.50800000000000
C           -0.04400000000000       30.92900000000000       46.47500000000000
H           -1.09900000000000       30.72900000000000       46.28700000000000
C            2.43400000000000       33.42800000000000       49.89299999999999
H            2.16700000000000       33.95800000000000       50.80700000000000
C            6.51500000000000       32.90000000000000       47.26199999999999
H            7.52400000000000       33.31100000000000       47.29900000000000
C            4.13000000000000       30.09800000000000       44.10200000000000
H            4.40100000000000       29.59800000000000       43.17199999999999
C           -0.50900000000000       33.26600000000000       50.97200000000000
H           -1.49800000000000       32.82400000000000       51.21700000000000
H           -0.63500000000000       34.35500000000000       50.79300000000000
H            0.18200000000000       33.09900000000000       51.82600000000000
C           -2.11600000000000       31.53800000000000       48.80100000000000
H           -2.31700000000000       30.70600000000000       48.09300000000000
H           -2.72500000000000       32.41800000000000       48.50400000000000
H           -2.39300000000000       31.21300000000000       49.82700000000000
C            4.63200000000000       35.08300000000000       51.40500000000000
H            4.92100000000000       34.42700000000000       52.25400000000000
H            3.57500000000000       35.39700000000000       51.53600000000000
H            5.29500000000000       35.97400000000000       51.39699999999999
C            7.10900000000000       34.83100000000000       49.66400000000000
H            7.54400000000000       34.67100000000000       50.66199999999999
C            7.83000000000000       35.65299999999999       48.74200000000000
H            7.43400000000000       35.84099999999999       47.73299999999999
H            8.78900000000000       36.10699999999999       49.03099999999999
C            8.74600000000000       31.44700000000000       45.67400000000000
H            8.95400000000000       31.41000000000000       46.76500000000000
H            9.11300000000000       32.41500000000000       45.27000000000000
H            9.27300000000000       30.60400000000000       45.17799999999999
C            7.06800000000000       29.61300000000000       43.61299999999999
H            6.70600000000000       28.57400000000000       43.59900000000000
C            8.05600000000000       30.00000000000000       42.64600000000000
H            8.44400000000000       31.02900000000000       42.62599999999999
H            8.43600000000000       29.27199999999999       41.91400000000000
C            1.88300000000000       29.07300000000000       42.20900000000000
H            2.37500000000000       28.07900000000000       42.27999999999999
H            2.52000000000000       29.74700000000000       41.59800000000000
H            0.89000000000000       28.94900000000000       41.72700000000000
C           -0.85300000000000       29.34400000000000       43.83800000000000
H           -0.74700000000000       28.38900000000000       43.28000000000000
H           -1.34500000000000       30.09200000000000       43.18100000000000
H           -1.47300000000000       29.16600000000000       44.74199999999999
O            3.48300000000000       30.15100000000000       48.10699999999999
H            2.72700000000000       30.13000000000000       48.69400000000000
H            4.14800000000000       29.56100000000000       48.08500000000000
C            2.02200000000000       35.56700000000000       42.66900000000000
H            2.87500000000000       36.16899999999999       42.28900000000000
H            1.12300000000000       36.21599999999999       42.73100000000000
H            1.83500000000000       34.72500000000000       41.96900000000000
N            2.65600000000000       35.83200000000000       45.14500000000000
H            2.62200000000000       36.83100000000000       45.17599999999999
C            2.36100000000000       35.02100000000000       44.05400000000000
C            2.98800000000000       34.98300000000000       46.12300000000000
H            3.25800000000000       35.31800000000000       47.12500000000000
N            2.94800000000000       33.74100000000000       45.73400000000000
C            2.51200000000000       33.68400000000000       44.41099999999999
H            2.35900000000000       32.75500000000000       43.87899999999999
78
 energy: -116.026220127986 gnorm: 0.111523471368 xtb: 6.7.1 (edcfbbe)
Fe           3.23265434601924       31.95877345589525       46.84164761545431
N            1.54152300637143       32.10464627545848       47.98325853401700
N            4.26236225601746       32.97720950847352       48.27810112774464
N            4.96801605246830       31.52959347652848       45.92288694308991
N            2.24322535778512       30.77619928629825       45.55565897716180
C            0.29806489048088       31.59759604486285       47.67864981769719
C           -0.63401118696015       31.90328503108243       48.74888079525816
C            0.05557515860852       32.60470134846071       49.69892366161313
C            1.41624353281981       32.71821116415968       49.21689399628509
C            3.75401489252373       33.53288238051733       49.42955904288687
C            4.77155134227229       34.30647280135260       50.09952512251999
C            5.89760747071623       34.23174567111025       49.32734818139842
C            5.57953632883347       33.36247826500911       48.20902698940549
C            6.22728936887127       31.97178923162300       46.26567614947231
C            7.23431009600750       31.33423344810821       45.44720660475096
C            6.56856439485579       30.52384203907657       44.56157056462437
C            5.15416362716506       30.66928878511947       44.86552499952488
C            2.77251339054266       30.17636407356692       44.43187843906506
C            1.70760547546178       29.64965801349803       43.60159288240126
C            0.53767451128309       29.84481912579773       44.26984620612018
C            0.87986712497231       30.54470717932509       45.50341891686607
C           -0.02672469626423       30.93883104779886       46.48238424117250
H           -1.07628402650254       30.72566557969088       46.29974855146875
C            2.43211545234116       33.42013848239862       49.87058888232635
H            2.17038159080334       33.93540700882844       50.79009662292842
C            6.49639379376548       32.90435635925545       47.26275443684379
H            7.50849440990217       33.29755475718259       47.31524781301399
C            4.12404857807273       30.11310685347506       44.11070307611286
H            4.39882579622562       29.59724884550883       43.19435901279495
C           -0.49701041042625       33.24986149238084       50.95415898933389
H           -1.47646058321613       32.82844779520227       51.20792361127581
H           -0.62712947559433       34.32864580264419       50.79508147797331
H            0.17390424896395       33.10189584299506       51.80837719670351
C           -2.09833087901143       31.53737065332710       48.79432483811674
H           -2.31605092669326       30.71658382457228       48.10380829040088
H           -2.71415202886814       32.40055498129922       48.51087572264630
H           -2.38620200263936       31.22208010875620       49.80486688675528
C            4.62803238538362       35.07180780701631       51.39160899007319
H            4.91325498295732       34.43651795164058       52.24063686509174
H            3.59304461776812       35.39684990413869       51.53742919172110
H            5.28043583457372       35.95331479704338       51.39261905654226
C            7.14620517885896       34.84832192184940       49.63419955067206
H            7.55217677583483       34.70023618388439       50.63698777722178
C            7.82677062861284       35.62925930873526       48.76055314758383
H            7.43659439517411       35.82840732048744       47.76701835462782
H            8.76754381006182       36.09391298076294       49.03305846638234
C            8.72505854317757       31.44949034467456       45.67155207172207
H            8.94734819070538       31.41312859247788       46.74508946994835
H            9.10682393941289       32.39860654888720       45.27544043602231
H            9.25437212232005       30.62411010289411       45.17993692065417
C            7.09582676811298       29.62417857303488       43.58316381011652
H            6.71769606576595       28.60009000701869       43.57113533812168
C            8.03942151063877       29.98438172046146       42.67386866924181
H            8.42187090852125       30.99944753860843       42.63727934426274
H            8.41986806350116       29.28104522772956       41.94033005323937
C            1.88517264361954       29.07071803182734       42.22433217251383
H            2.37317941470291       28.08977755662947       42.27568747686970
H            2.50688524352046       29.73242525866126       41.60862165293944
H            0.91187122370751       28.95045222268838       41.73646125818517
C           -0.83411236422429       29.35503385338955       43.84876339455447
H           -0.74519902820107       28.41190907485461       43.29486855184446
H           -1.33557348262544       30.08312285839768       43.19812849271030
H           -1.46246721825478       29.17402088433743       44.72630368463194
O            3.47444836086663       30.15726234330656       48.10652409314531
H            2.73135105373497       30.11237458474477       48.70591068592838
H            4.16831367442956       29.52550056123372       48.09877190954624
C            2.02252902023146       35.56896507464573       42.67908536267151
H            2.86007701976300       36.16285896449217       42.29345815703968
H            1.13382044601569       36.20819804880995       42.72611805046503
H            1.83621151443887       34.74257366489041       41.98764679135898
N            2.65465366126917       35.80681748117537       45.12664577710161
H            2.62163416050058       36.81279921510949       45.15966163358541
C            2.36226630328837       35.01590599559889       44.03550439672668
C            2.98708251647788       34.96228685810473       46.12657599344720
H            3.25847118586775       35.30182508977479       47.11486728643872
N            2.92123310310626       33.71161676525585       45.75381204291474
C            2.52409429783256       33.70967304492258       44.42698486387918
H            2.37054225057646       32.78852969516419       43.89398354103228
78
 energy: -116.040672271014 gnorm: 0.037310727473 xtb: 6.7.1 (edcfbbe)
Fe           3.23972165275295       31.93274948736394       46.87058621385236
N            1.53100994183294       32.11894049970086       47.97980823863659
N            4.25515127004689       32.99282971039671       48.27177216716974
N            4.97152898229373       31.53271700567652       45.92130523424662
N            2.23426513318656       30.79101491313341       45.54020903380357
C            0.30178190335590       31.61761467473051       47.66983566375666
C           -0.63488904060118       31.91436681786831       48.73529930538232
C            0.05595350288474       32.61927869210870       49.68044094283517
C            1.41216557915549       32.73921742687738       49.19163567745741
C            3.74274959999010       33.54317582623253       49.40993472899611
C            4.76125373061543       34.30129850658638       50.09695775221645
C            5.89081164679123       34.22201976736838       49.32421701600721
C            5.55970931894869       33.37163662145211       48.19712806724100
C            6.21429561813135       31.97286805085221       46.27305911401317
C            7.22541922553234       31.33941397551680       45.45797972971329
C            6.55868146352964       30.52959088660631       44.57585523428396
C            5.14378855925397       30.68704864399967       44.87163127584260
C            2.76307487198545       30.21751107597754       44.42154159686581
C            1.70690475156739       29.65870997841537       43.60242593558435
C            0.54047862961792       29.84764259857797       44.28250758610832
C            0.88830983949634       30.56468806252448       45.50040374937136
C           -0.00848205730205       30.94864166019211       46.48744961557074
H           -1.05164951998794       30.71098376768845       46.31742581931334
C            2.43012226108877       33.41643294253478       49.84571417143152
H            2.17405879869671       33.90853514725818       50.77578995083896
C            6.47733749717565       32.90513367610495       47.26848205858551
H            7.49357505208140       33.27480587771827       47.34342956900286
C            4.11573856477251       30.13260947664684       44.12075218448848
H            4.39463465537801       29.59405572824300       43.22253524957156
C           -0.48357109138111       33.23726156143901       50.93308632913968
H           -1.45530130392188       32.81870278795989       51.18700379081388
H           -0.61456896250647       34.31201892172183       50.79040430478620
H            0.18304641927790       33.09148936576406       51.78116459289127
C           -2.08192048528738       31.53903156006862       48.78404755154035
H           -2.30426461123757       30.72178602629301       48.10428068369141
H           -2.70432124538799       32.39192161043214       48.50877525099000
H           -2.36833262771861       31.23085224301161       49.78925927194674
C            4.62152610458050       35.05935526477058       51.37810637373551
H            4.90423727268046       34.43377385638393       52.22690619369887
H            3.59864628571172       35.39338510602560       51.53154174944101
H            5.27187487377094       35.93273947868630       51.37794964987603
C            7.16240675427530       34.85938355515695       49.61335700931931
H            7.54714566183528       34.71178232475285       50.61902641562509
C            7.82424791843676       35.61660392539938       48.76694052137977
H            7.44974661004653       35.81146058796330       47.77532027957397
H            8.75899332262993       36.08397337497109       49.02705124666243
C            8.70098220027719       31.45563813205597       45.66774809456366
H            8.93467217167217       31.41835926715928       46.73150308048244
H            9.08912038549392       32.39511918699095       45.27391514299838
H            9.22318286325301       30.63886200956387       45.17178178831345
C            7.10468827550852       29.63840561171478       43.56668957985902
H            6.70921638747206       28.62633600047985       43.55861326391278
C            8.02152476090981       29.98173860565216       42.68868193372897
H            8.41905729318280       30.98238869620932       42.65052241869625
H            8.41374017199514       29.28771685074747       41.96339709089703
C            1.88822181326703       29.06840685780471       42.24113023276239
H            2.37586976204181       28.09511378088117       42.28671315295263
H            2.50322754817906       29.72335245874880       41.62445624742534
H            0.92561491412509       28.94778839432719       41.75005283738039
C           -0.81600116357265       29.36855376948566       43.86671109749756
H           -0.73210660984858       28.43426345256279       43.31157301809273
H           -1.31605958288409       30.09242206570654       43.22126323617178
H           -1.45142252523014       29.18799468624777       44.72964101278749
O            3.48011220932828       30.15163534161544       48.10437589810743
H            2.75414733938659       30.07052732676971       48.72459760561670
H            4.17495590086651       29.49705189603395       48.11920878825387
C            2.02583986571254       35.56693622183577       42.68916505890201
H            2.85265094024621       36.16052306128771       42.30027836374945
H            1.14282623269702       36.20155695808587       42.73592353792161
H            1.83391413814758       34.75170064027041       41.99963237039815
N            2.65913754800802       35.78341451496956       45.11592067331837
H            2.62970235810117       36.79111830555908       45.15097470798668
C            2.36786045141387       35.00695219013320       44.02343172125218
C            2.97844469957938       34.94510280030513       46.13170748061793
H            3.25198678751291       35.28596005707807       47.11028538159197
N            2.90614440247397       33.69247192679206       45.75945130182500
C            2.52364151634864       33.71933682456728       44.44182225506668
H            2.38101461625992       32.80619905920579       43.90149752957075
78
 energy: -116.044494891677 gnorm: 0.018929276781 xtb: 6.7.1 (edcfbbe)
Fe           3.23978362664106       31.92427805837100       46.88485990768953
N            1.52783912228252       32.14095866559870       47.96244180396059
N            4.24468848337035       33.00268804425301       48.26179197064825
N            4.96402078389051       31.54542844872610       45.92356489261392
N            2.23338631703628       30.80978513243700       45.53596075081378
C            0.30368241786760       31.63656391054981       47.65521041797822
C           -0.63518798425376       31.93113442279508       48.71629330270142
C            0.05478514520712       32.63607437905952       49.65843411704307
C            1.40784475826804       32.75985534021923       49.16828451016583
C            3.73354784642940       33.55364066183134       49.39577762055705
C            4.75263993296327       34.30353669858182       50.08941267581146
C            5.88296565105021       34.21901587478368       49.32226895919953
C            5.54725861760648       33.37693763931226       48.19275064135848
C            6.20390238130039       31.97632407477516       46.28043987989363
C            7.21269813020650       31.34547783321730       45.46207041849037
C            6.54402655806296       30.54003622155616       44.58142868523104
C            5.13273657065283       30.70362180725959       44.87513812371011
C            2.75920060713643       30.24469864797873       44.41746485451063
C            1.70784718671835       29.67129586017148       43.60521908955691
C            0.54484915450083       29.85757249820205       44.28937368782763
C            0.89365252177454       30.58107845624561       45.49861432162324
C           -0.00283255674343       30.95492480291643       46.48562129831080
H           -1.04060581394661       30.68860344438888       46.33053816103079
C            2.42439870797539       33.42419688716144       49.83092353139375
H            2.17177707617364       33.89351027404727       50.77237539826005
C            6.46984620725296       32.90109830697035       47.27821552925045
H            7.49149468347765       33.24746981477706       47.37699187597626
C            4.10941897531339       30.14914464449275       44.12395250214193
H            4.39125869195491       29.59184013932954       43.23978869319101
C           -0.47301571713891       33.23226299207879       50.91972353759512
H           -1.44058304104433       32.80511396626758       51.17122487574835
H           -0.60482974518586       34.30871128054912       50.79384444942653
H            0.20344632195342       33.07315868914010       51.75692234623301
C           -2.07451678840561       31.54236030625843       48.76925117093258
H           -2.29146953667300       30.72022165327282       48.09417391589943
H           -2.70634627863050       32.38821771487959       48.49469723541936
H           -2.35127010679146       31.23644345506307       49.77726070613708
C            4.61139769313481       35.05318465781069       51.37056933279317
H            4.88969878358333       34.42319295828168       52.21701927108177
H            3.59072046183415       35.39341355499146       51.52414894265475
H            5.26774437758794       35.92113534326398       51.36970399775360
C            7.16153476633573       34.85444524373674       49.60876501997254
H            7.53495726880132       34.71679558229290       50.61917313751489
C            7.83718741074281       35.60521939841283       48.75090965877801
H            7.46796805492127       35.79591668044590       47.75701698432353
H            8.76645490581004       36.08205317035488       49.01443624796637
C            8.68431833923188       31.46572315886474       45.66177636521343
H            8.92683383498987       31.42504516938925       46.72314516077248
H            9.06606257922412       32.40706696898754       45.26738870997741
H            9.19826139630350       30.65156490075728       45.15454931126402
C            7.08942730312970       29.64809092823693       43.56817611374935
H            6.67278063948346       28.64515030116821       43.55076435032655
C            8.03530440799304       29.98338236220577       42.70092821755781
H            8.43705289112146       30.98181569778528       42.66112654259013
H            8.41541109247410       29.29095881375870       41.96835521359509
C            1.89424494638705       29.06463843306811       42.25479349387190
H            2.38532227815006       28.09391512947674       42.31266348030069
H            2.50932696146161       29.71467970418153       41.63377556201234
H            0.93387177665219       28.93569761211903       41.76246433862690
C           -0.81044228264697       29.38511893140821       43.88279711695358
H           -0.72838669158045       28.45285395924748       43.32597446725013
H           -1.30643953426423       30.11560769284775       43.24236510703390
H           -1.44420008697218       29.20699376702847       44.74689916149960
O            3.49605671662391       30.12171793370342       48.11330480158041
H            2.78710317049622       30.01206012429356       48.75260741560889
H            4.19144486652969       29.46458907809438       48.13920979874208
C            2.02812574521728       35.56438554459892       42.69701527735531
H            2.85080993580466       36.16253539648945       42.30664577523444
H            1.14498370280303       36.19833417134925       42.75454971097755
H            1.83008513855825       34.75504421094313       42.00236416085545
N            2.66582028757641       35.76644235866380       45.11843579368402
H            2.64261884722111       36.77330091845629       45.15343769284729
C            2.37671844571198       34.99491959251995       44.02299342084576
C            2.96847836714770       34.92864581519947       46.13899097685943
H            3.24084410709313       35.26703318036924       47.11717645135175
N            2.89020584376061       33.67696954812877       45.76312679293238
C            2.52746749100746       33.70754918954081       44.44487157731999
H            2.39348485230541       32.79953177001006       43.89627919003956
78
 energy: -116.046820703674 gnorm: 0.015517063957 xtb: 6.7.1 (edcfbbe)
Fe           3.23518824131544       31.92797530092928       46.88976762347273
N            1.53394526806606       32.15168155875547       47.94597173556375
N            4.23347250911903       33.00741958266165       48.25007754667606
N            4.95295637759240       31.55499341327629       45.93215979730061
N            2.23622747424645       30.82510315038341       45.53843604104620
C            0.30918623283853       31.65087401724173       47.64032051907807
C           -0.63334471946208       31.94823697362299       48.69533203363328
C            0.05498451612156       32.65382095919194       49.63469139610024
C            1.40746794357744       32.77476325628670       49.14629839813712
C            3.72570025687566       33.56076918023690       49.38320953033190
C            4.74325011962058       34.30739593264891       50.07988978727010
C            5.87372996031934       34.22019910699355       49.31708877812476
C            5.53696814498893       33.37821151699050       48.18988592789608
C            6.19378026418521       31.97797153130867       46.28907087709534
C            7.19968077458799       31.35452351829617       45.46255111462791
C            6.52800687777597       30.55569998122629       44.58082066879385
C            5.12109959563460       30.71602352010979       44.88209747207419
C            2.75735266386936       30.26161772505751       44.41974063037954
C            1.70987994867581       29.68413917375923       43.60973956424574
C            0.54990301008974       29.86750757566161       44.29690927291846
C            0.90021690835791       30.59203855275774       45.50011772178196
C            0.00138693590459       30.95647649463422       46.48428251024151
H           -1.03062490348235       30.66805057994301       46.34138122294033
C            2.41914712360708       33.43161939379751       49.81945611666714
H            2.16625262101433       33.88640103723073       50.76593122543400
C            6.46701804249385       32.89141229870526       47.29156407166236
H            7.49125601428735       33.21742298842397       47.41306450444348
C            4.10434156861071       30.15854508814522       44.12962754583621
H            4.38744262609977       29.59441129382774       43.25327712341559
C           -0.46122624533519       33.23007690462335       50.90735432107083
H           -1.42553533390702       32.79511768180732       51.15866824965234
H           -0.59313517457324       34.30974004619475       50.80650076531019
H            0.22686229464123       33.05046392162208       51.73216833326028
C           -2.06795366700115       31.54774964165304       48.74939054669385
H           -2.27591178801905       30.71779952680321       48.07989272133199
H           -2.71122042590829       32.38399783445340       48.46994169444864
H           -2.33772966451830       31.24450719665082       49.76072977484140
C            4.59728393162211       35.04991105243531       51.36313523347818
H            4.86735286864600       34.41203772303431       52.20702665108256
H            3.57718237034869       35.39486167077600       51.51340512916224
H            5.25985827755307       35.91363187843716       51.36881972917657
C            7.15406243860663       34.85566059923452       49.60103132727681
H            7.51883915707856       34.73410389284828       50.61550918684433
C            7.84266140951082       35.58965288237890       48.73385841652298
H            7.49022069341765       35.75381027606825       47.72855839643522
H            8.77702410041661       36.05625056402052       48.99760615925224
C            8.67003662417660       31.48141247658424       45.65040552380042
H            8.92423670158738       31.43493380442825       46.70925126115097
H            9.03957121910754       32.42888602913630       45.25765144296180
H            9.17917272716431       30.67262157950647       45.12903780601417
C            7.06669280912378       29.66689909418450       43.56216350706046
H            6.62929170909344       28.67409841473033       43.52876558235745
C            8.03059270230884       29.99320785284816       42.70721364257824
H            8.47139353449446       30.97711986130690       42.69901962906830
H            8.41867319259505       29.29002950329957       41.98922906541247
C            1.90400974044150       29.05948376407909       42.27013839056445
H            2.39821525128734       28.09066488945737       42.34977813739614
H            2.52207044459335       29.70080470286915       41.64201957673740
H            0.94602398336643       28.91757023338550       41.77520644006101
C           -0.80978035043882       29.40637309595260       43.89899376238319
H           -0.73787457062359       28.47660113068094       43.33675017228838
H           -1.30332600961071       30.14777438586117       43.26815832829566
H           -1.43819738142064       29.22972682291334       44.76789817257266
O            3.51043978575314       30.08795468356066       48.11979420223388
H            2.83099424537583       29.94454554707569       48.78830961484830
H            4.21158342972061       29.43612690350951       48.16670068585457
C            2.03300085507662       35.56420936004368       42.70446327477879