78
 energy: -116.058021804876 gnorm: 0.000084637822 xtb: 6.7.1 (edcfbbe)
Fe          17.65226146511052       13.70211261569137      116.56606778134649
N           18.98952262406088       13.22194495551877      117.99221050992908
N           18.63887696197851       12.52452593137084      115.26199392376520
N           16.36715573153524       14.21994246740867      115.13195779179007
N           16.72215387776356       14.90663513035369      117.85227761828548
C           18.98605425014476       13.63627779205318      119.28696099545544
C           20.08152826991028       13.04015269164188      120.01770247661385
C           20.74767727410259       12.25015540560719      119.13292633355843
C           20.04753216605109       12.37182187197197      117.87388686347884
C           19.74622943581118       11.76926426697696      115.51041619008349
C           20.12846908158338       11.02039178497339      114.34219477030899
C           19.21183303479793       11.32773173321860      113.37065523901524
C           18.29551732598125       12.27695786828081      113.97066168906751
C           16.33818423794261       13.75519019319685      113.85312864671928
C           15.24366635318934       14.33887075533574      113.11912980722727
C           14.59958083786206       15.17528531569325      113.99124540275692
C           15.32887334135324       15.08504463050619      115.24200344873287
C           15.63138431207963       15.67613225360444      117.60232884364740
C           15.23112136766314       16.40062992240054      118.78955929971598
C           16.10827660183970       16.04574497187041      119.76518429278774
C           17.03180183636596       15.11041685060869      119.15943581797637
C           18.07826698396758       14.51924743429005      119.84073877077574
H           18.19839441808664       14.76715001040927      120.88416185976203
C           20.41324148184088       11.70072359922001      116.72308975934926
H           21.27232053121018       11.05005884814154      116.78178723495243
C           17.22055171689565       12.83832743708095      113.31023169577364
H           17.05246105813649       12.53550771778735      112.28817856733707
C           14.97167819546299       15.76482678294146      116.39176910482290
H           14.11079621088618       16.41419453972026      116.34245140879608
C           21.95643723740468       11.40425067514624      119.34477328392573
H           22.30833812812965       11.48321611670973      120.37035765184717
H           22.76406897071395       11.71412792189095      118.68085195887825
H           21.73344585370380       10.35697095676975      119.13880792667200
C           20.36542058815522       13.29129310440321      121.45880706568374
H           19.51618747085134       12.99223397369002      122.07346145386065
H           20.55222854269789       14.35109575861828      121.63401166508062
H           21.23845790919880       12.73141408127458      121.78514271635399
C           21.33318235088922       10.15149802679965      114.23657519018103
H           21.13581014532702        9.15920437954863      114.64584264218249
H           22.16955003512805       10.58174877993180      114.78578541917277
H           21.62219345335318       10.04050984375528      113.19339563521920
C           19.14145001603683       10.86527953565837      112.00244355736918
H           18.75737955142225       11.58167176914178      111.28541099460546
C           19.49641166115526        9.65732915780132      111.57656748102467
H           19.83854064467979        8.88983936795472      112.24861580121546
H           19.43005819999823        9.38526470305963      110.53617091282266
C           14.95859741321149       14.10820874473352      111.67609012776492
H           14.41322778332953       13.17412657134316      111.53037857789816
H           15.88428201896770       14.04993419434138      111.10552452394036
H           14.35695334222626       14.92353570222883      111.27976797513818
C           13.44866385181432       16.02187460274803      113.76736573448017
H           13.44495946024699       16.95921893753635      114.31148223449649
C           12.42342851068568       15.73564373556706      112.97128322966198
H           12.35175518264267       14.80088375106701      112.44286225869456
H           11.60350720286674       16.42212520731282      112.83934284989947
C           14.07572804086223       17.33991964167611      118.85203853725719
H           13.14802064768095       16.82780826561710      118.59470752676312
H           14.21387938948977       18.16152226436165      118.14907056894441
H           13.97032321051365       17.75800333514590      119.85013069968177
C           16.17195645188193       16.48994478633904      121.18636826290083
H           16.08340807313658       15.63691084386050      121.85965222952933
H           15.36866300349869       17.18762568363514      121.40998161964316
H           17.12186396931644       16.98440111745484      121.39059705631095
C           15.64609238422396        8.72283900673935      118.07449166312554
H           15.01571390583117        8.19304458727068      117.36041558577523
H           15.19673039638915        8.62659887742273      119.06282233982216
H           16.62459751164348        8.25331591547076      118.08974451399041
N           14.71210963400976       10.99734030473735      117.59990771468770
H           13.75092111701334       10.74961944816686      117.76843125979933
C           15.78593034013169       10.15155831219011      117.69529451828198
C           15.17858256526526       12.21344078769562      117.23730833523122
H           14.55957470941336       13.07410393534029      117.08666014223374
N           16.48203442660034       12.18877259692470      117.09752464570046
C           16.87410092090871       10.91328751217974      117.37918548551335
H           17.90516678703479       10.63062426304636      117.33609743884679
O           19.11526378351914       15.36415506524206      115.95900011773678
H           19.55434614952841       14.93868168462451      115.21443746701448
H           19.72304607366551       15.32771638796252      116.70567725929742
