87
 energy: -124.720511660978 gnorm: 0.000041677850 xtb: 6.7.1 (edcfbbe)
Fe           3.52635561305731        5.35114060244173        0.33149697593373
N            1.66379772230829        4.63705966724080        0.23961346733415
N            4.21949713317806        3.51118262300164        0.72311228961214
N            5.39728936737259        6.07648318110970        0.42526729029013
N            2.82963003315488        7.20330910408598        0.02215656724580
C            0.53067495886067        5.33713020109592       -0.02077794817180
C           -0.61916332800084        4.45905723074755       -0.05217456367172
C           -0.14997795428551        3.20952281594556        0.20199012675030
C            1.27995934498349        3.34243229903741        0.38343930786325
C            3.48515494800919        2.37472141004432        0.84944547432688
C            4.33015364987986        1.24901882419980        1.15511857748600
C            5.61112237493610        1.73166931585536        1.20769518386517
C            5.51106293452212        3.15387549309481        0.94253459358999
C            6.53811564881923        5.36605201089278        0.64669752796088
C            7.69116649603882        6.22878038472056        0.62915613815705
C            7.21908414020282        7.49623166082761        0.41094662129974
C            5.77816543311016        7.37369404510414        0.30833878535771
C            3.55239776524982        8.35316550139888       -0.01499489286223
C            2.68955762321298        9.49352412512474       -0.22868145154142
C            1.42455372128721        9.00232062433149       -0.32074674768295
C            1.53380065450450        7.56916010079224       -0.16049744261526
C            0.45519399540499        6.70505821325740       -0.20249282311885
H           -0.51906504117042        7.13247838044392       -0.38495732770687
C            2.11457529042271        2.28478976487788        0.67840435759421
H            1.66416839820311        1.30893717616487        0.77578530135221
C            6.59946847291821        4.00281257012197        0.88274423558877
H            7.57649676405072        3.57090730704150        1.03702910191166
C            4.92595937267117        8.44334324696733        0.10375470756775
H            5.36591911896356        9.42580102740347        0.02790670313742
C           -0.89277853333599        1.92073946557849        0.29013550195858
H           -1.95451786650855        2.07272824725105        0.11183107205833
H           -0.77121519167248        1.47404427913867        1.27744146392558
H           -0.51834608553959        1.21304305729697       -0.44953836148162
C           -2.01443882225706        4.91012799966781       -0.31897898328742
H           -2.08021013471381        5.38958199135205       -1.29570110445470
H           -2.33781236529427        5.63046070049158        0.43339984888644
H           -2.70249724557404        4.06850845044838       -0.30371377162509
C            3.85109519024453       -0.13478259056372        1.42348644210406
H            3.67985844544510       -0.67558203014814        0.49110554322310
H            2.91475170552742       -0.11668667077987        1.97912085732240
H            4.59161303422742       -0.68000163184306        2.00538150330125
C            6.84313488865290        1.03055304408709        1.49262486624306
H            7.59585610231902        1.60185107784513        2.02404371995817
C            7.11289147923686       -0.22534542669243        1.15105506057390
H            6.42422174763639       -0.82481342111482        0.58177773896582
H            8.04988751544642       -0.69047206004397        1.40901820639594
C            9.09278924823805        5.79468079699018        0.88211589855619
H            9.53798238520994        5.36667663001185       -0.01791793905690
H            9.12798580274243        5.03890422901530        1.66560319557340
H            9.69607723137308        6.64527786069696        1.19271068073892
C            7.94998587220745        8.74067548110964        0.32032017721941
H            7.43991527856734        9.61339769106257        0.71174628732288
C            9.16296896498136        8.88525259659474       -0.20329870610271
H            9.69641288572411        8.06400549403613       -0.64950049514225
H            9.65601955278695        9.84296736613983       -0.22686375947236
C            3.16526323695842       10.90228804536110       -0.32530398638322
H            3.85587552417847       11.01688098590537       -1.16130976013366
H            3.68717293665821       11.19457070187673        0.58624738947210
H            2.33098032883901       11.58317426496293       -0.47558272575411
C            0.14246327900051        9.72755497914082       -0.54823520841471
H            0.31363031269868       10.79782995937090       -0.63337317113722
H           -0.54960716256724        9.55534849788954        0.27666432648881
H           -0.33460467723603        9.38287371586818       -1.46614248250769
C            4.25800522526607        5.63209324822732        5.85712372551300
H            3.63669288287991        4.99491908900992        6.48644312254047
H            4.30884836254721        6.61928084098216        6.31645158807799
H            5.25897818373492        5.21391086298116        5.81957192134651
N            2.45016355613807        6.20738105398355        4.22188728217548
H            1.79728773345679        6.54837522824805        4.90826731124487
C            3.70326039315425        5.71756580275961        4.48254216264225
C            2.25665269000144        6.14767338884517        2.88533797184143
H            1.36112179722969        6.46533472852900        2.39271511083320
N            3.30984566819015        5.65049332700214        2.28470817886829
C            4.21802318472111        5.37818499161887        3.26433236016066
H            5.17432400559091        4.95914456096754        3.03043591806026
C            3.07512276520219        7.24556278154717       -3.41673030561394
H            3.41584369993351        8.15875015238168       -3.90071914636329
H            2.40487580117296        7.51149699110535       -2.60486673269917
H            2.52248078590027        6.64904764703370       -4.13870788040965
C            4.26199657062656        6.46553945124032       -2.88563947053684
H            4.83245743567035        7.05368084756638       -2.16879020170767
H            4.91000860578201        6.14638462806808       -3.70194688606439
S            3.68911746945164        4.93716401502747       -2.03682007863834
C            5.18464281018988        3.93410680496659       -2.29459543788447
H            6.04096149982619        4.42743619653220       -1.84597967876149
H            5.33264735126347        3.78619101869475       -3.36117389323577
H            5.01472200600799        2.98030965736986       -1.80752640356018
