87
 energy: -124.611634753965 gnorm: 0.286965679499 xtb: 6.7.1 (edcfbbe)
Fe           3.53900000000000        5.37900000000000        0.39700000000000
N            1.68500000000000        4.66600000000000        0.31300000000000
N            4.19700000000000        3.59000000000000        0.78400000000000
N            5.36700000000000        6.08900000000000        0.52900000000000
N            2.84800000000000        7.21100000000000        0.11400000000000
C            0.52900000000000        5.33300000000000       -0.05400000000000
C           -0.59900000000000        4.43600000000000       -0.14100000000000
C           -0.12200000000000        3.20600000000000        0.19000000000000
C            1.28200000000000        3.36000000000000        0.48800000000000
C            3.48200000000000        2.43500000000000        1.02300000000000
C            4.36000000000000        1.34200000000000        1.35900000000000
C            5.62700000000000        1.80900000000000        1.14600000000000
C            5.52500000000000        3.20500000000000        0.95300000000000
C            6.55200000000000        5.40500000000000        0.73600000000000
C            7.69100000000000        6.29900000000000        0.72700000000000
C            7.20700000000000        7.50300000000000        0.38000000000000
C            5.76200000000000        7.40400000000000        0.42700000000000
C            3.54300000000000        8.40800000000000        0.16200000000000
C            2.69600000000000        9.54100000000000       -0.12800000000000
C            1.45000000000000        9.04200000000000       -0.38600000000000
C            1.55400000000000        7.58800000000000       -0.22300000000000
C            0.46900000000000        6.70300000000000       -0.31600000000000
H           -0.49400000000000        7.11700000000000       -0.61600000000000
C            2.10700000000000        2.32500000000000        0.87200000000000
H            1.64900000000000        1.35600000000000        1.07000000000000
C            6.61700000000000        4.05900000000000        0.95100000000000
H            7.59900000000000        3.62400000000000        1.13500000000000
C            4.90900000000000        8.49000000000000        0.31100000000000
H            5.35400000000000        9.48500000000000        0.34000000000000
C           -0.89000000000000        1.89300000000000        0.19400000000000
H           -1.87900000000000        2.04000000000000       -0.29100000000000
H           -1.04900000000000        1.55400000000000        1.24000000000000
H           -0.32200000000000        1.12400000000000       -0.37200000000000
C           -2.05400000000000        4.85600000000000       -0.39000000000000
H           -2.25500000000000        4.86800000000000       -1.48300000000000
H           -2.22600000000000        5.87500000000000        0.01900000000000
H           -2.74200000000000        4.13100000000000        0.09500000000000
C            3.90800000000000       -0.02000000000000        1.86800000000000
H            3.56800000000000       -0.64200000000000        1.01200000000000
H            3.06400000000000        0.10600000000000        2.57900000000000
H            4.75500000000000       -0.53300000000000        2.37100000000000
C            6.81900000000000        1.12000000000000        0.84000000000000
H            7.73000000000000        1.72600000000000        0.74200000000000
C            7.02000000000000       -0.37000000000000        0.62400000000000
H            6.17100000000000       -1.06500000000000        0.70000000000000
H            8.01700000000000       -0.77100000000000        0.38900000000000
C            9.13700000000000        5.93400000000000        1.06900000000000
H            9.66500000000000        5.60900000000000        0.14700000000000
H            9.15000000000000        5.10100000000000        1.80400000000000
H            9.65800000000000        6.82000000000000        1.48900000000000
C            7.88300000000000        8.63200000000000       -0.13400000000000
H            7.24600000000000        9.44600000000000       -0.50200000000000
C            9.37700000000000        8.90900000000000       -0.26300000000000
H           10.11400000000000        8.16500000000000        0.07300000000000
H            9.73400000000000        9.85600000000000       -0.69400000000000
C            3.11700000000000       11.01100000000000       -0.20900000000000
H            3.58600000000000       11.20900000000000       -1.19700000000000
H            3.85400000000000       11.23500000000000        0.59100000000000
H            2.22500000000000       11.66400000000000       -0.09700000000000
C            0.23300000000000        9.83900000000000       -0.86500000000000
H            0.57200000000000       10.70300000000000       -1.47500000000000
H           -0.33600000000000       10.21700000000000        0.01100000000000
H           -0.41800000000000        9.19100000000000       -1.49000000000000
C            4.15800000000000        5.19000000000000        5.94400000000000
H            3.45000000000000        4.48500000000000        6.43000000000000
H            4.23700000000000        6.10700000000000        6.56600000000000
H            5.15200000000000        4.70200000000000        5.86000000000000
N            2.43600000000000        6.15600000000000        4.37800000000000
H            1.82100000000000        6.45800000000000        5.10700000000000
C            3.65400000000000        5.54500000000000        4.58500000000000
C            2.22100000000000        6.27300000000000        3.08100000000000
H            1.33000000000000        6.71800000000000        2.64000000000000
N            3.25800000000000        5.76500000000000        2.43900000000000
C            4.17100000000000        5.30900000000000        3.35700000000000
H            5.10500000000000        4.85800000000000        3.04800000000000
C            3.56000000000000        7.50200000000000       -3.28800000000000
H            4.16500000000000        8.27800000000000       -3.80500000000000
H            2.99600000000000        7.98400000000000       -2.46100000000000
H            2.84800000000000        7.06200000000000       -4.01900000000000
C            4.47600000000000        6.40700000000000       -2.72700000000000
H            5.18000000000000        6.87500000000000       -2.00700000000000
H            5.06600000000000        5.98200000000000       -3.56500000000000
S            3.57500000000000        5.08500000000000       -1.90400000000000
C            4.52600000000000        3.67200000000000       -2.41200000000000
H            5.58100000000000        3.75300000000000       -2.07400000000000
H            4.52600000000000        3.58700000000000       -3.52000000000000
H            4.09700000000000        2.74400000000000       -1.97700000000000
87
 energy: -124.687763299778 gnorm: 0.132323227831 xtb: 6.7.1 (edcfbbe)
Fe           3.53289567015064        5.39150033303018        0.40681860076947
N            1.67090651285545        4.66573316280793        0.30658134808648
N            4.20874028478774        3.58215885715577        0.79449261454695
N            5.38415557291189        6.10600282981471        0.52500691724298
N            2.83457933979621        7.23194303937157        0.10192124871719
C            0.53335413641548        5.34128172151270       -0.05687623794062
C           -0.60136382927656        4.44502247365916       -0.12650400695566
C           -0.12707321340281        3.20736949750764        0.19045738354580
C            1.28096117528425        3.36272523589577        0.47859543314516
C            3.48481090361309        2.43909767529835        1.03885394440817
C            4.34937808084273        1.32944613949898        1.34722359930710
C            5.63527545356395        1.77537735171970        1.13051594502534
C            5.52687748649264        3.19868220909423        0.93020215364391
C            6.55359465092594        5.41506837878063        0.75052583140605
C            7.70120485490113        6.29037005431054        0.72898473263418
C            7.23048214916671        7.52575948588196        0.37697798708217
C            5.77192775948765        7.41152709811648        0.39267283612453
C            3.53959432275086        8.40918591507659        0.15560455363093
C            2.68998067373814        9.54105461392881       -0.13014705495104
C            1.44944486709723        9.03609048078599       -0.39617379299492
C            1.54686835562553        7.59220130361310       -0.21761866479812
C            0.47708355388292        6.70642591982848       -0.31506079875224
H           -0.48294535857769        7.11615080079213       -0.61031257472442
C            2.10882206121809        2.33194173541867        0.88070814569603
H            1.65476524256285        1.36398263889841        1.06524488973459
C            6.61429737968889        4.05472603067658        0.94398073114395
H            7.59144711301583        3.62631439700077        1.13299480931466
C            4.91137261140716        8.49115754237665        0.30234348556789
H            5.35125272211493        9.48099556316362        0.33351360288580
C           -0.88417632554805        1.90492903954515        0.19630871045981
H           -1.86178646878929        2.03686743619671       -0.28123508488072
H           -1.04401753427091        1.55405532129107        1.22409748560766
H           -0.33184848059842        1.13668110556042       -0.35866157649521
C           -2.03475704112245        4.85270761352414       -0.39147051549462
H           -2.24941684771378        4.86905668291284       -1.46815523239367
H           -2.22363891881480        5.85417262466403        0.01222706495218
H           -2.72535117671391        4.14679081415102        0.08553283639408
C            3.90553996578598       -0.01318462713774        1.85472997944654
H            3.56668707525667       -0.64205203118751        1.02224325272381
H            3.07758127258151        0.10441674334375        2.56452847282891
H            4.73722097168362       -0.51914339706473        2.35981634742846
C            6.83681747616601        1.05583227006006        0.86196597098570
H            7.72545663422236        1.67516106042442        0.73388627157889
C            7.00799501181772       -0.30994135877795        0.64670038014534
H            6.18604061207951       -1.01738807606412        0.69830083013459
H            7.98285342593097       -0.72281313131524        0.39585505796876
C            9.12374592350510        5.92360558120882        1.06077089523850
H            9.66201079002014        5.60844633560935        0.15778252576889
H            9.15010208150679        5.10888494486715        1.79207228937593
H            9.63888011952398        6.79352772863264        1.48532216448409
C            7.93595802187605        8.66356790566404       -0.11784427400671
H            7.28885539118743        9.45155201878879       -0.50159153523735
C            9.30871055775453        8.89348015387342       -0.25078643596527
H           10.06463849129831        8.17944114133070        0.06064374281173
H            9.68281276104939        9.81975831019433       -0.68250002309008
C            3.11489125043753       10.99097095969349       -0.20631688458215
H            3.57993682711229       11.20277924902915       -1.17939423250021
H            3.84048605335568       11.23096191804628        0.57933176496509
H            2.24415774986470       11.64781205239954       -0.09559514633806
C            0.24466716474778        9.82381763390882       -0.85896951688691
H            0.56702088616733       10.68233022012751       -1.46163274255346
H           -0.32853871049728       10.20570033313676       -0.00334938950930
H           -0.41023439062823        9.20027956819778       -1.47670543360893
C            4.15556173911895        5.19287243365564        5.94817271204498
H            3.46256409087257        4.49403464301132        6.43306704569644
H            4.24104485215858        6.09274446932534        6.56832568413684
H            5.13542793082077        4.71346159772264        5.86404698359780
N            2.43905972988838        6.15205222920468        4.39106270741615
H            1.81848769424802        6.45833227973612        5.11965745119214
C            3.65202376618180        5.54188823373417        4.59446349309897
C            2.23537306693852        6.26457639826483        3.07277524275346
H            1.35425657954788        6.70632534869062        2.63402784404116
N            3.26118341165431        5.75814228211575        2.42379015149531
C            4.15877848737136        5.31056809015866        3.35303316270492
H            5.08859007942471        4.86442286825137        3.05007351925077
C            3.56015581082654        7.49754881855740       -3.28667942560506
H            4.15509957804407        8.26520805486025       -3.79612633628809
H            2.99971585653141        7.97496574306744       -2.47736266108556
H            2.85380168790126        7.06930374574308       -4.00633098395569
C            4.48648627389792        6.41739421506408       -2.73309799227073
H            5.18002184742078        6.86768335017301       -2.01102660254369
H            5.06460560704894        5.97844670021323       -3.55644689932920
S            3.55911440209408        5.08910297214300       -1.91229751149481
C            4.53267881619960        3.66880888733001       -2.41690218175665
H            5.56987014177819        3.75250027453737       -2.06889488543748
H            4.54422121182207        3.58410710737208       -3.51058504614879
H            4.09588618493424        2.76315262721688       -1.98218115381177
87
 energy: -124.701302165122 gnorm: 0.096587138147 xtb: 6.7.1 (edcfbbe)
Fe           3.52558646699667        5.40452884105178        0.42225968471511
N            1.65821520710008        4.66688953232754        0.30623753305085
N            4.22013107020481        3.57309648213187        0.80531699525021
N            5.40184670826722        6.12308264868960        0.52167087448466
N            2.82455283575576        7.25171732819778        0.09687304598235
C            0.53778832865993        5.34896932112986       -0.05367453255619
C           -0.60163242914875        4.45360795977024       -0.11415075783812
C           -0.12972294461772        3.21166107885774        0.19180697869979
C            1.28099304761392        3.36865921984029        0.47529914911926
C            3.48734723315893        2.44618658280350        1.05199934605433
C            4.34482637097724        1.32351420520093        1.33170362070807
C            5.63574590650031        1.75481444121933        1.10996100407905
C            5.52609809144065        3.19371343215329        0.90694868582965
C            6.55228305318450        5.42401292658049        0.75932054154947
C            7.70363606729552        6.28702401303048        0.72775650311211
C            7.24401929622452        7.53602966109597        0.36990060598304
C            5.78317263736923        7.41775442990115        0.36183084428061
C            3.53988385786120        8.40922470189073        0.14362737348156
C            2.68640964193805        9.54136277608520       -0.13463065887430
C            1.44910438010815        9.03272964723482       -0.40311350638913
C            1.54463032301457        7.59737765745784       -0.21591016486713
C            0.48436371799683        6.71037193219395       -0.31299916297477
H           -0.47461735850988        7.11725424346593       -0.60192868349308
C            2.11169559899672        2.34269892750882        0.89101963164837
H            1.66151700371182        1.37467327674829        1.06223400828966
C            6.61080946045981        4.05063225844259        0.93073552475271
H            7.58549493560353        3.62484933764212        1.11869379387978
C            4.91596306618630        8.49284253206178        0.28396130032364
H            5.35001663511360        9.48086802824448        0.31102618941922
C           -0.87826587537396        1.91809488849615        0.20088674685090
H           -1.84958464526652        2.04029195716506       -0.27226480412460
H           -1.03534021185563        1.55905333495242        1.21857731038316
H           -0.33080506750281        1.15246847937921       -0.34700396317731
C           -2.01630912268915        4.85227321124962       -0.39127001620530
H           -2.22979620433616        4.86887554279226       -1.46049203584582
H           -2.21809516372147        5.84424148044390        0.00772059205511
H           -2.70688999667489        4.15358189512691        0.07815766264783
C            3.90192285419855       -0.00679793639973        1.83562432084860
H            3.56171240150170       -0.64683756501123        1.02206467056646
H            3.08269750858110        0.10818737622662        2.54461234007247
H            4.72401075286213       -0.50537399779037        2.34569504210555
C            6.84991496101611        1.01243328143122        0.86871320673130
H            7.72542130907433        1.64489369415289        0.75373935063881
C            6.99454454687355       -0.25994626653974        0.66516495233011
H            6.19210339420667       -0.97831350056648        0.70947325130909
H            7.95592460829624       -0.68497936697990        0.41288541317803
C            9.10849974799154        5.91223639867490        1.05347078269391
H            9.65537260642387        5.60354769257642        0.16200334217077
H            9.14164265582002        5.10229292074017        1.77770640566772
H            9.62262993062433        6.76844689824195        1.48635193786437
C            7.97125767700854        8.68640347984240       -0.11329733094407
H            7.31091719348874        9.46609757679411       -0.48205381686930
C            9.24687809609078        8.88372027923677       -0.23313361459533
H           10.01660155320161        8.18826653629917        0.05905093284964
H            9.63497684173917        9.79321180070797       -0.67190710862120
C            3.11257052277026       10.97332588871830       -0.20473052327372
H            3.57741719122938       11.18983289139179       -1.16888116400952
H            3.83137244378382       11.21444670563122        0.57528234002067
H            2.25341000511180       11.63126307024238       -0.09215517146291
C            0.25231518057406        9.80828406474215       -0.85322168300267
H            0.56711685442302       10.66367768324810       -1.45026290179566
H           -0.32067555741562       10.18819539566167       -0.00561361006777
H           -0.40499696074232        9.19610860726682       -1.46458028074859
C            4.15485768913058        5.19594989198103        5.95197506541150
H            3.47186238874742        4.50168415224861        6.44002812508054
H            4.24441610972841        6.08595709844826        6.57141790937587
H            5.12723687605661        4.72307251900200        5.86766572168156
N            2.44005112902790        6.14742870635049        4.39678387452452
H            1.81410455437926        6.45849978604373        5.12200020617019
C            3.64971564884882        5.53748033548746        4.59995352202804
C            2.24889276751972        6.25395513139539        3.06282815795889
H            1.37684818817950        6.69402181317843        2.62297983030118
N            3.26631333891777        5.74679008541142        2.41185090152203
C            4.14954194285799        5.30645327803418        3.35110853927394
H            5.07812003155150        4.86277842594398        3.05798918442881
C            3.56356065141172        7.49562918801147       -3.28826094681978
H            4.14882390100700        8.26103699501319       -3.79358522640293
H            3.00395355004090        7.96318400784820       -2.48591800908594
H            2.86075487590559        7.06677012077787       -3.99695795432414
C            4.49677096398350        6.42717851342507       -2.74080457612659
H            5.18112688010285        6.86031697127743       -2.01319968519051
H            5.06427316687437        5.97252282963488       -3.55186332021317
S            3.55324394349829        5.08879689211342       -1.91672179957322
C            4.55573746839393        3.66477825332772       -2.41899703284473
H            5.57867300835572        3.75950414465987       -2.06507154736135
H            4.51609651536652        3.58131791268089       -3.50339743583227
H            4.10039416933812        2.78324112660149       -1.97789184792379
87
 energy: -124.706630244305 gnorm: 0.014888069619 xtb: 6.7.1 (edcfbbe)
Fe           3.52438752543336        5.40960822569004        0.42275399668489
N            1.65986242140385        4.67399046113665        0.31320309264676
N            4.22030682253007        3.57784155562195        0.80562415817654
N            5.39980459180374        6.12903686458126        0.51442040881012
N            2.82456010400354        7.25234201337627        0.09211651004387
C            0.53961352741281        5.35498313281311       -0.04456493164847
C           -0.59728177103911        4.46002531834085       -0.10418183821973
C           -0.12605698616421        3.21998156425650        0.20201236408378
C            1.28358252878720        3.37715998842846        0.48346469559574
C            3.48787700681861        2.45343019786901        1.05273562246606
C            4.34523096967380        1.32678206494574        1.31625879274837
C            5.63346930891353        1.76438232934306        1.10914816630082
C            5.52526266762030        3.19869300077698        0.89497166427016
C            6.54751976541220        5.42936958249669        0.75174729934039
C            7.69711490830973        6.29261134963606        0.72011081707265
C            7.23328579061276        7.54223079627611        0.37645141802410
C            5.77923998778923        7.42203878571763        0.34823648316666
C            3.53951476403495        8.40872659675092        0.12955709359804
C            2.68430373092104        9.53831806033710       -0.14273248623848
C            1.44777994633360        9.02980292271281       -0.40620026427270
C            1.54440865661281        7.59799917213615       -0.21536185747051
C            0.48332851776477        6.71396962059565       -0.30655418404759
H           -0.47589557607586        7.12149171614696       -0.59155603114905
C            2.11332380322443        2.35194319695670        0.89791994898890
H            1.66460991150382        1.38274387189003        1.06322541585919
C            6.60879882058846        4.05559781214240        0.91567965849281
H            7.58420815969779        3.62823303925675        1.09551187711742
C            4.91410962997188        8.49623148739784        0.26073338364482
H            5.34724797012533        9.48530987201695        0.27466773871916
C           -0.87160043636257        1.92630374089405        0.21079946279389
H           -1.84402392881282        2.04612745621468       -0.26116756146342
H           -1.02487448907262        1.56412050000754        1.22804251993545
H           -0.32152049066184        1.16366790604434       -0.33844771152256
C           -2.00771490004562        4.85611367960650       -0.39379870766631
H           -2.20740779896279        4.87130597309448       -1.46575893138070
H           -2.21551493661991        5.84724215929478        0.00416543279825
H           -2.69817968441922        4.15415492442518        0.06992863264091
C            3.89546432593421       -0.00432197614858        1.81350973192437
H            3.55560447658487       -0.64993134265558        1.00300021166315
H            3.07432466911737        0.11498755903906        2.51951407465812
H            4.71501968479521       -0.50024387426562        2.32962465843408
C            6.85689544049172        1.02957023164710        0.89692881981278
H            7.73865531309433        1.65100960120015        0.78773342458537
C            6.99234154425830       -0.28082027207608        0.67784104032569
H            6.17585999471002       -0.98097150034032        0.70448447728663
H            7.95378206798181       -0.70077841092939        0.42775626140821
C            9.09786337702301        5.89939869400801        1.04557600960623
H            9.64852258336429        5.59729510728686        0.15327969209866
H            9.12130549339745        5.07834289681363        1.75865723828021
H            9.61415120453156        6.74448344159929        1.49656652343752
C            7.94470947608034        8.70767253221023       -0.08775960444914
H            7.29188134936547        9.49448938341732       -0.45173289201957
C            9.26103935372666        8.88919760964804       -0.23518801669992
H           10.01555372488160        8.17912498261660        0.05012101613401
H            9.64036915789123        9.80066942155993       -0.66983268507370
C            3.11276606083744       10.96661702512603       -0.20444575654297
H            3.58054366919413       11.18358114454797       -1.16676528818662
H            3.83028514703552       11.19831650767665        0.57958715420921
H            2.25419776736547       11.62398052282719       -0.08820673267724
C            0.24667974335322        9.79771216029556       -0.84852368926435
H            0.55855246522636       10.65382617825637       -1.44511646221798
H           -0.32251183563857       10.17105259900244        0.00404047294656
H           -0.41018968913144        9.18166754843375       -1.45669308135002
C            4.15450878493603        5.19983989944692        5.95783531295749
H            3.47603824266096        4.50609934587019        6.45420594778693
H            4.24590578707373        6.09148942732975        6.57582074462814
H            5.12853785372119        4.72947273427182        5.87422547392238
N            2.43961389628894        6.14097538898882        4.39265865266906
H            1.81134894537745        6.45621766667076        5.11441518250029
C            3.64856277352744        5.53131523441279        4.60256979512645
C            2.25553079186222        6.24264812070963        3.05695477855871
H            1.38913402781756        6.68358052818648        2.60832113697893
N            3.27395954776486        5.73200353477554        2.41131941167629
C            4.15125172902830        5.29285558059810        3.35655891794921
H            5.08037793058485        4.84768182722284        3.06957106057720
C            3.56835228689064        7.49125552029869       -3.29134689770377
H            4.14808039820158        8.26088588648842       -3.79706033302474
H            3.00518822848969        7.95482537925260       -2.48842041969566
H            2.86502273956556        7.05875636942960       -3.99803602438169
C            4.50325438412401        6.42581522733960       -2.74413264728385
H            5.18808438907946        6.85443731860707       -2.01355640171126
H            5.06992365541860        5.96394756726687       -3.55239746080480
S            3.54629446792765        5.09395092267655       -1.92239529794345
C            4.55793049224138        3.66981153011831       -2.41381241164764
H            5.57764138227635        3.77131197819846       -2.05245165511560
H            4.53399322880162        3.57892437720958       -3.49753798589091
H            4.10111663180200        2.79205992460572       -1.96642762739692
87
 energy: -124.708841490304 gnorm: 0.013026170393 xtb: 6.7.1 (edcfbbe)
Fe           3.52269386318277        5.41364271816968        0.42435147442319
N            1.66004969384807        4.68186508044480        0.32637436942189
N            4.22319014078662        3.57894180979529        0.80324819094985
N            5.39930027096142        6.13654868898466        0.50634081663343
N            2.82394775435744        7.25331977172171        0.09207078037312
C            0.54075651587313        5.36193014739890       -0.02935948867861
C           -0.59507514981466        4.46769331259713       -0.08906765114767
C           -0.12426445811509        3.22911484478631        0.21837486037435
C            1.28525230177145        3.38686556982290        0.49728181678838
C            3.48984383544451        2.45824043771283        1.04737973169107
C            4.34557997210187        1.32778470929142        1.29885410006985
C            5.63201615322119        1.76629990817195        1.09793224145141
C            5.52561449431323        3.20113258072582        0.88383137534982
C            6.54296747375147        5.43427866868328        0.73852831899169
C            7.69319629058649        6.29561880899834        0.70902295634908
C            7.22938766893715        7.54645429749622        0.37284636258825
C            5.77941682075909        7.42731196036652        0.33691658290943
C            3.53975839836163        8.40762186762785        0.11583696490185
C            2.68296236717277        9.53642740732202       -0.15372205779359
C            1.44549745823139        9.02773426457668       -0.40737730869369
C            1.54420725753596        7.59899559827356       -0.21076254293414
C            0.48133313595305        6.71837768468943       -0.29470080202650
H           -0.47858024789977        7.12633900453821       -0.57520362270029
C            2.11507445191849        2.36044471533712        0.90412273810409
H            1.66682787058653        1.39165266520751        1.06806673391808
C            6.60758125201692        4.05909153949590        0.89495665564464
H            7.58553120490633        3.63172129892909        1.05743586411023
C            4.91393239814213        8.49991576347270        0.23610913910789
H            5.34423758655184        9.49046105205024        0.22493576842417
C           -0.86461535071359        1.93465991968330        0.22788965012098
H           -1.83890545626675        2.05132177617074       -0.24116440873198