87
 energy: -128.467993409905 gnorm: 0.000109755397 xtb: 6.7.1 (edcfbbe)
Fe          17.46036755473634       55.26524969137316       35.59714411888216
N           17.11928724299191       57.23176210740126       35.44179353285356
N           15.59003541751625       54.88834915163167       34.97912070807308
N           17.80390792956832       53.29473182482026       35.77251344283838
N           19.33431836787727       55.64152215894791       36.19694537170541
C           17.97506426625029       58.23728691582079       35.75505587845284
C           17.35727248656962       59.52597853569176       35.52566842593291
C           16.10708420630613       59.27097788036966       35.05702461114001
C           15.97682580677849       57.82987866775915       35.01391974309436
C           14.65927747196556       55.80092509879385       34.59189058082006
C           13.43583564549175       55.15108337799142       34.19812524526966
C           13.64231300991436       53.80682787766121       34.36674755477199
C           15.00461860945850       53.67112021177160       34.84799608229077
C           16.90763344954749       52.29143093781740       35.56664474478378
C           17.51181938729139       51.00713756854622       35.80748826363183
C           18.81501486948545       51.25404125807137       36.15542931493064
C           18.96526086781357       52.69628986754631       36.13688053752191
C           20.30019189136170       54.72817406259348       36.47566091260323
C           21.53173019088628       55.38597189030772       36.85550384249713
C           21.27996474553262       56.72149911612890       36.80898546210186
C           19.90196844109933       56.85987223093042       36.39096864604016
C           19.27311175481348       58.07718330605373       36.20471612568420
H           19.84459478284321       58.97036402169884       36.40845619678176
C           14.83254716799455       57.17563384958419       34.60252503274980
H           13.99991406341240       57.78516997395314       34.28458954539222
C           15.59965854711585       52.45959866564295       35.14305957489795
H           15.00316672633791       51.56858525264865       35.01650690404661
C           20.14368655647588       53.35516257948471       36.44017787006727
H           21.00622720146119       52.75252414437891       36.68219357832815
C           15.03623474925601       60.22602937924712       34.65253760395576
H           15.36989690822496       61.25434429280188       34.76945826887922
H           14.14353558639774       60.08404916605362       35.26252704812750
H           14.75974670973167       60.07223131704816       33.60903636735478
C           18.02498055877688       60.83562991693652       35.77364379688437
H           18.91511878366746       60.93729080666009       35.15178733656492
H           18.33122873879820       60.91791498423014       36.81680101108283
H           17.35456287517723       61.66140961049945       35.54762851753893
C           12.23385440589013       55.84120851261506       33.65269493045934
H           12.52437542640563       56.68058552101940       33.02256421126988
H           11.60492013057420       56.22547686635615       34.45780752278096
H           11.64247047968936       55.14755112613219       33.05805745043980
C           12.74588459802951       52.70396089373591       34.10399248734261
H           13.21768416601217       51.78471215119563       33.77507414459367
C           11.42354278240928       52.72981401233537       34.24085643198578
H           10.90193733387314       53.59526100399203       34.61010090696746
H           10.81674558335816       51.86924716099441       34.01170244162812
C           16.80208806264894       49.69880773611784       35.74844750641221
H           16.75783550593399       49.32258880908422       34.72458655516809
H           15.78145571835808       49.79759054542630       36.11530360250091
H           17.32220736544368       48.96406119660992       36.36007852865957
C           19.85858976430618       50.32032584725531       36.51296123199324
H           20.58118505934950       50.68058302067166       37.23660565554759
C           20.00075047720856       49.09106440375642       36.02635451713671
H           19.34638496279344       48.69362540897345       35.27049455269742
H           20.79958792389545       48.44538852244814       36.35223328172238
C           22.79003778283401       54.67378228040824       37.21914333722066
H           23.11762666303071       54.03308897809700       36.40014665460788
H           22.63765726379318       54.04586551065474       38.09789908323463
H           23.58579362759826       55.38135216606526       37.43954797774416
C           22.18838107964045       57.86529098180664       37.10766756704217
H           22.31539122885582       58.49528082268794       36.22666405112938
H           23.16838309706548       57.51101770674877       37.41842815620360
H           21.77751211367243       58.48262427935209       37.90701266240771
C           19.94438695141079       56.28644479759859       30.69217567725671
H           19.31840487596624       56.53252441341763       29.83434759092187
H           20.71406458851446       55.58811671164936       30.36312190836873
H           20.42558769298237       57.19379017904800       31.04366833258932
N           18.40055522940358       54.55048569050324       31.62758976540941
H           18.33902820582688       54.00426082033892       30.78417054655054
C           19.13204575028094       55.69862183556859       31.78757218547419
C           17.78578470918917       54.29038086817112       32.80362899265824
H           17.14446718315567       53.45013126780701       32.97243010896518
N           18.08267210232649       55.20205361868680       33.69624965530578
C           18.91876131083943       56.08488769364664       33.07958006860136
H           19.30803456986601       56.93241761682552       33.60429484327788
C           14.62775518921662       56.14616000107377       40.33797445217212
H           15.09709882798867       56.74400596539815       41.11937623260462
H           14.15195877807698       55.28491216002767       40.80727431800025
H           13.86256168225052       56.74482484715235       39.85380444704882
N           16.72216684746018       54.95216133966773       39.65978351563101
H           16.95193881374015       54.61885520330806       40.58152976246530
C           15.62960955659517       55.71210084328611       39.33143788677669
C           17.42371087612833       54.73309125752678       38.52461597327011
H           18.33039465323652       54.16595783659212       38.47929896891788
N           16.84315239881103       55.30687425850691       37.50002939527621
C           15.72639584007851       55.91996780606265       37.98557520246371
H           15.07217719510136       56.46558580467496       37.33789292250972
