87
 energy: -124.489518974041 gnorm: 0.270305667682 xtb: 6.7.1 (edcfbbe)
Fe          -7.31600000000000        1.28800000000000        8.87000000000000
N           -5.34800000000000        1.25800000000000        9.10300000000000
N           -7.18900000000000        2.82200000000000        7.75400000000000
N           -9.38200000000000        1.26500000000000        8.60800000000000
N           -7.47100000000000       -0.40800000000000       10.07600000000000
C           -4.62100000000000        0.32400000000000        9.80200000000000
C           -3.26200000000000        0.70000000000000        9.76900000000000
C           -3.16900000000000        1.87100000000000        9.07000000000000
C           -4.47300000000000        2.22800000000000        8.66800000000000
C           -6.06700000000000        3.54200000000000        7.48500000000000
C           -6.37000000000000        4.65100000000000        6.57100000000000
C           -7.68600000000000        4.58100000000000        6.33300000000000
C           -8.18900000000000        3.41800000000000        7.07400000000000
C          -10.09200000000000        2.11100000000000        7.79700000000000
C          -11.48200000000000        1.74900000000000        7.85500000000000
C          -11.56400000000000        0.69300000000000        8.75700000000000
C          -10.26200000000000        0.43000000000000        9.22500000000000
C           -8.64100000000000       -0.95000000000000       10.42900000000000
C           -8.34300000000000       -2.13300000000000       11.23900000000000
C           -6.96600000000000       -2.18700000000000       11.32800000000000
C           -6.45400000000000       -1.10200000000000       10.57500000000000
C           -5.10100000000000       -0.81500000000000       10.44000000000000
H           -4.37900000000000       -1.51800000000000       10.85500000000000
C           -4.76900000000000        3.33300000000000        7.91700000000000
H           -3.98600000000000        4.04500000000000        7.66000000000000
C           -9.54700000000000        3.10100000000000        7.02600000000000
H          -10.19500000000000        3.66100000000000        6.35200000000000
C           -9.93800000000000       -0.58600000000000       10.11100000000000
H          -10.75400000000000       -1.13100000000000       10.58600000000000
C           -2.13500000000000       -0.07300000000000       10.39700000000000
H           -2.35300000000000       -1.03200000000000        9.88100000000000
H           -2.57300000000000       -0.10600000000000       11.41800000000000
H           -1.03400000000000        0.06000000000000       10.46000000000000
C           -1.91300000000000        2.64400000000000        8.74800000000000
H           -2.27400000000000        3.60700000000000        9.16800000000000
H           -2.05000000000000        2.65800000000000        7.64600000000000
H           -0.83700000000000        2.52400000000000        8.99500000000000
C           -6.13400000000000       -3.20600000000000       12.06000000000000
H           -6.69700000000000       -3.01900000000000       13.00000000000000
H           -5.08100000000000       -3.45500000000000       12.31400000000000
H           -6.60600000000000       -4.05500000000000       11.52100000000000
C           -9.40500000000000       -2.96400000000000       11.82700000000000
H          -10.40300000000000       -3.20500000000000       11.59600000000000
C           -9.12000000000000       -3.89200000000000       12.71700000000000
H           -8.12400000000000       -3.93300000000000       13.18100000000000
H           -9.87500000000000       -4.63800000000000       13.00700000000000
C          -12.80400000000000       -0.05300000000000        9.19300000000000
H          -12.67300000000000        0.12400000000000       10.28200000000000
H          -12.41800000000000       -1.06400000000000        8.94300000000000
H          -13.88500000000000        0.01300000000000        8.94400000000000
C          -12.60500000000000        2.39400000000000        7.10700000000000
H          -12.14800000000000        3.12500000000000        6.45800000000000
C          -13.90400000000000        2.11200000000000        7.28300000000000
H          -14.22600000000000        1.45100000000000        8.10100000000000
H          -14.66400000000000        2.53800000000000        6.61100000000000
C           -8.47900000000000        5.51900000000000        5.45500000000000
H           -8.06500000000000        6.39800000000000        5.99300000000000
H           -9.52400000000000        5.74200000000000        5.15200000000000
H           -7.85700000000000        5.32100000000000        4.55600000000000
C           -5.42200000000000        5.69200000000000        6.03500000000000
H           -6.05200000000000        6.52400000000000        6.41600000000000
H           -5.69200000000000        5.49200000000000        4.97600000000000
H           -4.35300000000000        5.98800000000000        6.10500000000000
C           -7.35000000000000       -3.11400000000000        5.30000000000000
H           -6.43300000000000       -3.72800000000000        5.42900000000000
H           -7.54000000000000       -2.97500000000000        4.21400000000000
H           -8.20700000000000       -3.64200000000000        5.77100000000000
N           -6.15700000000000       -0.92200000000000        5.57300000000000
H           -5.50700000000000       -1.09000000000000        4.83200000000000
C           -7.15700000000000       -1.79000000000000        5.95000000000000
C           -6.20100000000000        0.15200000000000        6.34400000000000
H           -5.52200000000000        1.00000000000000        6.26000000000000
N           -7.19200000000000        0.00900000000000        7.20900000000000
C           -7.80400000000000       -1.20100000000000        6.98700000000000
H           -8.64300000000000       -1.52900000000000        7.58800000000000
C           -8.19200000000000        5.35800000000000        9.92200000000000
H           -9.05100000000000        6.05400000000000        9.80800000000000
H           -7.70200000000000        5.23500000000000        8.93300000000000
H           -7.47200000000000        5.79800000000000       10.64400000000000
C           -8.67500000000000        4.01200000000000       10.43000000000000
H           -9.39700000000000        3.59600000000000        9.69600000000000
H           -9.20600000000000        4.16800000000000       11.39200000000000
S           -7.33200000000000        2.84800000000000       10.67100000000000
C           -8.07300000000000        1.85400000000000       11.96600000000000
H           -9.02100000000000        1.38700000000000       11.62400000000000
H           -8.30200000000000        2.48500000000000       12.85100000000000
H           -7.38000000000000        1.04100000000000       12.27000000000000
87
 energy: -124.599263605067 gnorm: 0.149882688420 xtb: 6.7.1 (edcfbbe)
Fe          -7.32559789466205        1.28730039491365        8.87331680972296
N           -5.35106953920792        1.25718667579869        9.10638848366577
N           -7.18875611124988        2.81969530813639        7.74493493188031
N           -9.37821616582248        1.27741516516879        8.61813057901530
N           -7.47860928992462       -0.37742425234274       10.05352318442931
C           -4.61745992989426        0.32759036204837        9.79283428523792
C           -3.23746717516261        0.70166306993461        9.76653531883347
C           -3.14421505075230        1.85962394087226        9.08047470247659
C           -4.46697562687240        2.21098281388490        8.67660248633847
C           -6.06628691653496        3.54044267823621        7.48108501603263
C           -6.36793669084934        4.63546073804097        6.58783540937930
C           -7.69795482120650        4.56071497389584        6.33811766350126
C           -8.19559978452989        3.41568862654626        7.06665830983537
C          -10.09782003376849        2.09493192322793        7.79428803089236
C          -11.50108060673897        1.75562587153062        7.86009922744242
C          -11.58594144874293        0.71250522703540        8.74847766118864
C          -10.26442650256772        0.43454926764412        9.21420464180668
C           -8.63782255820523       -0.95352326444049       10.42732272533506
C           -8.34538228614186       -2.12514865926224       11.24915181195072
C           -6.96668479062846       -2.18011386543925       11.32200851993296
C           -6.45758348289664       -1.08880073529186       10.56233430738462
C           -5.10620125001606       -0.80380141067501       10.42853619277125
H           -4.39315547655214       -1.50334180323588       10.85562968777973
C           -4.77811849961960        3.32153260928261        7.92283998848049
H           -4.00057957757651        4.03086955760873        7.65968348958410
C           -9.54281928412768        3.09293170480473        7.02634370205099
H          -10.18384015405611        3.66214714768933        6.36301571596341
C           -9.93248693815100       -0.58181323103491       10.10550034899149
H          -10.74224521264866       -1.13051441403815       10.57471117603254
C           -2.16134312599527       -0.10867370927747       10.41254376374438
H           -2.32297421602390       -1.07140723967564        9.91332606370280
H           -2.54048126898954       -0.14732795176272       11.44088164127984
H           -1.08121040203627        0.09956467995349       10.43240603261390
C           -1.93748778774288        2.67622766442740        8.72925237772802
H           -2.23767399275527        3.64529394765628        9.14483620045448
H           -2.01557717164225        2.69632595362196        7.63496401989569
H           -0.89129557466649        2.48377509138989        9.01009150576196
C           -6.18032869222426       -3.22223081219343       12.06914376821888
H           -6.66837376858916       -3.07004911719568       13.03898247822422
H           -5.10666943278470       -3.39087457371455       12.26060228308077
H           -6.59412679678555       -4.10622926286000       11.56529224193335
C           -9.37656816368838       -2.99113764016196       11.81431599677538
H          -10.40687540668703       -3.14630923469397       11.54555639985449
C           -9.10784704239147       -3.91484715527020       12.73573495284202
H           -8.14009586585808       -3.96673336540853       13.20515240574158
H           -9.86527891643688       -4.63238036639387       13.03028317196686
C          -12.77177803931282       -0.08064830156941        9.22386249982673
H          -12.70160692158788        0.08566045862876       10.30540651142122
H          -12.44812059010418       -1.09669871737831        8.97206152316044
H          -13.82518708325845        0.02725557565366        8.93299761531217
C          -12.59356130810428        2.39319992088623        7.11734914095727
H          -12.17283110599540        3.12003482629142        6.43680995537436
C          -13.89015381812541        2.12534495701414        7.27578478951231
H          -14.22913917247566        1.47288816211451        8.06802410377806
H          -14.64885108522189        2.54804822149221        6.62251316062599
C           -8.43227154625108        5.53493953364485        5.45409396009718
H           -8.07791622857456        6.45244024142151        5.94413231471423
H           -9.49502238275870        5.67947356142225        5.19933437181354
H           -7.87081853111439        5.37233296907361        4.52346485030383
C           -5.46731458116839        5.70131514129870        6.02057640394463
H           -6.02922092924347        6.57607722795623        6.37755973131620
H           -5.67214539621485        5.54509188792608        4.95189992961971
H           -4.39321866822453        5.92226047715630        6.13926775780115
C           -7.34851807696658       -3.11506962284476        5.29834251322481
H           -6.44576695541688       -3.72770508452044        5.42308245636932
H           -7.54019984588208       -2.98534252455990        4.22514475787750
H           -8.19449487077670       -3.63486977628539        5.76064191869084
N           -6.15865542148313       -0.93143594990708        5.56623937581327
H           -5.50460487722430       -1.09759398377810        4.82253963459691
C           -7.15428490334484       -1.79435322699287        5.94924164044716
C           -6.20951059551635        0.15056070481767        6.35285978367028
H           -5.53727787235563        0.99056908423901        6.26844343026008
N           -7.18614440974059        0.02013854898941        7.22540380556855
C           -7.79267459373432       -1.18563908580399        6.98858980743466
H           -8.62829999233031       -1.51567458606737        7.58197748294278
C           -8.18963175853526        5.36006110403126        9.92196794895957
H           -9.03763966319177        6.04725868987196        9.80786475253737
H           -7.70389591107137        5.24227687876290        8.94789821207018
H           -7.47661613665621        5.79585687562612       10.63146407062167
C           -8.68816344478598        4.01775125486397       10.42785955184964
H           -9.39684647319651        3.59438849948041        9.70420295896793
H           -9.20225515596121        4.16143097355657       11.38823102938294
S           -7.33548247131541        2.84018439495425       10.68044820246389
C           -8.08411298944917        1.85017665394999       11.98174726912900
H           -9.01322347918964        1.39108882889173       11.62511995364372
H           -8.29751904988930        2.48210355768139       12.85149729364539
H           -7.38548293984583        1.05545831902961       12.26510381849872
87
 energy: -124.662499232643 gnorm: 0.066824092470 xtb: 6.7.1 (edcfbbe)
Fe          -7.33611219485630        1.27504141655237        8.87163952029821
N           -5.35093029748536        1.25568126415956        9.10891853289123
N           -7.18936187830621        2.82115273804159        7.73332537710225
N           -9.37409910070780        1.28259493791525        8.62253220733612
N           -7.48828650746848       -0.35421964295947       10.03431751301114
C           -4.61531054966036        0.32980224297246        9.78463584030820
C           -3.21349513011281        0.69868654546743        9.76527811037504
C           -3.12033630314100        1.85285019242321        9.08735503548594
C           -4.46346897551927        2.19613538080250        8.68307048467023
C           -6.06644103033962        3.54611630597123        7.47131300228648
C           -6.36579565445409        4.63267725293398        6.59588252397174
C           -7.70821301215677        4.55359922974747        6.33377996384425
C           -8.20155576169586        3.42142713273254        7.05251861694383
C          -10.10149318242946        2.08308240840297        7.79723663516823
C          -11.51591799719644        1.75579413181560        7.86767784036378
C          -11.60386159249365        0.72025007308481        8.75012392583139
C          -10.26343290251981        0.43749811769897        9.20954358516920
C           -8.63772508807115       -0.96067654470320       10.42771678014944
C           -8.34934077372606       -2.12086259015985       11.25627593508918
C           -6.96739568537538       -2.17830182850896       11.31712100043053
C           -6.46324478673775       -1.08100187577984       10.55374755927044
C           -5.11286625379445       -0.79318826381667       10.41925351577305
H           -4.40847525548039       -1.48846514428457       10.85853201329416
C           -4.78717709175236        3.30707399029528        7.92878318629382
H           -4.01367589918146        4.01343021001402        7.66041049098522
C           -9.54187866268140        3.08547193954216        7.02951975371969
H          -10.17915602341003        3.66190260043389        6.37551920434208
C           -9.92698439784091       -0.57594953278553       10.10121978069624
H          -10.73250504462280       -1.13066509392841       10.56053795573123
C           -2.18689759121984       -0.14504304900312       10.42803328766581
H           -2.29218333784647       -1.11542153473334        9.94860390459695
H           -2.50814818155512       -0.19223716011105       11.46589702323745
H           -1.12848892788464        0.14572285521948       10.39945168343646
C           -1.96133822852141        2.70714166975594        8.71080881355076
H           -2.20238462246938        3.68446010014508        9.12111775754239
H           -1.98256218105845        2.73683081122385        7.62242589907116
H           -0.94686121776083        2.43615611880514        9.03098451934680
C           -6.22455641279522       -3.23292456881134       12.07518814772229
H           -6.63469651822824       -3.11638393498095       13.07682218867311
H           -5.12829460127891       -3.30915775093100       12.19023432363513
H           -6.58320840647298       -4.15384651035527       11.61173963182570
C           -9.34551721405595       -3.01522869524862       11.81262319126766
H          -10.39015549636862       -3.07518996072344       11.48721110226365
C           -9.10244693924006       -3.93368062697234       12.75073968588656
H           -8.15684735406093       -4.00457444321399       13.23104951535100
H           -9.86810174075404       -4.62609357451226       13.04639649126744
C          -12.74028613907788       -0.10726571496122        9.25575974216840
H          -12.72658687729812        0.04400647089165       10.33270921871460
H          -12.47073613633919       -1.12967243154464        9.00455006872756
H          -13.76589750391317        0.05279309908508        8.91299290002198
C          -12.57639054029390        2.39047499209911        7.12374088230763
H          -12.20198115718488        3.11649731535961        6.41007641294862
C          -13.87680847724662        2.14128986927696        7.26658565092772
H          -14.23582091649254        1.48975613253231        8.03852570907331
H          -14.63342480236661        2.56809235718543        6.62945464289131
C           -8.38629983897915        5.55172926300339        5.45019968078083
H           -8.09001111638377        6.50152528969524        5.89836034668158
H           -9.47067848799727        5.60262125519103        5.25679883670155
H           -7.88215216405651        5.42241197038820        4.49085520082396
C           -5.51184898514524        5.71236480981174        6.00527232611371
H           -6.00883387405075        6.62449072032106        6.34172645361139
H           -5.65535895808024        5.59348981370750        4.92944241407419
H           -4.43168179680765        5.84172654770930        6.18577882675247
C           -7.34940858960487       -3.11523851115365        5.29858237432545
H           -6.45507660994709       -3.72695401488847        5.41918241187767
H           -7.54139584778031       -2.99111554797147        4.23313664751903
H           -8.18849889796023       -3.63025664116347        5.75473986606474
N           -6.15965482898951       -0.93701664623513        5.56081456276851
H           -5.50280823447461       -1.10043151775161        4.81605450665589
C           -7.15285540239904       -1.79604714009860        5.95088352136134
C           -6.21414924117202        0.14907809783276        6.36060780835247
H           -5.54746115124428        0.98381632257620        6.27537011537127
N           -7.17858595269818        0.02816463353386        7.23791169946772
C           -7.78108338045951       -1.17279015329337        6.99272294774062
H           -8.61552594293637       -1.50667617322847        7.57815761063185
C           -8.18853555961181        5.36275092644322        9.92165485870870
H           -9.02883007737759        6.04502917447767        9.80726470029142
H           -7.70385373163248        5.24527811930778        8.95819017309538
H           -7.47929971309915        5.79158717716017       10.62494784787429
C           -8.70148348421177        4.02505926651830       10.42662174797079
H           -9.39673784997956        3.59337076783368        9.70978112518999
H           -9.19901809182893        4.15689511354350       11.38772490796880
S           -7.33748124509029        2.83073231046307       10.68375690222384
C           -8.09497581090574        1.84682168292500       11.99792407556127
H           -9.01023145186835        1.39467081210718       11.62933223958293
H           -8.29472929401082        2.48123223149697       12.85594252774253
H           -7.38929583421548        1.06624061017961       12.26375245115993
87
 energy: -124.690319490195 gnorm: 0.047103820979 xtb: 6.7.1 (edcfbbe)
Fe          -7.34528325535600        1.26670943830718        8.86779321985615
N           -5.35268695664832        1.24954843881263        9.10705570050189
N           -7.19326938874511        2.82346223338509        7.71612625766161
N           -9.37046917502342        1.28274796031231        8.62343814330622
N           -7.49543446110340       -0.34992918288184       10.02454238663128
C           -4.61856626701342        0.32602697837085        9.77862324915522
C           -3.20755220451004        0.68861752355650        9.76422904633749
C           -3.11560162797847        1.85038551809317        9.08678837237370
C           -4.46834484248705        2.18633144855192        8.68217815655262
C           -6.06964993918609        3.55106352850854        7.45747965242482
C           -6.36891426016546        4.64172880426025        6.58927099734490
C           -7.71165204378677        4.56163294432456        6.32032039021031
C           -8.20680879721243        3.42823078497421        7.03412990056864
C          -10.10145356396085        2.07709111257942        7.79971290839784
C          -11.51997819007786        1.74981102334376        7.87607171550564
C          -11.60553409496770        0.71427950281069        8.76534286625330
C          -10.25692831636630        0.43876392575745        9.21294802326059
C           -8.63967050876757       -0.96638134532912       10.42740307632475
C           -8.35129377779895       -2.11814505762534       11.25890730053686
C           -6.97140692362713       -2.17927490257850       11.31878869731230
C           -6.47006050288719       -1.08141755354732       10.55066065901816
C           -5.12101697712456       -0.78943616395642       10.41504176734408
H           -4.42138841373757       -1.47699787744045       10.86780056753183
C           -4.79604172993288        3.29376961144172        7.92881414295130
H           -4.02177679385174        3.99601662485413        7.65913017538420
C           -9.54580561378491        3.07956020037701        7.02951579371010
H          -10.18729280491537        3.66306887200720        6.38762500903450
C           -9.92300461655487       -0.57386144792614       10.09802299661462
H          -10.72869537138882       -1.13493177382073       10.54561772977031
C           -2.19898332505902       -0.16656860706058       10.43563223427764
H           -2.25628408635043       -1.15788080958626        9.98495046250360
H           -2.47236710953675       -0.23570912112854       11.48843855985295
H           -1.16261029990060        0.18735595808924       10.36878362353787
C           -1.97462500280823        2.72062591581683        8.70316367763971
H           -2.16544792208168        3.71725788718557        9.10049398456290
H           -1.94755281444417        2.77450708385182        7.61359031252967
H           -0.98977540222593        2.39050052588214        9.05480350312219
C           -6.24043884445377       -3.23176525341129       12.07378314479304
H           -6.58341203050277       -3.15288924675070       13.11025103219450
H           -5.13421455764425       -3.22820685723055       12.11062297199614
H           -6.56727694235625       -4.19304029699373       11.66304838174071
C           -9.32747818700805       -3.02531657035024       11.81240351674188
H          -10.36005863288976       -3.02088756189016       11.43305833416168
C           -9.11179558175809       -3.94772702581148       12.75409101948090
H           -8.17800434873527       -4.04736961775843       13.26136249937441
H           -9.89606396039476       -4.61627915108290       13.06007732331416
C          -12.71856879094725       -0.12918518298426        9.28166056940296
H          -12.75181191393885       -0.00147249229062       10.36360594464445
H          -12.48725329144729       -1.16543884293096        9.04239429248859
H          -13.71847068501345        0.07290615059004        8.89478025348929
C          -12.56520154658064        2.38980486594446        7.12024078048430
H          -12.21910697929433        3.10817620744959        6.38403157399552
C          -13.87126483727267        2.16321950637222        7.25305249522044
H          -14.25346669416558        1.50807500195319        8.01188857697649
H          -14.61798380664442        2.61171086255781        6.62274854657016
C           -8.36769922136627        5.56287386054035        5.44219028288494
H           -8.11346489641841        6.54612199851638        5.84939242680298
H           -9.46163539905737        5.53000085427697        5.30675857451235
H           -7.90274760206895        5.47440074154361        4.45630647199967
C           -5.53232885872302        5.71982174157401        5.99738212062794
H           -5.97884276908609        6.67005531425871        6.30780062078464
H           -5.63136536640341        5.64223243379511        4.91059372579830
H           -4.45584263483886        5.76382768902870        6.23542266248717
C           -7.35196090752063       -3.11267211600339        5.30099767215554
H           -6.46046235364247       -3.72849958454039        5.41742660444621
H           -7.54548150318651       -2.99188332878630        4.23604556494954
H           -8.19104006825657       -3.62756932188156        5.75519097983784
N           -6.15894349114909       -0.93652369869479        5.55932559217134
H           -5.50349057230311       -1.09862743821975        4.81250647719404
C           -7.15163266348014       -1.79397864021937        5.95514584625705
C           -6.21060065012038        0.14888534003716        6.36530883160782
H           -5.54737733654857        0.98393985834023        6.27923635645880
N           -7.16789050833035        0.03003896439740        7.24838525672633
C           -7.77171703118778       -1.16721436402930        7.00030374316548
H           -8.60649398459325       -1.50199659874077        7.58175159823577
C           -8.18869602156524        5.36279805933659        9.92331591551722
H           -9.02362385981679        6.04981199833097        9.80561921156367
H           -7.70041822306398        5.24397504962068        8.96258039757605
H           -7.47785831533025        5.78790696423697       10.62600710658008
C           -8.71064781015176        4.02927927689195       10.42779641426242
H           -9.40190136800984        3.59188425472478        9.71305590592524
H           -9.19915594392081        4.15477380213359       11.39221826484995
S           -7.34363854156464        2.82313485161353       10.68719463464080
C           -8.10356671863744        1.84634270467866       12.01358768185942
H           -9.01634055447599        1.39641424341823       11.64056128490010
H           -8.29401293443694        2.48503651841285       12.86923132851686
H           -7.39102287833075        1.07053407345331       12.27002392773290
87
 energy: -124.701963519529 gnorm: 0.038043662659 xtb: 6.7.1 (edcfbbe)
Fe          -7.35195145095547        1.26318543286548        8.86074201502216
N           -5.35766308225890        1.24105551746419        9.10254758508620
N           -7.20115374282769        2.82845264438389        7.69376588461276
N           -9.36550885193356        1.28102292236905        8.62248567904308
N           -7.49770509196719       -0.35572033703016       10.02306404560068
C           -4.62312919006180        0.32024692630522        9.77336508752944
C           -3.21097875413590        0.67821859513323        9.76081333176586
C           -3.12170424663381        1.84692993622278        9.08119131603396
C           -4.47733391969609        2.17737731720076        8.67462028641654
C           -6.07561990903689        3.55470580913760        7.43908996143791
C           -6.37596179325102        4.65380411977103        6.57369047891052
C           -7.71556894050798        4.57490527870172        6.30069615332361
C           -8.21544034947911        3.43633308939977        7.01374378924948
C          -10.10121461378205        2.07162131092147        7.79995786940123
C          -11.51993255877095        1.73714976360711        7.88268024955277
C          -11.59948805109046        0.70367427972270        8.78246319338957
C          -10.24781101780748        0.43799185217698        9.21693559868586
C           -8.63959909051967       -0.97411259037650       10.42727894228776
C           -8.34905122336081       -2.12174854199368       11.26036154335880
C           -6.97287348986037       -2.18424343370825       11.32623592598448
C           -6.47334190756844       -1.08598829456694       10.55327186028976
C           -5.12661231371237       -0.78923493842389       10.41623083577418
H           -4.42783579544832       -1.46663092708944       10.88230104051459
C           -4.80635834341201        3.28198984900922        7.91938424152096
H           -4.02732096212477        3.97866758063395        7.65181073795077
C           -9.55380129847498        3.07696551352708        7.02703779108212
H          -10.20576611554863        3.66469659331930        6.39938652303627
C           -9.91872924591277       -0.57805092580527       10.09496014494767
H          -10.72762094856091       -1.14279029657902       10.53062779077784
C           -2.19752211239704       -0.17264152998131       10.43470813894289
H           -2.21848524888811       -1.17949177327420       10.00796796636349