87
 energy: -124.720522919557 gnorm: 0.000036223283 xtb: 6.7.1 (edcfbbe)
Fe          -7.34154837581341        1.20548135902559        8.90348674694742
N           -5.36664705815572        1.25646295280252        9.19465758911394
N           -7.20302403812152        2.80046678068060        7.69922378438498
N           -9.32760368168095        1.16035638565860        8.60545201278497
N           -7.47366571695262       -0.43965852895713       10.04146294412385
C           -4.63530622084481        0.41011684268049        9.96464153720650
C           -3.24119390311930        0.79963692606152        9.97094897192099
C           -3.14988221359176        1.90043522707420        9.17975390609956
C           -4.48948505642055        2.16746643050881        8.70204727357045
C           -6.07210793727534        3.47403414076792        7.36153993815409
C           -6.37185888855679        4.54769776130563        6.44021219048816
C           -7.71519887859414        4.50652423306610        6.23130645030032
C           -8.21528211143177        3.40715924745528        7.02608378933341
C          -10.05833025367812        2.00361100102570        7.83337209248218
C          -11.46596351624708        1.66084499755491        7.88993256020566
C          -11.55326239823827        0.55632156899509        8.69578602545322
C          -10.20941562798247        0.25818773434554        9.11917897264783
C           -8.59711605833519       -1.14581420594287       10.32971677900450
C           -8.28446805417197       -2.28415958720200       11.17210401770754
C           -6.92937626421200       -2.24467216641302       11.36872278145203
C           -6.45017681667130       -1.08750551441266       10.65729690739191
C           -5.12508033580033       -0.68809719758886       10.64011209036685
H           -4.42000766747921       -1.27951757943935       11.20377028516241
C           -4.80321926132349        3.19922822750295        7.83766857286191
H           -3.99794334124151        3.83795161073604        7.50782931146625
C           -9.54995563549758        3.05594161304989        7.09433224421262
H          -10.24762002352347        3.64944761273865        6.52372049250236
C           -9.87690926873392       -0.81697420713781        9.92616051267191
H          -10.68346827447261       -1.44862552566381       10.26584175176734
C           -2.17166940904963        0.08486671971263       10.72302334173372
H           -2.08889926054550       -0.94841041364789       10.38451658387310
H           -2.39715652536933        0.07424494247736       11.78939165167133
H           -1.20866612773917        0.56938433042067       10.58139464842810
C           -1.95422523080806        2.71923900708538        8.83124288811306
H           -2.09552077461688        3.75359401237963        9.14489495848907
H           -1.78274290384319        2.71327621848102        7.75416948424230
H           -1.06417594788599        2.33164815903065        9.32067654900524
C           -6.07172554198655       -3.21760245957473       12.09962486152075
H           -5.83424721093006       -2.85250253950878       13.10031158291693
H           -5.13468691089995       -3.37882666218837       11.56879709854536
H           -6.58695739268916       -4.17131067447570       12.19546115992780
C           -9.25206933429305       -3.24621924677288       11.65056024653757
H          -10.08513957636216       -3.44398583463287       10.98551542256779
C           -9.19800626278482       -3.87960412405813       12.81786931983402
H           -8.42186685174985       -3.68824311794920       13.53808221456620
H           -9.94900041013638       -4.59684700066985       13.10496954667360
C          -12.75824066101180       -0.25168092038596        9.03061637822927
H          -13.13479968839793        0.00076379165969       10.02355047728217
H          -12.52501288057137       -1.31553693492870        9.02092485634662
H          -13.54719075163528       -0.06244227407793        8.30556053715425
C          -12.51610949330502        2.36549880661051        7.18880547557444
H          -12.23841509790664        2.78685845874049        6.22946291919090
C          -13.75794041268548        2.53565486976297        7.63085461166785
H          -14.07667462463994        2.18159092563905        8.59580498083699
H          -14.49606840482652        3.06198849324364        7.04860945310739
C           -8.56575773861857        5.38302820400643        5.37775413452218
H           -7.96305540787132        6.13342623714889        4.87191603066566
H           -9.31485294438235        5.89566853563031        5.98193901451130
H           -9.08665859582053        4.79441079307460        4.62210791224386
C           -5.35563596599358        5.48296200690845        5.87982094830871
H           -5.81920773699755        6.19810729210143        5.20477216562241
H           -4.59110135210558        4.93569872647508        5.32750609268286
H           -4.86256616768908        6.03667289212395        6.67939334816508
C           -7.71583272325517       -2.76640788910117        4.99972608643184
H           -6.90132648499262       -3.48711055940618        4.92729203390793
H           -7.99642366195496       -2.46654283523373        3.99004696280627
H           -8.56726376909460       -3.24978329655895        5.46837733092471
N           -6.25650375981414       -0.78221254675890        5.45363796904898
H           -5.67190907720688       -0.89848982665221        4.64224389539253
C           -7.30739047778497       -1.58827242512048        5.80575760320015
C           -6.15244948813998        0.18766376355474        6.38949442530428
H           -5.41504764812836        0.96321395633532        6.37193758874680
N           -7.07254508430825        0.04490291878094        7.31158433803933
C           -7.79867752313874       -1.05493261106160        6.96264891789420
H           -8.62012723618905       -1.38786744502449        7.56194808336686
C           -7.53140272519371        5.24179235434954       10.10558057627616
H           -8.08539159560715        6.13831179373345        9.83433010572966
H           -6.89541431407794        4.95991749253167        9.27167963420965
H           -6.89897793372485        5.46361925115925       10.96193637908100
C           -8.49282104747545        4.11706666322816       10.43694072064877
H           -9.14132751432816        3.88930994423221        9.59257520559632
H           -9.09546081224377        4.36926781137638       11.30954901813008
S           -7.55948128359762        2.58998172488734       10.86237640208205
C           -8.82153232276387        1.81526148623742       11.91866332346886
H           -9.73769978588828        1.67343093372578       11.35439531276657
H           -8.99141810554111        2.44532338276772       12.78786572083091
H           -8.42941515123221        0.85283659788259       12.22814893956695
