78
 energy: -116.058078107541 gnorm: 0.000055962468 xtb: 6.7.1 (edcfbbe)
Fe         -11.54361805917178        2.31276313364536        1.00052301652539
N          -12.15608747437136        0.64414062955119        1.94629028693907
N           -9.86229670846219        2.30917092495549        2.11399461820929
N          -10.90068686846791        3.93005595405355        0.02877038572385
N          -13.18222283087054        2.26679461692922       -0.13030225490872
C          -13.32846791463881       -0.01763035287449        1.75559817222387
C          -13.43253750505508       -1.14341265333175        2.65555199204169
C          -12.29355849258221       -1.14602936444960        3.40003482994576
C          -11.51077654940219       -0.01853267505374        2.94718946749096
C           -9.52368462525097        1.42076400122124        3.09174747265569
C           -8.27075793116242        1.78149750344871        3.70011746970261
C           -7.85600181898340        2.92994646824115        3.07647822825191
C           -8.86624855480103        3.23351583157666        2.08322908776668
C           -9.75765090096760        4.62817388790378        0.26902499507857
C           -9.64893981465662        5.75756203454076       -0.62073158918972
C          -10.76482590363910        5.73010241603637       -1.41310705243568
C          -11.52785661786969        4.57175334903230       -0.98712309060901
C          -13.50931698520305        3.13433838886224       -1.12195038613579
C          -14.78741042757284        2.78758711152373       -1.70700386571350
C          -15.22519277902781        1.68828876568146       -1.03909577819514
C          -14.20758051914609        1.37886445992248       -0.05684939484898
C          -14.29161486359632        0.31653481192344        0.82200507359365
H          -15.17409400614981       -0.30281790336608        0.77450339372740
C          -10.28344463747680        0.32813642973133        3.47836064154270
H           -9.89786917570199       -0.28826270222515        4.27607184507576
C           -8.81547368183251        4.32186147533443        1.23425233826024
H           -7.97326487747723        4.98929653976367        1.33294202875812
C          -12.74829948336480        4.21308800541995       -1.52863702848221
H          -13.14092889226636        4.82456928455671       -2.32677574124662
C          -11.87076313295519       -2.08573651961422        4.47719245838919
H          -12.62164283888855       -2.85602278537882        4.63438518505363
H          -11.72423512943161       -1.55334483313334        5.41755180526311
H          -10.93074005594820       -2.57248305267438        4.21556344523409
C          -14.59125662936342       -2.07933590125387        2.70005619811495
H          -14.72030004429684       -2.57549576143103        1.73784871039553
H          -15.51069393266359       -1.53933640446291        2.92695631017957
H          -14.44486444830754       -2.84183717194448        3.46121951764101
C           -7.56628647398611        0.99109730727539        4.74750121906724
H           -7.69301771053897       -0.07695385139338        4.57617896156415
H           -7.95615364473304        1.22175296332252        5.74057975635775
H           -6.50288901584358        1.22151071289681        4.73548682155701
C           -6.65336167571952        3.70287089457046        3.29276346275476
H           -6.24206276291994        4.18419201719729        2.41308016427400
C           -6.03978699583671        3.86681928490160        4.46037292411431
H           -6.42699195885714        3.45364130272075        5.37535762307689
H           -5.13616220576028        4.44744381893751        4.54463031256870
C           -8.49293876957775        6.69388304175803       -0.68128526277337
H           -7.55530144687238        6.15795183329880       -0.54137872351104
H           -8.56630362529734        7.45469256273055        0.09771713930804
H           -8.46720370873442        7.19251020929907       -1.64799597715288
C          -11.14724822607028        6.61932487331965       -2.48766599971455
H          -11.67978072910857        6.15648631764509       -3.31040901862540
C          -10.90470760114288        7.92539619061627       -2.53090026567631
H          -10.42202798833332        8.44542348352748       -1.72179912690005
H          -11.20592018952848        8.52708891484583       -3.37244647159031
C          -15.43080107711924        3.53483850883710       -2.82424396821558
H          -14.79117195917460        3.52659923371382       -3.70693590630337
H          -15.60447357500365        4.57371138212324       -2.54233918027250
H          -16.38574148856173        3.08789736169415       -3.08964809593389
C          -16.47962601214192        0.90561439982283       -1.22569460076054
H          -17.08741835130435        1.33277893550658       -2.01948661648327
H          -17.06829200897726        0.89969642919474       -0.30796360920216
H          -16.25102346489235       -0.12773127117915       -1.48748515031074
O          -10.42656913058179        0.91965488357110       -0.43992217915790
H          -10.78099557839410        0.07285455975140       -0.14759240769916
H           -9.53563431545074        0.99281532834708       -0.08078977795914
C          -14.51336889704054        6.23685649462348        3.61868176507047
H          -13.97494261152490        6.94868278950626        4.24422437613438
H          -15.41492180568210        5.93064082937543        4.14923898959398
H          -14.80285176589354        6.73262672123221        2.69751631536246
N          -13.14181318340195        4.24692526304401        4.27491196605639
H          -13.27509547183080        4.35450785245579        5.26699333366464
C          -13.66154125856383        5.06221520068816        3.30385954356262
C          -12.42065915302472        3.28385111011207        3.65833713219547
H          -11.89825905763500        2.50376981463777        4.17228639893675
N          -12.45242728797129        3.43940151652861        2.35719377664731
C          -13.22090598681271        4.54146663145041        2.12099111479847
H          -13.40311671913898        4.88366620484293        1.12319644957245
