78
 energy: -116.000350426345 gnorm: 0.212270285900 xtb: 6.7.1 (edcfbbe)
Fe         -11.55700000000000        2.31700000000000        1.06100000000000
N          -12.09700000000000        0.61900000000000        1.93000000000000
N           -9.84500000000000        2.32900000000000        2.17900000000000
N          -10.89700000000000        3.90600000000000        0.03100000000000
N          -13.17100000000000        2.23400000000000       -0.16400000000000
C          -13.24300000000000       -0.09100000000000        1.64900000000000
C          -13.27900000000000       -1.30400000000000        2.46400000000000
C          -12.15300000000000       -1.30500000000000        3.22600000000000
C          -11.42500000000000       -0.10500000000000        2.92300000000000
C           -9.51900000000000        1.40400000000000        3.17000000000000
C           -8.30600000000000        1.82700000000000        3.81500000000000
C           -7.95500000000000        3.00300000000000        3.23300000000000
C           -8.90100000000000        3.29400000000000        2.17900000000000
C           -9.74100000000000        4.60400000000000        0.28900000000000
C           -9.57000000000000        5.64800000000000       -0.68600000000000
C          -10.63200000000000        5.57200000000000       -1.54900000000000
C          -11.47500000000000        4.49500000000000       -1.10100000000000
C          -13.53800000000000        3.15100000000000       -1.11400000000000
C          -14.88400000000000        2.93400000000000       -1.55000000000000
C          -15.35600000000000        1.78200000000000       -0.86800000000000
C          -14.26100000000000        1.37800000000000       -0.06100000000000
C          -14.24700000000000        0.25100000000000        0.77400000000000
H          -15.11000000000000       -0.41300000000000        0.72500000000000
C          -10.23300000000000        0.24200000000000        3.45400000000000
H           -9.78900000000000       -0.45000000000000        4.17000000000000
C           -8.84400000000000        4.37600000000000        1.30700000000000
H           -8.03300000000000        5.09200000000000        1.43900000000000
C          -12.70600000000000        4.17500000000000       -1.57800000000000
H          -13.08300000000000        4.77600000000000       -2.40500000000000
C          -11.70600000000000       -2.33200000000000        4.26800000000000
H          -12.46300000000000       -3.14200000000000        4.33900000000000
H          -11.60800000000000       -1.84200000000000        5.26000000000000
H          -10.73300000000000       -2.77400000000000        3.96500000000000
C          -14.37900000000000       -2.37600000000000        2.41500000000000
H          -14.68500000000000       -2.54600000000000        1.36000000000000
H          -15.26200000000000       -2.03400000000000        2.99600000000000
H          -13.99300000000000       -3.32900000000000        2.83600000000000
C           -7.63900000000000        1.05600000000000        4.94500000000000
H           -7.85100000000000       -0.02800000000000        4.83000000000000
H           -8.04100000000000        1.40000000000000        5.92200000000000
H           -6.54000000000000        1.21400000000000        4.91000000000000
C           -6.77100000000000        3.88700000000000        3.56000000000000
H           -6.36200000000000        4.53600000000000        2.77200000000000
C           -6.17000000000000        3.94100000000000        4.76000000000000
H           -6.52800000000000        3.31800000000000        5.59200000000000
H           -5.31200000000000        4.60900000000000        4.92500000000000
C           -8.34700000000000        6.55400000000000       -0.77100000000000
H           -7.42900000000000        5.95700000000000       -0.58100000000000
H           -8.42000000000000        7.35600000000000       -0.00600000000000
H           -8.28200000000000        7.00200000000000       -1.78600000000000
C          -10.91700000000000        6.36000000000000       -2.81100000000000
H          -11.37800000000000        5.83900000000000       -3.66200000000000
C          -10.65100000000000        7.65400000000000       -2.97900000000000
H          -10.19000000000000        8.23900000000000       -2.17000000000000
H          -10.88900000000000        8.15400000000000       -3.92900000000000
C          -15.64800000000000        3.81000000000000       -2.48100000000000
H          -15.22400000000000        3.72300000000000       -3.50400000000000
H          -15.57300000000000        4.86700000000000       -2.14800000000000
H          -16.71300000000000        3.49400000000000       -2.50500000000000
C          -16.71800000000000        1.14500000000000       -0.93300000000000
H          -17.16300000000000        1.32200000000000       -1.93500000000000
H          -17.37900000000000        1.59300000000000       -0.16100000000000
H          -16.62900000000000        0.05000000000000       -0.76700000000000
O          -10.56000000000000        1.08300000000000       -0.19900000000000
H          -10.73500000000000        0.19400000000000        0.10900000000000
H          -10.05900000000000        1.30800000000000       -0.89800000000000
C          -14.81900000000000        6.14400000000000        3.61000000000000
H          -14.31900000000000        7.10200000000000        3.86700000000000
H          -15.44200000000000        5.82000000000000        4.47100000000000
H          -15.45900000000000        6.30100000000000        2.71600000000000
N          -12.85500000000000        4.70800000000000        4.21100000000000
H          -12.78300000000000        5.07300000000000        5.13900000000000
C          -13.77400000000000        5.09300000000000        3.31200000000000
C          -12.06300000000000        3.77000000000000        3.66800000000000
H          -11.23200000000000        3.28800000000000        4.18100000000000
N          -12.47900000000000        3.54900000000000        2.41500000000000
C          -13.52900000000000        4.35200000000000        2.16200000000000
H          -14.02400000000000        4.34400000000000        1.19900000000000
78
 energy: -116.034926937779 gnorm: 0.087356514671 xtb: 6.7.1 (edcfbbe)
Fe         -11.55348941072743        2.32111482338388        1.06425298858572
N          -12.11775719452848        0.62485106263167        1.94766589381922
N           -9.86622145474439        2.33911515256086        2.21120561369613
N          -10.89531922933463        3.90831974530205        0.03019270092557
N          -13.18114660409917        2.23642262796561       -0.14932593539144
C          -13.24601718028880       -0.09539052297104        1.66363803549111
C          -13.28198478701661       -1.31236586236239        2.46274922918299
C          -12.15968942064971       -1.30746465938350        3.22877434598996
C          -11.43382758212945       -0.10294343222545        2.90519171687068
C           -9.51312931588523        1.41634975587603        3.16650106991831
C           -8.30081617538134        1.83425486071742        3.81921839624459
C           -7.93018083644234        3.01476268164778        3.23176961152937
C           -8.89927666622068        3.28747269527330        2.18172741627931
C           -9.74931386628010        4.60643593676290        0.28121416670098
C           -9.56726623888632        5.64967293501779       -0.70290875817948
C          -10.62867049120994        5.57279556176437       -1.56387440962560
C          -11.46997826601702        4.49613625715332       -1.08247860828004
C          -13.54226833488058        3.15090261713390       -1.09532357182428
C          -14.88791387696267        2.92425544622266       -1.53825566594587
C          -15.33941686793307        1.79600145612185       -0.87109663859732
C          -14.25323957753602        1.38498630090345       -0.03816744510348
C          -14.24525494540906        0.25683824388099        0.78161237055120
H          -15.10385305597500       -0.40192985807053        0.72556068055000
C          -10.22644217721442        0.25584620349521        3.44863641468616
H           -9.79403547805170       -0.42721900431703        4.17256398436785
C           -8.85227279848726        4.36700443300887        1.30822331429836
H           -8.03912975918696        5.07221403992871        1.43205706391731
C          -12.71189649592085        4.16925892445271       -1.56974532258897
H          -13.08695863257265        4.76572983299829       -2.39561264907438
C          -11.71368839787047       -2.32040942518197        4.25335424776775
H          -12.44782244225765       -3.12636465975019        4.33875939188482
H          -11.60731765664173       -1.84988962742275        5.23641498748389
H          -10.75081453915192       -2.76061507874468        3.97123276211962
C          -14.36585143515217       -2.36120572901379        2.41009323780229
H          -14.67798411691039       -2.54249434773699        1.37687335392324
H          -15.24223702633423       -2.03893237017527        2.98338329363690
H          -14.00327881602695       -3.30474378214859        2.82756841230426
C           -7.64272442464793        1.06450884973857        4.93083245644626
H           -7.84556005478454       -0.00621200641731        4.83109673398486
H           -8.02816247229980        1.39182011732218        5.90401533027254
H           -6.55923086968637        1.21258712610551        4.91075912923874
C           -6.77591220270343        3.87191798402707        3.56066158400406
H           -6.39206865246164        4.51553767418697        2.77138112193116
C           -6.17847158393841        3.93360015593633        4.74998418666170
H           -6.52349170313340        3.34264596210301        5.58742573465668
H           -5.33329351080652        4.59155301602291        4.92034920418871
C           -8.36042532523256        6.54505725091675       -0.77409679588698
H           -7.44792787660107        5.96900019305663       -0.58495926073825
H           -8.42079150814802        7.34248771206027       -0.02424274997421
H           -8.28470209040007        6.99646543342753       -1.76693205163625
C          -10.90827729110516        6.35263311378431       -2.78990221979491
H          -11.37455724108823        5.82011969063893       -3.61838966444836
C          -10.64277774297961        7.64319711443397       -2.96594678270334
H          -10.20291446276958        8.24157928495740       -2.17844667625553
H          -10.87765671364715        8.14269606144024       -3.90054465085839
C          -15.64360965121555        3.79940386681807       -2.47938318377362
H          -15.23331795042879        3.72970369441807       -3.49438999842304
H          -15.58159387315429        4.84682943768543       -2.16171211077882
H          -16.69665482055420        3.50610560747478       -2.51125178055726
C          -16.69430986612553        1.15759539826724       -0.94062273358740
H          -17.15422996970525        1.32016218327322       -1.92068983623308
H          -17.36122022910929        1.58110416739355       -0.17872145909015
H          -16.62946616181005        0.07774107924144       -0.77167806228684
O          -10.56143302065002        1.06422085140755       -0.21259201642029
H          -10.71065976963003        0.16382167081464        0.07807211665146
H          -10.02279189041853        1.28969855266513       -0.94974374619454
C          -14.81410100897030        6.14077297965902        3.60656232557735
H          -14.33205647351138        7.09059722522679        3.86328451399059
H          -15.43686866408456        5.83002269397600        4.45261589366008
H          -15.44945559198546        6.29581248816461        2.73314184125582
N          -12.85882749350499        4.71084170682152        4.21391291151574
H          -12.78174703414012        5.07669290329190        5.14761568649817
C          -13.78442919277274        5.09962311101951        3.30545792199899
C          -12.07352890011978        3.76643894093214        3.65836089542645
H          -11.25188371255912        3.28949439025390        4.16111462276059
N          -12.47318054757944        3.53951353733153        2.41761284138471
C          -13.52677824898737        4.35336873316831        2.17604851334963
H          -14.01814905223237        4.34746681225489        1.22129451827028
78
 energy: -116.045170277718 gnorm: 0.027008627712 xtb: 6.7.1 (edcfbbe)
Fe         -11.55062905722458        2.32252451669651        1.06460889207938
N          -12.13159952496993        0.62380443113372        1.95634147746386
N           -9.86176841449437        2.32707028801469        2.18932666276040
N          -10.89440924647947        3.91423150679151        0.03764692218418
N          -13.19363224788814        2.24953520899949       -0.12508486159922
C          -13.25264478456072       -0.09564972487207        1.67939665549235
C          -13.28354799945764       -1.31555461056782        2.46311038614050
C          -12.16015004397535       -1.30593549498692        3.23007465890384
C          -11.44525236434379       -0.09248454139554        2.89436245343430
C           -9.51753323324742        1.42964407542991        3.15227839041177
C           -8.30713046856953        1.83776812178341        3.82009924231695
C           -7.92234926469160        3.02335986311354        3.23847893449848
C           -8.91348895749108        3.29616114685826        2.20504837045003
C           -9.75167732991228        4.60626789043099        0.28198684203394
C           -9.56365792005647        5.64784329297059       -0.70704165407045
C          -10.62943649491752        5.56988909055579       -1.56353597624851
C          -11.46447410454888        4.48969582422122       -1.06046089922587
C          -13.54357601182896        3.15853024854756       -1.07240496824642
C          -14.89109507698678        2.91949451512889       -1.52737290309035
C          -15.32877424330614        1.81067202515330       -0.87058943388479
C          -14.24766615925542        1.39761617376418       -0.01027002164363
C          -14.25076283336311        0.26940287711665        0.79522159991651
H          -15.10664718206151       -0.38551665981309        0.73041478386236
C          -10.23278897872916        0.27709424943726        3.44875654336674
H           -9.81001036965102       -0.39719941729138        4.18064353174678
C           -8.86383176677031        4.36545212513067        1.32413334180627
H           -8.04084825995674        5.05561372202099        1.43195834440561
C          -12.71410393002953        4.16423546270070       -1.55731768671487
H          -13.08779524234761        4.75738062574306       -2.38114064728011
C          -11.71500435373014       -2.30792405233514        4.24108630045713
H          -12.43937107443194       -3.11088490424245        4.33153760305046
H          -11.60488060004511       -1.84371343569004        5.21872732725248
H          -10.75600360435733       -2.74357090322091        3.96690692022654
C          -14.35578252866565       -2.34770039293865        2.40794547176203
H          -14.66846060067787       -2.53188664090340        1.38417602681409
H          -15.22927680551536       -2.03121512459714        2.97574836558385
H          -14.00521407063144       -3.28621204685321        2.82634546221886
C           -7.64731220820607        1.07144376772773        4.91526851649507
H           -7.84409114237401        0.00766188055203        4.81913531924905
H           -8.02188843542693        1.38944734369472        5.88855841308029
H           -6.57196695353551        1.22166006254819        4.89956219865201
C           -6.79160379785115        3.85926670536731        3.55879662902848
H           -6.42600434254894        4.49253428291057        2.76020901798449
C           -6.18815000389359        3.92921670264765        4.74136208515761
H           -6.52006318163440        3.36305576896009        5.58996191687338
H           -5.34680904375684        4.57843821515901        4.90805291332654
C           -8.37054185522486        6.53617229377396       -0.77836076761846
H           -7.46116617233616        5.97073395565107       -0.58818432592491
H           -8.43005546710095        7.33123817231241       -0.03626439405273
H           -8.29444546955163        6.98970586504750       -1.76102455417003
C          -10.90744701953506        6.33871675121679       -2.76041402131577
H          -11.37744173810668        5.79262536946653       -3.57084694327754
C          -10.64052728472953        7.62781876993541       -2.94536207863389
H          -10.20812280949583        8.23977587304805       -2.17623298123052
H          -10.86483760417338        8.12296357798814       -3.87494112731257
C          -15.63893676774192        3.79064023258003       -2.48037232476574
H          -15.22859978576264        3.72375866694507       -3.48702159747689
H          -15.58178845898545        4.83199149136220       -2.16782959378594
H          -16.68510499293362        3.50572131401257       -2.51691431447541
C          -16.67464472406564        1.16620949904395       -0.94541055267523
H          -17.13437380878722        1.32753380101823       -1.91637218988666
H          -17.34039588424181        1.57971138851692       -0.18632825758392
H          -16.61242554735735        0.09484530518979       -0.77644868570871
O          -10.56315676800865        1.03972727626886       -0.25243198766235
H          -10.65635049873012        0.12138523978188        0.01652920644325
H           -9.98713962429347        1.25598255662391       -0.98970205958063
C          -14.81100057098937        6.13889449236153        3.60137150765033
H          -14.33655998975478        7.08356301892985        3.85843747688020
H          -15.43300472387259        5.83357275774816        4.44013342085901
H          -15.44406615328465        6.29206917541982        2.73746290949627
N          -12.86057968924580        4.71123023937392        4.21836055562281
H          -12.77751046716889        5.07568466688440        5.15489769030315
C          -13.79148733145085        5.10441515569368        3.29915886502762
C          -12.08450176235195        3.76183149432813        3.64918355728454
H          -11.26957586415231        3.28398448616047        4.14553158878936
N          -12.46948426013052        3.53222033922008        2.41692598380104
C          -13.52724319194941        4.35647348044124        2.18512115198986
H          -14.01931945608962        4.35523923205305        1.23629937450821
78
 energy: -116.048562882819 gnorm: 0.024826271090 xtb: 6.7.1 (edcfbbe)
Fe         -11.54594431238657        2.31540266740555        1.05786133814111
N          -12.14121632887967        0.62731642815590        1.96389822198352
N           -9.87555575198390        2.33460419603309        2.19415484412734
N          -10.89257009446180        3.91354473933828        0.04670989661464
N          -13.20041434434378        2.26470806197033       -0.10275744913121
C          -13.26202273003818       -0.08947315563129        1.69109328793541
C          -13.28749618613145       -1.31013760583811        2.46783754237121
C          -12.16196790555278       -1.30019849039824        3.23265642160318
C          -11.45356114509399       -0.08368692369391        2.89610313409165
C           -9.52950678400046        1.43564378970160        3.15186125117051
C           -8.32137415849876        1.84065710912622        3.82375133051694
C           -7.93591056231408        3.02819224317080        3.24673402803649
C           -8.91846003207320        3.29587258508058        2.20715651726427
C           -9.74741619885022        4.60180726508421        0.28529291978445
C           -9.56214720236088        5.64354823480157       -0.69980217188574
C          -10.63342944465289        5.56615495060889       -1.54945869709371
C          -11.46521807838133        4.48640680896867       -1.04186210950853
C          -13.54448197859721        3.17101282688602       -1.05249377285761
C          -14.89098334660945        2.92481064800024       -1.51931357366223
C          -15.32753221173538        1.81961337611519       -0.86275053924318
C          -14.24896852247885        1.41150411656729        0.01210279656783
C          -14.26173169795131        0.28306606634210        0.81066266830636
H          -15.12018532845243       -0.36738194630750        0.74342811819813
C          -10.24290773165555        0.28633427204782        3.45532996622536
H           -9.82930874278692       -0.37816717275426        4.19967991285145
C           -8.85902461782264        4.35774507628006        1.32328937415050
H           -8.03404611356975        5.04505791176914        1.42826207946784
C          -12.71727782624627        4.16892881021112       -1.54113114137464
H          -13.08888446060795        4.75981812306268       -2.36563908862983
C          -11.71013275333804       -2.30130948341215        4.23689136258721
H          -12.43269540428133       -3.10668262903457        4.32751212957618
H          -11.59797472107927       -1.83626715306267        5.21483316305765
H          -10.74923829994277       -2.73149522889654        3.95838895150510
C          -14.35739916941024       -2.34125991782775        2.40775866449323
H          -14.66461866400166       -2.52454291061852        1.38134095348781
H          -15.23366505821983       -2.02141538273227        2.97097512535376
H          -14.00974106131165       -3.28018881682438        2.82990063492097
C           -7.64975736744565        1.07201305214221        4.90635250998418
H           -7.84061999288793        0.00708189646022        4.80510914453724
H           -8.01738958185318        1.38421238408280        5.88512220300290
H           -6.57539481163450        1.23351827340131        4.88057261399919
C           -6.80480991905905        3.85980955088184        3.55707450312765
H           -6.44335423724453        4.48230963108941        2.74788700807898
C           -6.19231980562644        3.93530228645424        4.73598139891833
H           -6.52498274333918        3.38625159453745        5.59731090221882
H           -5.34329272178817        4.57752163677965        4.89035017446522
C           -8.37313218577184        6.53255336416789       -0.77926231531652
H           -7.46126431089574        5.97019415384813       -0.58954625320815
H           -8.43510406689359        7.33028288967091       -0.03927562767644
H           -8.30314830849642        6.98437666014416       -1.76425291303769
C          -10.91305155034661        6.32919266447432       -2.74167715349096
H          -11.39378040353118        5.77742013498347       -3.54182454090416
C          -10.63667324327115        7.61563468435590       -2.93216956106499
H          -10.21090564728089        8.23444192778794       -2.16347054752784
H          -10.86075605307254        8.10891246409242       -3.86211785462551
C          -15.63155502762490        3.78773369506130       -2.48546290727882
H          -15.21080553172825        3.71341490597022       -3.48704072351962
H          -15.57783485740842        4.83031493902966       -2.17637736796966
H          -16.67744806917613        3.50007805011092       -2.52873690744079
C          -16.66622909827927        1.16733843754605       -0.94742801166551
H          -17.11913373377525        1.33459223085106       -1.92061064515272
H          -17.33337027159716        1.57622274740402       -0.18715342080763
H          -16.59431982495855        0.09608352889984       -0.78405894355355
O          -10.58030059385002        1.01598697592833       -0.32083653727567
H          -10.58184155395404        0.08695926775857       -0.04122345070245
H           -9.94787937613643        1.23083939870339       -1.01986092375740
C          -14.80874978148220        6.13637857626906        3.59589479854752
H          -14.33527069659715        7.08195924483801        3.85363113671507
H          -15.43334153752971        5.83169309223112        4.43388556713522
H          -15.44183162582820        6.28951522989573        2.73032974364350
N          -12.85958352301831        4.70426634075285        4.22044273678128
H          -12.77433292915000        5.06610553281118        5.15738761648859
C          -13.78984801116865        5.10161353422502        3.29534864235798
C          -12.08831465986156        3.75351801975107        3.64547096819610
H          -11.27703097385356        3.26917437747473        4.14297721582454
N          -12.46650958791592        3.52572137953123        2.41266789632368
C          -13.52499991346548        4.35600715463986        2.18338850437175
H          -14.01972290109999        4.36091060126738        1.23594323025518
78
 energy: -116.050333122865 gnorm: 0.047723244814 xtb: 6.7.1 (edcfbbe)
Fe         -11.54657897483529        2.31279083071530        1.05465255460213
N          -12.14782791853509        0.63061682426659        1.96458809066007
N           -9.88403082369279        2.33227783394457        2.18428847812852
N          -10.88744937996498        3.90622887893148        0.05440433461404
N          -13.20374472449203        2.28257283947100       -0.07576220298234
C          -13.27192374905753       -0.08233943390673        1.70065961860215
C          -13.29354873694352       -1.30170793434173        2.47442911566105
C          -12.16498326505192       -1.29309598316346        3.23482608510117
C          -11.46136016333772       -0.07576058893849        2.89693651604681
C           -9.54405745603068        1.43781774254094        3.15008345754402
C           -8.34006655524196        1.84237893204680        3.82625442915575
C           -7.95395399779301        3.02834659958818        3.25065291661933
C           -8.92283318846614        3.29172722180112        2.20200467761236
C           -9.73971053353597        4.59501817008919        0.28781655841787
C           -9.56098637534153        5.63750335884201       -0.69053923340619
C          -10.64058640309218        5.56257229796524       -1.53036801348370
C          -11.46617331867903        4.48167930095129       -1.02301486860559
C          -13.54321601078134        3.18429680776229       -1.03086069372622
C          -14.88862722349730        2.93309958496020       -1.50872019197100
C          -15.32706596557143        1.82995745574008       -0.84965536412153
C          -14.24992059830655        1.42834071343077        0.03697309719675
C          -14.27684558243826        0.30045003411892        0.83039771440846
H          -15.14300512474634       -0.34011759684489        0.76660868731853
C          -10.25769216814075        0.29460830712226        3.46632122249018
H           -9.85579039674266       -0.35585322053425        4.22834005251687
C           -8.85145407045858        4.35010024212066        1.32025378641667
H           -8.02409750414927        5.03487408285256        1.42383026683912
C          -12.72105697414313        4.17692724741989       -1.52224253836725
H          -13.09272260007050        4.76998080993060       -2.34367483191010
C          -11.70219454639995       -2.29493567085668        4.23368434377260
H          -12.42096693884907       -3.10568835757011        4.32534831110511
H          -11.58694158543917       -1.83017678205262        5.21342085231812
H          -10.73866872394097       -2.71799047594035        3.94709334450535
C          -14.36444836352833       -2.33404703097531        2.40914729753482
H          -14.66045336059853       -2.51853869681191        1.37756364172423
H          -15.24710530587788       -2.00882701009643        2.96259734077410
H          -14.02102612211070       -3.27330167132073        2.83819120364749
C           -7.65313863188216        1.07294246522572        4.89830367538981
H           -7.83280856110197        0.00522700811459        4.78895225489026
H           -8.01178750844122        1.37447707120408        5.88540778644214
H           -6.57944569464292        1.25059950173264        4.85808621618902
C           -6.81709572350467        3.85973637216228        3.55201920832247
H           -6.45585489534554        4.46846884168196        2.73134545485981
C           -6.19921794059188        3.94675982800485        4.72834001373487
H           -6.53222083659843        3.41321689917669        5.60156400353937
H           -5.34083089029320        4.58303182105291        4.86666305317330
C           -8.37497987077610        6.53038003295101       -0.77981671347398
H           -7.45847944160829        5.97274643006100       -0.59010495347736
H           -8.43913785692195        7.33411744751389       -0.04404319787222
H           -8.31285176622979        6.97625297819413       -1.77028005465925
C          -10.92894829430215        6.32425555898282       -2.72081929714198
H          -11.41513349849774        5.76706808032729       -3.51400877995028
C          -10.64304579654712        7.60788382650025       -2.91390995986155
H          -10.20276197726748        8.22406016374901       -2.14951178609358
H          -10.85747110844688        8.09783171972125       -3.84905645688142
C          -15.61832619864227        3.78438900352640       -2.49300721128838
H          -15.18198707448587        3.69800574040415       -3.48830870918404
H          -15.57091641904370        4.83102800532124       -2.19297070069049
H          -16.66450479789652        3.49231116559995       -2.54831402056558
C          -16.65776919766898        1.16671878177812       -0.94889109122143
H          -17.10370181414766        1.34371327484251       -1.92505475048289
H          -17.33163134799659        1.56258649832202       -0.18644974675235
H          -16.57328720283994        0.09338118146044       -0.79966237108930
O          -10.62522686248967        0.98190184922425       -0.42259487342101
H          -10.48284993051650        0.05655963302105       -0.10178933850791
H           -9.87190661403071        1.18830495186821       -1.02932751323464
C          -14.80782563005010        6.13523832015244        3.59083539493508