78
 energy: -116.057409562841 gnorm: 0.000090129712 xtb: 6.7.1 (edcfbbe)
Fe           7.21872309877516        4.88694570521768       -1.24944827935905
N            7.05408318351787        3.32202295576002        0.00750328556009
N            9.00736704986492        5.31459191316941       -0.48383390091204
N            7.32627610871463        6.47970771820861       -2.44265232168391
N            5.39685196123287        4.45788223379569       -1.98912697878087
C            6.04002569192010        2.41672220376544        0.06449802707017
C            6.29869908669932        1.42360327045559        1.08223313783491
C            7.49676112025034        1.74883401998518        1.63942203783730
C            7.95793878984259        2.93147814037561        0.94864789902541
C            9.64781594978223        4.65836197669391        0.52050632701686
C           10.93898340164580        5.24409978623522        0.77231435681140
C           11.08543999914902        6.25891151959501       -0.13352359024503
C            9.84831011020832        6.29904687852866       -0.89033312215685
C            8.35716586411562        7.36317621970207       -2.52184691661040
C            8.05851025334821        8.41846491388812       -3.45734878193297
C            6.81104182410901        8.15038866080553       -3.95416938338965
C            6.38133462456421        6.92328546923846       -3.30944887661070
C            4.72857426404082        5.14391726981181       -2.95559482316957
C            3.47661313567579        4.49399829691598       -3.27043426556562
C            3.40808266530630        3.39163750204802       -2.47584726743390
C            4.61568761760951        3.38694478568123       -1.68159768442872
C            4.90508674593503        2.43189518952739       -0.72534566251269
H            4.18806815645358        1.63845732170428       -0.58119382165553
C            9.16211169960261        3.55676829093785        1.20537382464564
H            9.78127966208175        3.14483633284098        1.98781548113719
C            9.54057543836612        7.27978700655597       -1.81175063153173
H           10.27036500295546        8.05972613774130       -1.96247642231751
C            5.16710696572801        6.30875979066982       -3.55714500412054
H            4.51169809566849        6.76686055544971       -4.28195285686454
C            8.24378895657439        1.07168678907587        2.73711761393755
H            9.21364847008692        0.72054053210832        2.38323831460996
H            7.68760626720108        0.21683908723344        3.11386241680883
H            8.41639374883635        1.76031825525708        3.56446874641016
C            5.38289206155575        0.29332300355920        1.40622881025179
H            5.22982387953171       -0.33850770445688        0.53100601382474
H            4.40989634474996        0.66678353096783        1.72670755308266
H            5.79307945743917       -0.32077035548079        2.20418903446651
C           11.91268251857296        4.76469439954170        1.79317533808926
H           12.24521468866416        3.75107063300301        1.56485147206042
H           11.45613744351545        4.75402107470407        2.78313338583753
H           12.78687894445389        5.41021329210155        1.81991912085129
C           12.24397449353441        7.11135690369548       -0.30374352814116
H           12.74843196464071        7.39723506671956        0.61313225357523
C           12.74080912518974        7.51863804890658       -1.46624558280366
H           12.31030257393524        7.21961529846589       -2.40706968779131
H           13.61311348922930        8.14913305243356       -1.51723057007020
C            8.98589442630407        9.52125060798081       -3.83073458971877
H            8.71338901673198        9.92588905720891       -4.80352188089381
H           10.01315488988717        9.16323907345903       -3.87620868880426
H            8.94360202685444       10.32795975377859       -3.09734964253619
C            6.04066405683314        8.87942585285668       -4.93713433803256
H            5.40977915564203        8.27663935665237       -5.58063403768799
C            6.04438595399795       10.19901049477380       -5.09636869392817
H            6.61175768294754       10.85127505296710       -4.45604363460064
H            5.45329422234374       10.67581577081833       -5.86077179116307
C            2.50241351612237        4.99218144895855       -4.28217848194667
H            2.96086952791726        5.02852650673350       -5.27080225938317
H            2.16693041618525        5.99819572580024       -4.02887590999718
H            1.63121576016157        4.34371613990526       -4.33289822266920
C            2.33741236569020        2.35901925849841       -2.38417903000426
H            1.53665395151843        2.56839291999362       -3.08914074916994
H            1.91222236030805        2.33388674846100       -1.38031464636178
H            2.73954163006516        1.37009675358505       -2.60513397829474
O            6.12664204854760        6.10933515535959        0.35279947089408
H            6.05921795828112        5.44008396260333        1.04261739914423
H            5.25680890088811        6.18604801853663       -0.05406172295731
C            8.66661141573358        2.33920970083297       -5.98834177987648
H            8.42789389967874        1.28056758630598       -6.08996964299145
H            9.67466682923290        2.49943355985042       -6.37056602292013
H            7.97043525790484        2.91253602929647       -6.59230382111128
N            9.33098889905670        2.21744435374189       -3.57692354251684
H           10.01777309418808        1.49126601568720       -3.69764269161577
C            8.56572447075684        2.76917085151652       -4.57074218053747
C            8.99703074360497        2.82632259257207       -2.41669913114498
H            9.43731022067550        2.59519253345050       -1.46868155398178
N            8.06748653765068        3.72908514090780       -2.61563967773525
C            7.78888822301208        3.70529151494864       -3.95058489420478
H            7.05308854638896        4.35818948881793       -4.37195412391686
