78
 energy: -116.057560119978 gnorm: 0.000048785418 xtb: 6.7.1 (edcfbbe)
Fe          14.43292651447213       54.56291981131405       19.10475499347550
N           13.05270783891855       55.92179190093477       18.55006521441782
N           13.98621128256157       53.45891158627528       17.50607446770529
N           15.86924640946567       53.28351656213745       19.61160125843036
N           14.87802848915239       55.69718313400278       20.70466818792924
C           12.69169887561640       57.04788287292369       19.22305096623085
C           11.65374651409321       57.75768632584582       18.51067775569426
C           11.39139130956979       57.03085954458673       17.39053660563549
C           12.26675052857170       55.88201263940938       17.43786336463090
C           13.06471942447259       53.73953464170932       16.54580725157692
C           12.98939166843526       52.67238913079743       15.58226471722217
C           13.86871039474270       51.71122087914593       16.00139788136581
C           14.50224074301591       52.24342424520150       17.19290334881631
C           16.21359094900087       52.14811312416703       18.94712161305933
C           17.33823502744815       51.50400418651926       19.57886927874281
C           17.66416766569190       52.27533217746225       20.66200701882633
C           16.72940238540072       53.38553730372371       20.65557212765476
C           15.81507069676442       55.43126937859371       21.65434801056831
C           15.78163903501569       56.42967813269340       22.69879841206134
C           14.79784807100902       57.30576914722849       22.35844139753461
C           14.24521260285558       56.83174127275250       21.10972558951798
C           13.23191903388826       57.47342672449322       20.42275369926278
H           12.83098618934904       58.37673526386817       20.85606310853316
C           12.27419434293615       54.87585567954245       16.49189905132129
H           11.59619177499990       54.97099911762797       15.65731150048212
C           15.56750233946313       51.64325091226276       17.83399262776179
H           15.93643071549352       50.71908564079801       17.41759129110513
C           16.69772594652983       54.36771934423864       21.62900034602126
H           17.40817911965708       54.29451581126896       22.43823896420730
C           10.41438830605062       57.29856804798327       16.29721232174010
H            9.88906001719434       58.23492279873095       16.46836090682743
H            9.67638537782621       56.49805544723240       16.23591863863933
H           10.92339792151354       57.36156551240686       15.33519879106346
C           11.03942197213362       59.03464872226749       18.97231033811395
H           11.79705453767093       59.81279240861993       19.06882373074172
H           10.56650895199885       58.90211372012148       19.94570364838166
H           10.28451254211816       59.37761661499589       18.26903075084454
C           12.07324953690149       52.64250055080366       14.40755396369674
H           12.22471174811130       53.52140161671251       13.78046262988961
H           11.03104274427111       52.63456005864676       14.72983698485661
H           12.24941082624923       51.75293303480041       13.80818898000446
C           14.11056204281072       50.42496566712368       15.38151978483907
H           14.08198308230069       50.41995987091771       14.29704118476705
C           14.31533371260500       49.28153863971824       16.02576657662028
H           14.30102368167477       49.22130218119580       17.10086203110906
H           14.48270209993748       48.35817681898904       15.49616829343380
C           18.01940061064620       50.28108355196350       19.07275409011690
H           18.05592459755972       50.28462356187809       17.98465120053500
H           17.49032130482357       49.38075157932636       19.38991218332279
H           19.03658619215179       50.23452583126893       19.45654694091558
C           18.72575324945063       52.09905664930201       21.62791224162924
H           19.16158375821411       53.01276717573518       22.01559654525148
C           19.18611608289999       50.93138050815841       22.06548378450440
H           18.76123210707108       49.99404865791364       21.75158085659111
H           19.99322875292011       50.87498244450943       22.77709756267089
C           16.68218731170472       56.43375790668258       23.88613326632208
H           17.72497903608536       56.50823885156833       23.57629551734528
H           16.56569070461288       55.51349167346655       24.45892371489956
H           16.45894968710095       57.27424440241022       24.53868820610235
C           14.33231495887135       58.52733667495704       23.07409684273151
H           14.88703803395385       58.66913240762577       23.99831706449958
H           13.27279241281891       58.44770053838783       23.31812766695668
H           14.46994501386025       59.41296532241022       22.45286916202359
O           15.92998178573802       55.84478350990812       17.93157496506629
H           16.29796023957415       56.36578542513744       18.65359625751578
H           15.31494140160324       56.41391747181201       17.45620522821159
C           11.72959722488840       51.73015314915213       23.06850109400068
H           11.42690967785146       50.70570281478442       22.85217069609827
H           10.90470164465434       52.22900186207083       23.57717100988729
H           12.58617735076095       51.70657396754619       23.73473229329099
N           11.20518567784874       52.62784384024680       20.79018133066185
H           10.25223848931005       52.30369027963506       20.77031833877669
C           12.09108947935435       52.44786103386628       21.81999767172601
C           11.84433249303095       53.31217879077611       19.81478487441093
H           11.39378601646260       53.59584816125529       18.88609958760615
N           13.07985672507127       53.57621326150625       20.16448888082858
C           13.24837622840004       53.04496777953109       21.40937272527647
H           14.18400676074162       53.12740271241608       21.92245859485661
