87
 energy: -128.261091463264 gnorm: 0.450891288649 xtb: 6.7.1 (edcfbbe)
Fe           2.62100000000000       -4.42900000000000       35.34000000000000
N            0.92900000000000       -5.50600000000000       35.66100000000000
N            3.61500000000000       -6.03600000000000       36.45700000000000
N            4.46600000000000       -3.81300000000000       34.73900000000000
N            1.67600000000000       -2.97900000000000       34.25699999999999
C           -0.33900000000000       -4.93100000000000       35.22899999999999
C           -1.38500000000000       -5.97800000000000       35.46700000000000
C           -0.75300000000000       -7.06300000000000       35.91899999999999
C            0.67400000000000       -6.70600000000000       36.21000000000000
C            3.01600000000000       -7.17200000000000       36.90499999999999
C            3.88400000000000       -7.91900000000000       37.59100000000000
C            5.22300000000000       -7.27100000000000       37.44600000000000
C            4.95500000000000       -6.13000000000000       36.53099999999999
C            5.66500000000000       -4.18400000000000       35.21000000000000
C            6.62100000000000       -3.44800000000000       34.65900000000000
C            5.91900000000000       -2.50300000000000       33.76500000000000
C            4.62100000000000       -2.71700000000000       33.94200000000000
C            2.28800000000000       -1.93800000000000       33.66200000000000
C            1.25900000000000       -0.89200000000000       33.33900000000000
C            0.08200000000000       -1.38400000000000       33.72100000000000
C            0.35000000000000       -2.73400000000000       34.30000000000000
C           -0.61300000000000       -3.57600000000000       34.62700000000000
H           -1.64700000000000       -3.28000000000000       34.45500000000000
C            1.56100000000000       -7.52400000000000       36.76400000000000
H            1.22000000000000       -8.49100000000000       37.13200000000000
C            5.89800000000000       -5.27700000000000       36.18200000000000
H            6.88800000000000       -5.38000000000000       36.62600000000000
C            3.56700000000000       -1.85600000000000       33.34100000000000
H            3.86600000000000       -1.11800000000000       32.59600000000000
C           -1.43900000000000       -8.33400000000000       36.37000000000000
H           -2.38700000000000       -8.46400000000000       35.80600000000000
H           -1.67100000000000       -8.27100000000000       37.45499999999999
H           -0.78000000000000       -9.20600000000000       36.17300000000000
C           -2.84400000000000       -5.86600000000000       35.05900000000000
H           -3.01000000000000       -6.43200000000000       34.11799999999999
H           -3.10500000000000       -4.80000000000000       34.88900000000000
H           -3.49000000000000       -6.29300000000000       35.85499999999999
C            3.63000000000000       -9.23500000000000       38.28900000000000
H            2.96200000000000       -9.86400000000000       37.66300000000000
H            3.13800000000000       -9.05200000000000       39.26800000000000
H            4.59100000000000       -9.77100000000000       38.44100000000000
C            6.41500000000000       -7.76700000000000       37.75099999999999
H            7.18100000000000       -7.91700000000000       36.97600000000000
C            6.73800000000000       -8.13400000000000       39.17599999999999
H            5.99100000000000       -7.99400000000000       39.97100000000000
H            7.72400000000000       -8.54600000000000       39.43700000000000
C            8.12300000000000       -3.61700000000000       34.79700000000000
H            8.54700000000000       -3.97000000000000       33.83200000000000
H            8.34500000000000       -4.36900000000000       35.58400000000000
H            8.58800000000000       -2.64300000000000       35.06000000000000
C            6.56500000000000       -1.31700000000000       33.14100000000000
H            6.00800000000000       -0.37500000000000       33.02800000000000
C            7.81700000000000       -1.36400000000000       32.70900000000000
H            8.40600000000000       -2.28800000000000       32.80500000000000
H            8.28300000000000       -0.48000000000000       32.24900000000000
C            1.43300000000000        0.25200000000000       32.36400000000000
H            1.28000000000000       -0.11800000000000       31.32700000000000
H            2.46000000000000        0.66600000000000       32.45100000000000
H            0.68400000000000        1.04400000000000       32.57800000000000
C           -1.27000000000000       -0.90300000000000       33.23300000000000
H           -1.48400000000000       -1.34500000000000       32.23700000000000
H           -1.26400000000000        0.20400000000000       33.14200000000000
H           -2.06100000000000       -1.22100000000000       33.94499999999999
C            1.32900000000000       -0.65900000000000       39.46300000000000
H            2.13600000000000        0.06100000000000       39.71700000000000
H            0.93500000000000       -1.10300000000000       40.40200000000000
H            0.51900000000000       -0.11800000000000       38.92900000000000
N            2.90700000000000       -2.56900000000000       38.98200000000000
H            3.37200000000000       -2.51600000000000       39.86499999999999
C            1.87900000000000       -1.73700000000000       38.58600000000000
C            3.16700000000000       -3.42900000000000       38.01700000000000
H            3.93400000000000       -4.20100000000000       38.06700000000000
N            2.34700000000000       -3.18500000000000       37.01100000000000
C            1.53000000000000       -2.13500000000000       37.34100000000000
H            0.77500000000000       -1.76900000000000       36.65599999999999
C            3.51400000000000       -7.71200000000000       30.70000000000000
H            3.43700000000000       -7.15700000000000       29.74100000000000
H            2.98700000000000       -8.68500000000000       30.59700000000000
H            4.58700000000000       -7.88400000000000       30.93100000000000
N            1.55700000000000       -6.53400000000000       31.77100000000000
H            0.91000000000000       -6.78100000000000       31.05000000000000
C            2.88500000000000       -6.91100000000000       31.79100000000000
C            1.28600000000000       -5.80900000000000       32.83900000000000
H            0.31000000000000       -5.38200000000000       33.06600000000000
N            2.39100000000000       -5.70300000000000       33.55800000000000
C            3.40400000000000       -6.37700000000000       32.92300000000000
H            4.40300000000000       -6.41300000000000       33.33800000000000
87
 energy: -128.387510650016 gnorm: 0.236108144781 xtb: 6.7.1 (edcfbbe)
Fe           2.59519542217047       -4.46665244240236       35.32335663799464
N            0.87331489601351       -5.44613921499680       35.67566100091828
N            3.57428978570825       -6.03684011434361       36.40006864489080
N            4.42335985847879       -3.79554879683250       34.76399629180962
N            1.67807150787532       -2.97297108661687       34.28704103116850
C           -0.35674724125853       -4.92890018585944       35.23316292658775
C           -1.38222084899544       -5.96436000790828       35.44832708882251
C           -0.76051660249218       -7.05481426704114       35.94723774761749
C            0.65775970796270       -6.69174923870977       36.17551081299401
C            2.98793726214524       -7.15515356909952       36.90901648151451
C            3.90594972416115       -7.92507831638402       37.60119266338626
C            5.18805358292404       -7.29521518979053       37.44381808734734
C            4.91904844814092       -6.13267361946481       36.56616847085724
C            5.64791776030107       -4.18944069208713       35.21626401994788
C            6.64061878168374       -3.42846717895069       34.63508939219137
C            5.96211656465841       -2.48365893844420       33.78571914671775
C            4.60967263010148       -2.72241012963723       33.93695734494636
C            2.28160735116118       -1.93334919193236       33.66757544713730
C            1.26192354371761       -0.91453559528842       33.30060451071353
C            0.07460487366980       -1.41024057873128       33.69392022290022
C            0.35112349775084       -2.73584912554862       34.30289847771236
C           -0.61617987139941       -3.62173662927872       34.65706369539424
H           -1.64207327410303       -3.31635432135622       34.47349374575960
C            1.57988205444874       -7.50559761292895       36.75811457206773
H            1.24547269843718       -8.47224325563600       37.13110119100578
C            5.88217089713376       -5.25830526505856       36.17131807510258
H            6.87742585548937       -5.37468489391800       36.59760272045694
C            3.59146900426859       -1.87042174098929       33.34885063177307
H            3.89092035600145       -1.12342875601210       32.62011940425887
C           -1.43324996710905       -8.33088725859726       36.36919588843016
H           -2.37204143275368       -8.46415969903676       35.81470854705183
H           -1.66751429241600       -8.27909998172812       37.44205859862263
H           -0.78855067029908       -9.19822699333854       36.17946646517129
C           -2.83375503969815       -5.86171084846729       35.05803465010788
H           -3.01075589647433       -6.42377351805888       34.12944418138397
H           -3.10701883017096       -4.81428339431897       34.89085869717547
H           -3.47891898367275       -6.28251751241298       35.84252942169543
C            3.63858366965196       -9.23053007165033       38.28842644157685
H            2.97310589225365       -9.85497197647206       37.67388357743074
H            3.14804888624949       -9.05831736647638       39.25746032402329
H            4.58200199639746       -9.76613208531551       38.44600907649504
C            6.43426684216564       -7.79040097416419       37.80664780918983
H            7.19247056653389       -7.90765902703862       37.02294163358968
C            6.73381632495136       -8.13716611116941       39.13148101860269
H            6.00607532868267       -7.99298996427552       39.93142280587979
H            7.70456190930259       -8.53666815912126       39.41665115127903
C            8.12142445143224       -3.61242868488984       34.79452139268453
H            8.54951676685055       -3.97175511791405       33.84872135406526
H            8.34293277757550       -4.35418675763820       35.57299396909189
H            8.58937819664147       -2.65500597397430       35.05757185550859
C            6.57699278574295       -1.32521783662976       33.13925253372306
H            6.00536554067544       -0.39911849405189       33.03179533266642
C            7.82780177641180       -1.35805909988921       32.70306564951717
H            8.41018779759738       -2.26575896656151       32.78690814987674
H            8.28789821687252       -0.48642418892366       32.25096711933078
C            1.44220830593976        0.24984675536121       32.37020283347690
H            1.28545216333088       -0.10821897708375       31.34120149566887
H            2.45112166708043        0.66846043434889       32.44850442988827
H            0.70043548756342        1.03413614895117       32.57543296096348
C           -1.26925376174660       -0.90712903766254       33.24490635961623
H           -1.48407792119903       -1.33729784025431       32.25451007261740
H           -1.26744768011333        0.18669260200088       33.14703892964350
H           -2.06004256832429       -1.21215982220905       33.93891210976201
C            1.33187544478797       -0.65901593891128       39.46376098026893
H            2.12467752301206        0.05733465664100       39.71842000343461
H            0.93668636299115       -1.09182943633931       40.39294085850074
H            0.53026580755897       -0.12676999306951       38.93862901111394
N            2.90277869457722       -2.55827386890704       38.99333403041677
H            3.37178000648371       -2.50792787549936       39.87861560836318
C            1.87838844438132       -1.73528988568288       38.59172308501804
C            3.16307550882960       -3.42545695897356       38.01054934970430
H            3.92317197785248       -4.19006330327634       38.06210500962828
N            2.35802818971469       -3.19955959294494       36.99425863589935
C            1.54382152628854       -2.14986650025318       37.33781732691016
H            0.78985435941706       -1.78000899976205       36.66216664933647
C            3.51227080967854       -7.71352964291547       30.69672422303343
H            3.44014624559837       -7.16793609766968       29.74624421919624
H            2.99760395601426       -8.67811887675233       30.59279012011140
H            4.57026477887716       -7.88413266201216       30.92689269485195
N            1.56366127602372       -6.54321327613303       31.75825583846414
H            0.90873628032483       -6.78863343544259       31.03847834939470
C            2.88706298337908       -6.91482949513533       31.78272067559044
C            1.30398898926574       -5.80650982605269       32.84111947883299
H            0.33338504292830       -5.38680949474627       33.06762647127965
N            2.40115794207931       -5.68874674666449       33.56046466453000
C            3.39632675252577       -6.37268821652966       32.92317259038028
H            4.38980256532970       -6.41118477905848       33.33521280593867
87
 energy: -128.436684881179 gnorm: 0.076698847230 xtb: 6.7.1 (edcfbbe)
Fe           2.57474152307661       -4.50343127632483       35.30256542894470
N            0.82841840504533       -5.39596288211808       35.67473480886960
N            3.53998906675138       -6.03572561768827       36.34894663170860
N            4.38454264050087       -3.77784949926935       34.78651605057647
N            1.67816312080921       -2.97389992111022       34.31272039308728
C           -0.36796826630402       -4.92319135895415       35.24760227627570
C           -1.37696408304295       -5.94953212743863       35.43461295984918
C           -0.75660323744419       -7.04135974780441       35.96768832773682
C            0.64302174051434       -6.66818525051702       36.15364007221437
C            2.95784444805056       -7.13646568284457       36.90082881409957
C            3.93272920349746       -7.92605926122120       37.58970181368259
C            5.14328560680973       -7.30901976802374       37.42958395971900
C            4.88442772564458       -6.13156963432576       36.59736235135398
C            5.62218404904568       -4.19899314277773       35.22377672805551
C            6.64107092651015       -3.41205361345532       34.61633666323230
C            5.99617553966655       -2.47520774152443       33.81626445774588
C            4.59534473297976       -2.72279956127270       33.94597797632613
C            2.27422168328984       -1.93755160150806       33.66788382024674
C            1.26844670271713       -0.95000995536122       33.26774171558203
C            0.06942180788987       -1.44760455189433       33.66936339304689
C            0.34851940326052       -2.74129847866314       34.30323782466488
C           -0.61136513563121       -3.66537280131783       34.69337961216452
H           -1.63185130833700       -3.35510282703577       34.49196823464582
C            1.60176627406585       -7.46984926911704       36.75648075190188
H            1.26994162266463       -8.43777225058510       37.12718821859394
C            5.85201527149470       -5.23982531737897       36.14951740712687
H            6.85314869274766       -5.37259417982957       36.55651979458350
C            3.61737318056939       -1.89167811617011       33.37040864086826
H            3.91968399810462       -1.13386996995200       32.65667197354054
C           -1.42198573033371       -8.32093369358733       36.36834564041039
H           -2.35443801111346       -8.45838755982465       35.82021764486656
H           -1.66219593875232       -8.28788764351423       37.43353196783951
H           -0.78828782571237       -9.18585380308628       36.18337579698917
C           -2.82350937177974       -5.85707880384846       35.05720105342361
H           -3.01084289473427       -6.41610780468178       34.13678070583573
H           -3.11062250988790       -4.82305983200575       34.89240225398656
H           -3.46476488046633       -6.27482022224387       35.83494527495610
C            3.64678939894833       -9.21992476399550       38.28259260816897
H            2.98377318438427       -9.84450881462928       37.68012902249725
H            3.15718533237715       -9.05732117554748       39.24607310245681
H            4.57476999000993       -9.76125604635794       38.45100876328116
C            6.44105222747966       -7.78930930618885       37.86473220407038
H            7.18005242526833       -7.90255093721758       37.06509765166017
C            6.72758711039871       -8.11905384481175       39.08592995611004
H            6.01483754803316       -7.99903727597134       39.89497200066288
H            7.68313379612245       -8.52667366482936       39.39115070617827
C            8.10999059627373       -3.60851069595547       34.79409438273724
H            8.55137767819266       -3.97409013292951       33.86513016219300
H            8.33355507893351       -4.34001309011099       35.56830752157402
H            8.58919826771372       -2.66419581975481       35.05360389711865
C            6.58693757006885       -1.34182253192488       33.14263347327908
H            5.99895641977120       -0.43217081982548       33.03765450974263
C            7.83917606989867       -1.35212353347371       32.69618174735847
H            8.42436723316287       -2.24513732874179       32.76544024900615
H            8.29135438559394       -0.48805590048621       32.24654296182056
C            1.45287500020966        0.23709047185859       32.37650446003644
H            1.29469133528086       -0.09462165787599       31.34579876514802
H            2.44721874564034        0.66473626127882       32.45241572501484
H            0.71780015404116        1.01692446542589       32.58237140304341
C           -1.26655069842540       -0.91847291865967       33.25443218937513
H           -1.49444648892504       -1.33121160310588       32.26631565510033
H           -1.26231139365607        0.16753816176090       33.15895651104793
H           -2.05707446129199       -1.20848704244300       33.93926169914222
C            1.33361913236486       -0.66056574900028       39.46056801028825
H            2.11633617875281        0.05330969805409       39.71777949138998
H            0.93785750519839       -1.08347489845911       40.38457679979237
H            0.53745815316826       -0.13380117687832       38.94356977685200
N            2.90121104889325       -2.55070228557849       39.00404400188255
H            3.37348194502460       -2.50211157540682       39.89033420308478
C            1.87841895896360       -1.73747437816833       38.59291786956093
C            3.16306773353199       -3.42330654409073       38.00916925873276
H            3.91863265015498       -4.18074008399117       38.06134042325837
N            2.37028456976014       -3.21894806971832       36.98793884159869
C            1.55982041099411       -2.16862219146862       37.33440903403586
H            0.80634489468403       -1.79283133080519       36.66819442439876
C            3.51244921694352       -7.71554049255513       30.69510463111025
H            3.44288012280260       -7.17809084637922       29.74931192222905
H            3.00650617194646       -8.67441157120403       30.58885301426732
H            4.55964637586869       -7.88617594893257       30.92373065646131
N            1.57070341819684       -6.55024156941367       31.74914454934034
H            0.90809882544647       -6.79360393109675       31.03188210990626
C            2.89041997276197       -6.91661752779310       31.77834412887601
C            1.32263767009483       -5.80155384236715       32.84293373297684
H            0.35689723713750       -5.38897863937681       33.06561308874331
N            2.41105723813896       -5.67421796704545       33.56523350694274
C            3.39145522013680       -6.36447789694190       32.92339826240048
H            4.38134067136368       -6.40959686859497       33.33125549529566
87
 energy: -128.448146822886 gnorm: 0.032309966429 xtb: 6.7.1 (edcfbbe)
Fe           2.56070780638781       -4.51523738368553       35.28972423855695
N            0.81101103481453       -5.36693365945300       35.69997988851469
N            3.51311421401644       -6.02692659393934       36.32707287780602
N            4.36504333571505       -3.76126043823780       34.80469718803671
N            1.67056935874305       -2.98628532954143       34.32015442957726
C           -0.38876153053896       -4.91529975125375       35.27075842479027
C           -1.39317198487848       -5.93957914045518       35.44629292238600
C           -0.76382529114122       -7.02102948327413       35.98743440239175
C            0.62553411456779       -6.64238474357384       36.16216334564045
C            2.93274466255473       -7.12215554176051       36.88566031902616
C            3.91815215170139       -7.92073540470432       37.57288205343632
C            5.11867058346090       -7.29846344783609       37.40158692930658
C            4.85079831863279       -6.11893327663757       36.59182039036033
C            5.59840044982309       -4.19507102923399       35.23090150306759
C            6.63454146058683       -3.41272966434334       34.62074183707407
C            6.00736706504542       -2.47169294311834       33.83667471189472
C            4.59251645307418       -2.70997164239233       33.97315817684193
C            2.26934891936700       -1.95628085634480       33.66477571801062
C            1.26764564454328       -0.99581921623937       33.22878404199000
C            0.06434203786006       -1.48855629275624       33.63280320160020
C            0.33740029253829       -2.75438147809879       34.29823640743368
C           -0.62399237517493       -3.67104160182463       34.71002140343165
H           -1.64582522122166       -3.38057971005780       34.50622479812716
C            1.59101242855761       -7.44360948627371       36.75309856828414
H            1.26726222201658       -8.40499124355999       37.13267860967708
C            5.81643163450365       -5.23194554043330       36.13326062244047
H            6.82829270478946       -5.39218689762456       36.49830833412726
C            3.62549952454782       -1.89575982221075       33.39922618943051
H            3.94977934939568       -1.12427322404756       32.71168128186174
C           -1.40931752652283       -8.31202634356968       36.37425910103750
H           -2.33603814979746       -8.45157514194686       35.82048626293646
H           -1.65386773627032       -8.30061604497958       37.43843454671931
H           -0.76615543480204       -9.16757091579417       36.18302075726910
C           -2.83080202888176       -5.85094399691005       35.05629391659559
H           -3.01390141157800       -6.41111986999397       34.13714109942003
H           -3.12521348084440       -4.81944857875551       34.89098364912518
H           -3.46428402707945       -6.26974919759559       35.83599376872115
C            3.64560929112289       -9.21012677969525       38.27529614121179
H            2.98685813101404       -9.83962783663619       37.67802992853759
H            3.15981926472557       -9.04218549797807       39.23760371033150
H            4.57407378111407       -9.74877778957527       38.45310262972302
C            6.42855398884554       -7.77045818058858       37.84464867244122
H            7.17531811147808       -7.86392791895073       37.05694484155015
C            6.72218554948584       -8.12727263616178       39.09778335173876
H            6.00991913674638       -8.01385816987157       39.90241885636522
H            7.68596653242221       -8.51493875258121       39.39210983533280
C            8.10151888279649       -3.61339061006395       34.80555998363500
H            8.55256947398816       -3.99660151439888       33.88818616577151
H            8.31498817208675       -4.33133687513727       35.59194468365378
H            8.58829962795623       -2.66908051544490       35.05113605833435
C            6.60285570007576       -1.35235994197588       33.14407895341863
H            5.99309631092341       -0.46091263416435       33.03817595626051
C            7.85096806159319       -1.33926094660876       32.67842692948556
H            8.45941513026908       -2.21990843483808       32.72044626899473
H            8.28550825421451       -0.46875965264956       32.22259219669912
C            1.46972428942475        0.21540122405525       32.37348997888361
H            1.31883523842250       -0.07359193493077       31.32873671705815
H            2.46194939779357        0.64425121988482       32.47163440437161
H            0.73831386452306        0.98986748285493       32.60397182940670
C           -1.27378363453582       -0.93736774337648       33.25864181076200
H           -1.53559791334002       -1.32879024111707       32.27089700352154
H           -1.24848184012616        0.14854406439489       33.18222256742042
H           -2.05579922372619       -1.21581222677447       33.95827804014177
C            1.33531362996676       -0.66606644404152       39.45133567304465
H            2.11250324115523        0.05225748760695       39.71148154533341
H            0.93556439185312       -1.07952299728142       40.37723081739102
H            0.53926483188303       -0.14277225530547       38.93312599101839
N            2.91037671679179       -2.55141644140381       39.01566583976171
H            3.37859372664050       -2.49474973953367       39.90455516836647
C            1.88552441977999       -1.74740017205831       38.59169149709789
C            3.17959777657472       -3.42854355837128       38.02432675247469
H            3.93808080960930       -4.18000947737375       38.07911863758129
N            2.39150551695439       -3.23948390861893       36.99848142024425
C            1.57797899036183       -2.19156742507076       37.33484524323506
H            0.82854330136364       -1.82011418430738       36.66553809901765
C            3.51907288153596       -7.72374621904158       30.69116589190159
H            3.45052864515277       -7.19284917441163       29.74208224921662
H            3.01469518593838       -8.68275642727793       30.58517146099930
H            4.56454379693953       -7.89658644608501       30.91946669279171
N            1.58393980333985       -6.55119257144345       31.74139263914497
H            0.91722602827275       -6.79967427470700       31.02848940841423
C            2.90247629778053       -6.91778150824341       31.77221602775009
C            1.34350987273893       -5.79141987615311       32.83146145858563
H            0.38126796639606       -5.37957755528213       33.05452542079868
N            2.43068401844007       -5.65665041010603       33.55208291177341
C            3.40491682670383       -6.35671704662007       32.91279063211116
H            4.39257817602403       -6.40721160008332       33.32098508994881
87
 energy: -128.454180962355 gnorm: 0.020156290968 xtb: 6.7.1 (edcfbbe)
Fe           2.55377890519412       -4.51560164085892       35.28770230285727
N            0.80558261794319       -5.35871336357749       35.69686028291471
N            3.49618351141932       -6.01921795046218       36.30883370969396
N            4.35375000129231       -3.75074520932646       34.81500729690543
N            1.66228021030936       -3.00476612116403       34.31964726853635
C           -0.40554913830094       -4.90944556130609       35.27951781942549
C           -1.41123389493736       -5.92807464689159       35.46292931473977
C           -0.77452439889128       -7.00128920152526       36.00769772498281
C            0.60869643729278       -6.62152382456793       36.16952623407588
C            2.91252225931656       -7.10883585575653       36.87290238163419
C            3.89751254414300       -7.91297064119944       37.56349694520691
C            5.09963714953736       -7.28333684194744       37.38890276634448
C            4.82611416384416       -6.11561635333921       36.57700922342651
C            5.58016291430905       -4.19603950193501       35.23092107541677
C            6.63116324690180       -3.41825578021771       34.62544222423384
C            6.01545583317834       -2.46783258412095       33.85162902425204
C            4.59086673114188       -2.69478490145722       33.99952363784683
C            2.26078119426914       -1.97966331320682       33.65582070452762
C            1.26483206990953       -1.04006267827278       33.19143611697565
C            0.05786381639558       -1.52731108082665       33.59423168071577
C            0.32527373105564       -2.77034008476149       34.28143191937492
C           -0.64198713115453       -3.66857161827951       34.70976748361502
H           -1.66708324682433       -3.39183044118663       34.51315910277360
C            1.57156137480601       -7.42382107932442       36.75556341535182
H            1.24892993798985       -8.37537992668821       37.15224589209219
C            5.79337433618792       -5.24197830157687       36.10978131660818
H            6.81108384359065       -5.42810418260435       36.43933399455756
C            3.62568720612706       -1.89016522348261       33.42628130505383
H            3.96636473939520       -1.09842456011929       32.76997602075259
C           -1.39769894172555       -8.30451880851509       36.38341445030262
H           -2.32014136902743       -8.44990328341284       35.82447758515576