87
 energy: -128.467839461517 gnorm: 0.000031762376 xtb: 6.7.1 (edcfbbe)
Fe           2.53340622137100       -4.52122774387722       35.20575514924921
N            0.74353407374883       -5.31379926320874       35.63719351024390
N            3.43787349522321       -6.02172488437548       36.18318545973459
N            4.32190489474939       -3.71401434617704       34.78175500632304
N            1.62721596057754       -3.03026060841017       34.21789260438671
C           -0.47477711434669       -4.82879796180996       35.28429521485042
C           -1.53099434068108       -5.67813431244735       35.79054129478583
C           -0.91720149642207       -6.69050157620749       36.45904155224092
C            0.50502016046449       -6.44546061688795       36.35021589255665
C            2.83539674100850       -7.06675386660611       36.81027233678809
C            3.81344555943320       -7.94437174252628       37.39989418313039
C            5.03944918103996       -7.40109323212133       37.11737822880087
C            4.77351572351400       -6.20072042731442       36.34702557453523
C            5.54083226406841       -4.19086358189009       35.15535297962328
C            6.59542211931084       -3.33514354356476       34.67613947014915
C            5.98268398436046       -2.31893287535721       33.99039637210436
C            4.55834804447006       -2.57791440793445       34.08130967005818
C            2.22870151814788       -1.99695916865148       33.57471162852602
C            1.24285211298215       -1.13006521574486       32.96610706798228
C            0.02866647246308       -1.66650389263616       33.26137728285043
C            0.29114285775725       -2.85448938447334       34.04380720970239
C           -0.69922166285033       -3.68458781783954       34.53848587479361
H           -1.72471318569701       -3.41856005741755       34.32862810051788
C            1.46818989122800       -7.26850444672525       36.89776820153417
H            1.12704340678807       -8.13578386433013       37.44276107430439
C            5.75957167105546       -5.34862773734392       35.88482760682427
H            6.78452606810177       -5.60931737605740       36.10328546796944
C            3.59086557235771       -1.77811976190648       33.50144732752518
H            3.92336635704318       -0.91301782115402       32.94791137309848
C           -1.52002889934663       -7.84903281468493       37.17772577115574
H           -2.60580659616535       -7.81400312294557       37.12814777764103
H           -1.22434409385203       -7.84485666356744       38.22710681701167
H           -1.18693743312772       -8.78928880447095       36.73714142001408
C           -2.98604999567251       -5.42834940317812       35.58092590249198
H           -3.22554184249991       -5.41486656735613       34.51700210534300
H           -3.27528696856088       -4.46555236422741       36.00332379204287
H           -3.58396985570743       -6.20278029410617       36.05531221035799
C            3.50905711591334       -9.22090896073362       38.10407054765856
H            2.67725296383489       -9.73553583153718       37.62539529024944
H            3.23770511172807       -9.03740698511157       39.14528159902491
H            4.37926510538954       -9.87421656040832       38.08637887638981
C            6.35722530155495       -7.88682568623930       37.45930124826131
H            7.13613648768305       -7.67831967462819       36.73434670222472
C            6.67664726665517       -8.54350717718489       38.57048597402265
H            5.95862380762234       -8.73808484392205       39.34788249363872
H            7.68104593556232       -8.88931626686755       38.75172653361854
C            8.04678586051645       -3.51835331968283       34.95772310299457
H            8.49424525175474       -4.22651285224065       34.25789349432835
H            8.20064571642460       -3.90008043526011       35.96628254003235
H            8.56809826593118       -2.56778654268088       34.86251589391441
C            6.57348151883063       -1.18036410463221       33.32410032447132
H            5.98321746055203       -0.27118431248465       33.34083904422670
C            7.74900693342395       -1.16987514306240       32.70306016420452
H            8.35692704290146       -2.05279809275716       32.61073225125686
H            8.13281263337264       -0.27641663833173       32.23857147794716
C            1.56767201179564        0.09733996801185       32.18521493525539
H            2.20277432333046       -0.14695231764732       31.33332764011399
H            2.10033386786048        0.81713323685864       32.80742988085893
H            0.66248504886648        0.57146567864610       31.81303561118887
C           -1.33342583092479       -1.18510919910219       32.89177445929285
H           -1.86457477556117       -1.93938002497333       32.31005163742476
H           -1.27458893329807       -0.27563444116289       32.29877373180535
H           -1.92157060084434       -0.97339493609868       33.78533366721027
C            1.01790864092812       -1.22550207752410       39.46927063863887
H            1.52167192781840       -0.26425310049826       39.57189209213322
H            0.93069625833610       -1.67184933134397       40.45995749735709
H            0.02081428908243       -1.05526313368739       39.07533384693998
N            3.06025557756225       -2.50880921811154       38.79506432286193
H            3.61598835793442       -2.24120291012189       39.59074026139989
C            1.76874828869372       -2.11940670861890       38.55140301118553
C            3.44465908803609       -3.31041705283958       37.77633790360316
H            4.41177844440857       -3.76361731628792       37.70299744978482
N            2.47738132711812       -3.45208238380365       36.90430549400698
C            1.42838358815167       -2.71778522724355       37.37242839229133
H            0.50560525947753       -2.66960248756145       36.83288542825419
C            4.09227325124729       -7.73253786362638       30.89532097415880
H            4.16555254655502       -7.26329869021033       29.91409359471658
H            3.61118308577426       -8.70315506213145       30.77396407046268
H            5.09456127684171       -7.88696215093101       31.28245917303531
N            2.01798052634995       -6.52450913820183       31.61025915676565
H            1.46274308389413       -6.79813401347595       30.81630833754484
C            3.32396059242976       -6.87598895443750       31.83398577723779
C            1.62086101137431       -5.74821333092164       32.64378321345008
H            0.64122670838840       -5.32667092435288       32.73578601033709
N            2.59344458567399       -5.58714607192889       33.50630973855600
C            3.65918909984488       -6.28242920950103       33.01679041351375
H            4.58974742692006       -6.30915660992341       33.54434556891736
