78
 energy: -116.058074354837 gnorm: 0.000155500021 xtb: 6.7.1 (edcfbbe)
Fe         -28.27939280406838       21.17853403540492        1.26752152722015
N          -29.26911328742727       19.53398483205235        0.65603782532278
N          -29.40233731189502       21.24030587994345        2.91554871862897
N          -27.24979316388146       22.76868533134136        1.88512690894198
N          -27.11825873065565       21.06453258333819       -0.37251174118914
C          -29.08723156630824       18.84905670201756       -0.50549774729305
C          -30.02662107147111       17.75547182011093       -0.60612974090895
C          -30.78696062108550       17.79836821485238        0.52155769845942
C          -30.30229549303026       18.91849868793180        1.29536044934508
C          -30.40094811348009       20.38358991210369        3.26355258314709
C          -30.99545671216308       20.76908428863173        4.51839543112541
C          -30.33569639629649       21.89821732699359        4.92413907174344
C          -29.33586256879171       22.16386668363525        3.90663529126871
C          -27.47475972562208       23.49091424333188        3.01482521922121
C          -26.54513734646310       24.58825104272777        3.11737218776698
C          -25.74187623822538       24.51555201050171        2.01130855768667
C          -26.20338091427796       23.36343734623675        1.25932333398258
C          -26.10466555678213       21.90597644755977       -0.71220802077398
C          -25.53795066175280       21.53470489530525       -1.98893530318822
C          -26.23970087837587       20.45076528799289       -2.41759419528581
C          -27.22500580843089       20.17457164020700       -1.39667559475503
C          -28.13669458140060       19.13821971613911       -1.46715686692260
H          -28.10919344136181       18.50980877211785       -2.34396013190157
C          -30.82817983403071       19.29995443887944        2.51422246962985
H          -31.64720960265324       18.71517359470739        2.90457564313883
C          -28.45582069001366       23.22642770221477        3.95263736534342
H          -28.53387650878310       23.90130241326420        4.79124244522598
C          -25.66602589878650       22.97572164723575        0.04541129058905
H          -24.85042100751025       23.56101655896266       -0.35103479739464
C          -31.90451306338192       16.90640451585810        0.94236906056929
H          -32.08250941253817       16.13254670107365        0.19976768550780
H          -32.82503674449674       17.47672902519209        1.07043174307941
H          -31.67271531323991       16.42326692142798        1.89191749497510
C          -30.09094550959241       16.80473894475967       -1.75200845391114
H          -29.14558508337267       16.27304120553655       -1.86370620952154
H          -30.28952331945561       17.33836798947358       -2.68176107306140
H          -30.87976483958383       16.07151334940418       -1.60283635758398
C          -32.06301697788119       20.01313643933391        5.23024974970781
H          -31.91480255235946       18.94006915303269        5.11879358486473
H          -33.04964182992460       20.26093240907035        4.83426969613338
H          -32.04821735268827       20.25785500150614        6.29030417055098
C          -30.52285146060893       22.68315433122473        6.12400317956425
H          -29.62562539258312       23.13076538479120        6.53500519715643
C          -31.68424705536624       22.89300025280391        6.73549622699285
H          -32.61351545127447       22.51343415475222        6.34763663235446
H          -31.74823145896908       23.47810229382095        7.63793792033723
C          -26.46173438991164       25.53751174300961        4.26104108018460
H          -26.63156775353907       25.01922386451223        5.20344555828510
H          -27.21119689325826       26.32543959399448        4.16895363584581
H          -25.47746139304383       26.00035402726902        4.29108113429510
C          -24.63067915388241       25.35847572024493        1.62875393758601
H          -23.81977709342472       24.85858168311630        1.11140209182370
C          -24.54125563527377       26.66532360764388        1.85406798938070
H          -25.33567150128634       27.22136910877851        2.32055357492963
H          -23.67461668977454       27.23110160973566        1.55439564242879
C          -24.40525237830122       22.24736239685161       -2.64455523754542
H          -23.51948606191582       22.22603231606697       -2.00911923734273
H          -24.66336099190815       23.29059574799745       -2.82827474227250
H          -24.15492366082248       21.78409270841600       -3.59575841295946
C          -26.08191671042118       19.65878681658935       -3.67016059686024
H          -25.27489827506371       20.05684936785330       -4.28029078030113
H          -27.00032735715151       19.68384194391523       -4.25712222003514
H          -25.85629195363337       18.61691890245492       -3.44075964425932
O          -26.78806711884024       19.73853915043783        2.25166615358489
H          -26.10636348529420       19.71651088703926        1.57131446503927
H          -27.28680623399009       18.91744682029586        2.18024290896100
C          -30.69422865508955       25.09924655891304       -1.87384258977035
H          -31.30549067228824       25.84969566407737       -1.37268332026442
H          -31.21609929901143       24.78205791817618       -2.77663828849040
H          -29.75025048482761       25.55321209632943       -2.15837428129357
N          -31.44887144731996       23.17154349068731       -0.46472406412245
H          -32.43283032674679       23.30225548939158       -0.63303218961699
C          -30.43935574315321       23.94308758328804       -0.97782802337339
C          -30.88273653105906       22.21418344733715        0.30400727814219
H          -31.43438312152869       21.46465614568026        0.83301379377572
N          -29.57713691921892       22.33266363937643        0.30869004416264
C          -29.28613904619814       23.40359154412066       -0.48445581513217
H          -28.27421367049148       23.71239627760857       -0.64596997067661
