91
 energy: -134.080920599043 gnorm: 0.179681247568 xtb: 6.7.1 (edcfbbe)
Fe           0.22500000000000        6.26900000000000      -15.45800000000000
N            0.32300000000000        8.23100000000000      -15.84500000000000
N            0.15800000000000        5.88100000000000      -17.44200000000000
N           -0.02600000000000        4.32400000000000      -15.08000000000000
N            0.19000000000000        6.66900000000000      -13.48800000000000
C            0.42700000000000        9.25500000000000      -14.93100000000000
C            0.42400000000000       10.52900000000000      -15.63500000000000
C            0.32100000000000       10.27400000000000      -16.94800000000000
C            0.27600000000000        8.82800000000000      -17.08600000000000
C            0.19600000000000        6.80500000000000      -18.46800000000000
C            0.20100000000000        6.13100000000000      -19.74300000000000
C            0.17100000000000        4.80900000000000      -19.48800000000000
C            0.13000000000000        4.65300000000000      -18.04700000000000
C           -0.05200000000000        3.29500000000000      -16.00900000000000
C           -0.28900000000000        2.03400000000000      -15.33700000000000
C           -0.39600000000000        2.30300000000000      -14.01700000000000
C           -0.21700000000000        3.74000000000000      -13.85400000000000
C            0.01000000000000        5.75000000000000      -12.47200000000000
C            0.10900000000000        6.39900000000000      -11.19900000000000
C            0.39000000000000        7.76100000000000      -11.46100000000000
C            0.40500000000000        7.89000000000000      -12.88800000000000
C            0.53400000000000        9.07900000000000      -13.57100000000000
H            0.74100000000000        9.96800000000000      -12.97500000000000
C            0.21600000000000        8.17300000000000      -18.28700000000000
H            0.18100000000000        8.79000000000000      -19.18500000000000
C            0.06800000000000        3.46000000000000      -17.37000000000000
H            0.11900000000000        2.55200000000000      -17.97100000000000
C           -0.21100000000000        4.40800000000000      -12.66000000000000
H           -0.40100000000000        3.81400000000000      -11.76600000000000
C            0.28500000000000       11.26600000000000      -18.09500000000000
H            0.35900000000000       12.29900000000000      -17.69400000000000
H           -0.67100000000000       11.16300000000000      -18.65100000000000
H            1.14200000000000       11.08200000000000      -18.77700000000000
C            0.47000000000000       11.88500000000000      -14.95800000000000
H            1.52800000000000       12.19900000000000      -14.82900000000000
H           -0.01200000000000       11.82200000000000      -13.95900000000000
H           -0.05500000000000       12.63600000000000      -15.58600000000000
C            0.30000000000000        6.86100000000000      -21.07000000000000
H            1.02600000000000        7.69700000000000      -20.98000000000000
H           -0.69300000000000        7.27500000000000      -21.34600000000000
H            0.65200000000000        6.16100000000000      -21.85800000000000
C            0.19100000000000        3.67000000000000      -20.44700000000000
H            0.67100000000000        2.73200000000000      -20.13300000000000
C           -0.32100000000000        3.68600000000000      -21.65200000000000
H           -0.81700000000000        4.58900000000000      -22.03600000000000
H           -0.26100000000000        2.79600000000000      -22.29600000000000
C           -0.42100000000000        0.71000000000000      -16.03200000000000
H            0.58000000000000        0.23500000000000      -16.11800000000000
H           -0.83600000000000        0.86100000000000      -17.05099999999999
H           -1.08800000000000        0.04300000000000      -15.44500000000000
C           -0.72300000000000        1.39400000000000      -12.88200000000000
H           -1.18500000000000        1.83400000000000      -11.98700000000000
C           -0.51600000000000        0.11900000000000      -12.84100000000000
H           -0.05800000000000       -0.40000000000000      -13.69600000000000
H           -0.79500000000000       -0.46400000000000      -11.95100000000000
C           -0.10900000000000        5.76100000000000       -9.87300000000000
H            0.61600000000000        4.93000000000000       -9.73700000000000
H           -1.14000000000000        5.35100000000000       -9.81900000000000
H            0.04500000000000        6.50900000000000       -9.06700000000000
C            0.54800000000000        8.86000000000000      -10.44700000000000
H            1.11100000000000        8.47700000000000       -9.56900000000000
H           -0.45200000000000        9.20700000000000      -10.11000000000000
H            1.11200000000000        9.70600000000000      -10.89500000000000
C            5.50100000000000        5.34800000000000      -13.84800000000000
H            6.31900000000000        6.01300000000000      -14.19900000000000
H            5.81200000000000        4.29000000000000      -13.98600000000000
H            5.30900000000000        5.55000000000000      -12.77300000000000
N            4.22100000000000        5.45900000000000      -16.00300000000000
H            5.00300000000000        5.20400000000000      -16.57100000000000
C            4.25900000000000        5.61900000000000      -14.64400000000000
C            2.98200000000000        5.69800000000000      -16.42600000000000
H            2.67200000000000        5.62300000000000      -17.46800000000000
N            2.21700000000000        6.03000000000000      -15.40800000000000
C            3.00200000000000        5.97400000000000      -14.27600000000000
H            2.58600000000000        6.19500000000000      -13.30100000000000
C           -5.01400000000000        2.50700000000000      -17.93400000000000
H           -4.31500000000000        1.68100000000000      -18.18600000000000
H           -5.46500000000000        2.91700000000000      -18.86200000000000
H           -5.79800000000000        2.13900000000000      -17.23900000000000
C           -4.21100000000000        3.58900000000000      -17.25100000000000
C           -3.78400000000000        4.71700000000000      -17.93800000000000
H           -4.04400000000000        4.83200000000000      -18.98000000000000
C           -3.03000000000000        5.69900000000000      -17.31200000000000
H           -2.69400000000000        6.56300000000000      -17.86499999999999
C           -2.71300000000000        5.56000000000000      -15.97100000000000
O           -1.92500000000000        6.49300000000000      -15.33800000000000
H           -1.56200000000000        6.08700000000000      -14.54700000000000
C           -3.88300000000000        3.47800000000000      -15.90400000000000
H           -4.20800000000000        2.61000000000000      -15.35000000000000
C           -3.14800000000000        4.45900000000000      -15.25900000000000
H           -2.91700000000000        4.36400000000000      -14.20800000000000
91
 energy: -134.106160237646 gnorm: 0.064176981662 xtb: 6.7.1 (edcfbbe)
Fe           0.22834456160079        6.27878362775890      -15.47248640103805
N            0.33766576947374        8.23591904345133      -15.85069986497281
N            0.16343055654637        5.88218075519077      -17.44982192535438
N           -0.02110864121534        4.32192898458202      -15.08335260259942
N            0.18826289007182        6.67215757488312      -13.49374798879441
C            0.43760994867858        9.25109682271772      -14.94041238368262
C            0.42295037486616       10.53240783515795      -15.62374609839776
C            0.32323911132205       10.27306992684007      -16.94728524986277
C            0.27792574737093        8.82890626142662      -17.08024867216181
C            0.19547123338102        6.79919203797497      -18.46567949074396
C            0.20509843531834        6.13421350098411      -19.74544312762083
C            0.17711792384908        4.79613103535537      -19.48992369786799
C            0.14481793309693        4.65614663562682      -18.04578956799612
C           -0.05087646523945        3.29909955249581      -15.99980961466778
C           -0.28928290701248        2.03728785396675      -15.33556172382881
C           -0.40827274808375        2.30874733554197      -14.00523988748169
C           -0.22131952804450        3.74289015014710      -13.86108120957419
C            0.00925496747752        5.76777830661298      -12.47755732996378
C            0.10498190633837        6.41963069192062      -11.20399711984295
C            0.38001823958154        7.74807271366270      -11.46271996705386
C            0.40606634808459        7.88185621521489      -12.89258543629300
C            0.54166342479322        9.07800673516377      -13.57588388200668
H            0.72136527045062        9.96579737595666      -12.97942283496652
C            0.21507589940173        8.17097125727798      -18.28747529764038
H            0.18425469105516        8.78516819863709      -19.18017522029708
C            0.07473161747293        3.45748499467646      -17.36606538551989
H            0.10005751863606        2.55423739564858      -17.96520591958756
C           -0.21548618772981        4.41459527258702      -12.65816491648794
H           -0.38555810566681        3.82351007278057      -11.76519109428571
C            0.28438310835291       11.25253940569411      -18.08435185225985
H            0.35782459915993       12.27568306057323      -17.70621913057250
H           -0.65037257886625       11.15883080807396      -18.64622721813770
H            1.12176191390548       11.08220226030245      -18.76814866169108
C            0.47361219744180       11.87425946243694      -14.95426805817982
H            1.51220236000405       12.19810880868705      -14.82264954922256
H           -0.00484917368038       11.83180291340545      -13.97333051564233
H           -0.04324873214119       12.62184058409733      -15.56217977670672
C            0.30283493666147        6.85597651434480      -21.05780105184602
H            1.01214698446727        7.68587054588150      -20.98270106874101
H           -0.67176975486362        7.26486221394222      -21.34555154676524
H            0.64757574095207        6.17793775531255      -21.84260426514737
C            0.19382754283055        3.67622117865228      -20.43465816657270
H            0.66844793302241        2.75448688923576      -20.10119998557887
C           -0.32263724473500        3.69115831112525      -21.65514690099189
H           -0.83327566583209        4.56309851559942      -22.04199632749405
H           -0.26630302764051        2.82005561602448      -22.29727271003116
C           -0.42079407012739        0.72198283918828      -16.03234943473675
H            0.55914607915992        0.23691563564126      -16.12196728560879
H           -0.83060186496015        0.85435933006513      -17.03693976800343
H           -1.08394188446440        0.05883779852632      -15.47019527958342
C           -0.72453625297863        1.41267658793459      -12.88998720730392
H           -1.17881156264655        1.86926269942579      -12.01199005697906
C           -0.51110075085683        0.10760432304629      -12.84542149602785
H           -0.04087870742377       -0.41846286231486      -13.66510051910311
H           -0.78801249629649       -0.47413016514968      -11.97427726950227
C           -0.10176034185759        5.76756374624562       -9.88086092186934
H            0.60337941724840        4.94063384932701       -9.73373420488546
H           -1.11651762807148        5.35950903743990       -9.81010690400326
H            0.03775109021078        6.48967612645622       -9.07305934601190
C            0.54839594234743        8.84358373745452      -10.45751822121435
H            1.09985776368742        8.48458117458455       -9.58259348144595
H           -0.42867450446614        9.20543328724797      -10.11697844623676
H            1.09915927327289        9.68733422234074      -10.88229118811410
C            5.50092542387402        5.35289794293554      -13.85170351486090
H            6.31680733210995        6.00145996293912      -14.18762834785345
H            5.81464739571381        4.31097620504824      -13.97382223450424
H            5.31278995572082        5.54471896660367      -12.79427511552521
N            4.23335530569630        5.45141883888012      -16.00197164591451
H            5.01837844480967        5.19516700420557      -16.57447497691080
C            4.26598923523795        5.61162830928264      -14.64319260226734
C            2.98293786257379        5.70436596685373      -16.42187151969303
H            2.67304265987719        5.63623929877633      -17.44967518035671
N            2.21238554565232        6.02396375459704      -15.40902773237988
C            3.00085217200302        5.97031163590431      -14.28803928600207
H            2.59229706182868        6.19263757001547      -13.32175843844357
C           -5.00587870399529        2.51330446892471      -17.93158283497968
H           -4.34044892699211        1.68331813446013      -18.19045237448881
H           -5.46243791337919        2.89395937275794      -18.84762107981026
H           -5.78646851585811        2.13537082617819      -17.26669355913499
C           -4.21599609320016        3.59298203738520      -17.24768382050323
C           -3.78731845290425        4.71918388669996      -17.93690835106485
H           -4.03907030039423        4.83114653498413      -18.98156270348643
C           -3.03218018637582        5.69641954937434      -17.31332506264337
H           -2.68996299761268        6.56093034599382      -17.85973207234080
C           -2.70905248250756        5.55287276831485      -15.97345984206380
O           -1.94212417410638        6.50126836249356      -15.34269162131455
H           -1.61011494803644        6.11586882151127      -14.51522375679056
C           -3.89153088253349        3.47420231528471      -15.90236936976226
H           -4.21387009134270        2.60423128792933      -15.34958266058156
C           -3.15503376815089        4.45019751347094      -15.26103123301799
H           -2.91664038439986        4.35339394310584      -14.21118733650372
91
 energy: -134.111671252060 gnorm: 0.018760992095 xtb: 6.7.1 (edcfbbe)
Fe           0.23534596231969        6.28602669229300      -15.47964072539961
N            0.35709335634923        8.23636927419890      -15.85475914344430
N            0.17693247258242        5.88526965300860      -17.45030525518170
N           -0.02196130169623        4.32057983618745      -15.08549209072472
N            0.18515966303732        6.67631934296380      -13.49600337874759
C            0.44896816564464        9.24499541240084      -14.94718770162903
C            0.42809430727066       10.53126059236767      -15.61556718351966
C            0.32958973496656       10.26992863592521      -16.94551818295478
C            0.29039139120807        8.82785944420057      -17.07578316419129
C            0.20296777967230        6.79622169848131      -18.45986744113719
C            0.20603950007402        6.13908305290279      -19.74281290323760
C            0.17976934211395        4.79203664978497      -19.48729257139729
C            0.15803112529214        4.66167872353226      -18.04060710145339
C           -0.05120167349572        3.30448302361078      -15.99418123661631
C           -0.28639810149077        2.04158009566500      -15.33876117883012
C           -0.41159216565830        2.31291142628148      -14.00040367216991
C           -0.22642181601217        3.74672683834818      -13.86691766202010
C            0.00625365818706        5.77769649590372      -12.48478747389675
C            0.09942388815458        6.43247752437674      -11.20746855060909
C            0.37037144670752        7.74272320446069      -11.46308999385730
C            0.40203600752829        7.88048182908006      -12.89740636794217
C            0.54162568144472        9.07921007651138      -13.57816496451485
H            0.69520714890847        9.96772877544249      -12.98196393141042
C            0.22376420563222        8.17036647801533      -18.28729333240213
H            0.18860557100254        8.78238300511000      -19.17657088308844
C            0.07621210913090        3.45857711814349      -17.36392382672632
H            0.07593158200222        2.55907337247295      -17.96273684999421
C           -0.21836400725979        4.41986588363302      -12.65826180512279
H           -0.36845290189769        3.83280572096858      -11.76393639564792
C            0.28365251567962       11.23930865378678      -18.07749759382197
H            0.35444920665003       12.25834039369469      -17.70817935084902
H           -0.64344658611708       11.14048988394799      -18.63948316864540
H            1.11320389574727       11.07016589992423      -18.76188651887578
C            0.47857403341875       11.86361098907956      -14.94761052961274
H            1.50977466948297       12.18895487986385      -14.81143894884755
H           -0.00080514361829       11.82890468935994      -13.97439939479314
H           -0.03302430275062       12.60948896585593      -15.55033497764166
C            0.30451962446028        6.85118952005800      -21.04788214893374
H            1.00483373275458        7.68077411690025      -20.97632140975784
H           -0.66413304934325        7.25403426528168      -21.34271061940503
H            0.64875853007137        6.17702148417569      -21.82636169316412
C            0.19137889750522        3.68575853380359      -20.41988890893124
H            0.66607085002620        2.77631058693603      -20.07074743959292
C           -0.32901252239306        3.69553845815124      -21.64503582934803
H           -0.84951376410001        4.54849913100702      -22.03897539806086
H           -0.26456689318654        2.83574289435076      -22.28875291846473
C           -0.42483819656532        0.73270888142642      -16.03568432018418
H            0.54527922223366        0.24144010790327      -16.12488626075050
H           -0.83106478285258        0.86431905955297      -17.03446777908226
H           -1.08960038749109        0.07726058309448      -15.47954955153715
C           -0.71895002302889        1.42625277289837      -12.90130227024400
H           -1.17670460038055        1.89399435208694      -12.03806918145695
C           -0.49963792788412        0.11285014616957      -12.85074725849263
H           -0.01826766895749       -0.42246067864923      -13.64676048361403
H           -0.78501696750260       -0.46690216958916      -11.99050525292804
C           -0.09768721806174        5.76955664667972       -9.88675522627994
H            0.60472124847768        4.94843099925907       -9.74701036225987
H           -1.10591748070984        5.36220627779187       -9.81211857958554
H            0.03870190801354        6.48217407294737       -9.07935944328165
C            0.54901075144238        8.83750095710163      -10.46591897465207
H            1.09390598295622        8.47832901521587       -9.59556977679651
H           -0.42005693601285        9.20514272023884      -10.12662761570740
H            1.09843699621485        9.67356630185047      -10.88804205283666
C            5.50232497408839        5.35593150024361      -13.85181960488216
H            6.31484441767394        6.00017884840846      -14.18210731271032
H            5.82097471588087        4.32090487547262      -13.96392937933786
H            5.30885220587169        5.54713551177792      -12.80314060938049
N            4.24567369919022        5.44424714882298      -16.00619973575443
H            5.03088949835381        5.18544225940823      -16.58094855335637
C            4.27343068907052        5.60325694039569      -14.64640674435400
C            2.98943699134467        5.70908412123917      -16.42517522559612
H            2.67986422005046        5.65065628664949      -17.44627834539895
N            2.21645175141042        6.02411615965637      -15.41560289087806
C            3.00361903322918        5.96436034366355      -14.30073288630951
H            2.60255524034560        6.18535640111237      -13.33601474840914
C           -5.00555083199624        2.51186860354434      -17.93621773674899
H           -4.35079369768175        1.68183666395193      -18.19598678641836
H           -5.46117099065319        2.88416303457588      -18.84803601650637
H           -5.78491571380022        2.13047157543703      -17.28220869520860
C           -4.22069740087612        3.58762699857428      -17.25015984271229
C           -3.78642604153771        4.71239312965844      -17.93899095721542
H           -4.03320329344149        4.82493115604448      -18.98476680035979
C           -3.03400703313071        5.68814955643535      -17.31291397154908
H           -2.68327896661423        6.55391765341481      -17.85153879972580
C           -2.71360594977246        5.54579011728090      -15.97142674669715
O           -1.96377822076135        6.50968036366186      -15.34632260043299
H           -1.68947663781937        6.16478296892533      -14.46811227332879
C           -3.90065012223421        3.46526266148388      -15.90414864101088
H           -4.22682211840056        2.59635961358813      -15.35166759940215
C           -3.16474220127641        4.43967144485930      -15.26240215434959
H           -2.91824796241095        4.33920079328611      -14.21415813566428
91
 energy: -134.113227624564 gnorm: 0.020282734350 xtb: 6.7.1 (edcfbbe)
Fe           0.23718578511727        6.29068709125219      -15.48179146637234
N            0.37096722400697        8.23530457871062      -15.85510703936884
N            0.18661802273300        5.89005114862191      -17.44648925564002
N           -0.02148907164136        4.32308405564727      -15.08642024371190
N            0.18307046279532        6.67967803228862      -13.49791104365196
C            0.45728418675780        9.24177101279420      -14.94819547895538
C            0.43570768427149       10.52914620846451      -15.61141630059615
C            0.33851276666332       10.26823719133464      -16.94288555661274
C            0.30421150207574        8.82786833149122      -17.07370650152691
C            0.21158796511086        6.79873572445638      -18.45504200432958
C            0.20643999696470        6.14403988786172      -19.73803533374193
C            0.17900810907680        4.79556995783801      -19.48218943360882
C            0.16253394774511        4.66754270823994      -18.03532857242849
C           -0.05231956730700        3.30998344239770      -15.99379873363814
C           -0.28501752872905        2.04688589476933      -15.34318788492445
C           -0.40916151844442        2.31709053717097      -14.00226204133054
C           -0.22548966666929        3.75071121336245      -13.87012317795243
C            0.00437264458667        5.78031145306544      -12.49049146572303
C            0.09524309488240        6.43507286779466      -11.20976261527925
C            0.36388615774669        7.74438963401268      -11.46387546739026
C            0.39700288205978        7.88322163686550      -12.90040227510680
C            0.53724712190983        9.08192530181656      -13.57710377625470
H            0.67267222370223        9.97237421171929      -12.98111169302582
C            0.23533185430555        8.17318055328123      -18.28692103373934
H            0.19679758386425        8.78430134087603      -19.17555234430668
C            0.07201816481312        3.46269656652268      -17.36419719187309
H            0.05496467691048        2.56519130454568      -17.96408658969315
C           -0.21623253422352        4.42256735858171      -12.65963203233873
H           -0.35597307246536        3.83759429108792      -11.76352926960287
C            0.28488396993305       11.23158668766638      -18.07694049678545
H            0.35070266998953       12.25282001955309      -17.71322651175915
H           -0.64294458215564       11.12274491967234      -18.63660633870292
H            1.11317925696598       11.06177320206130      -18.76338379769480
C            0.48531383785406       11.85805116844730      -14.93983059588093
H            1.51659547286871       12.18066419124103      -14.79519803400347
H           -0.00042202074181       11.82367346398573      -13.96902329237389
H           -0.02091264017025       12.60702946296272      -15.54373510736254
C            0.30601694738441        6.84977622979055      -21.04392773948909
H            1.00184224191618        7.68370139025787      -20.97426228533217
H           -0.66356116739275        7.24621279938262      -21.34596729802507
H            0.65570046047987        6.17148453996649      -21.81686324659280
C            0.18993748085369        3.69112407022357      -20.41011737395503
H            0.66649567892685        2.78616783747164      -20.05265495627321
C           -0.33120168540997        3.69637915435386      -21.63534592884177
H           -0.86952261006490        4.53932119695135      -22.02903109916582
H           -0.26578858021954        2.83560245726050      -22.27756276012372
C           -0.43270590877922        0.74033116493121      -16.04001961658965
H            0.53285668972569        0.24012341228744      -16.12942049120710
H           -0.83753343639831        0.87609059958650      -17.03907985660346
H           -1.10361238955970        0.09117419594670      -15.48337491634341
C           -0.71659233330527        1.43232895737766      -12.90781648685148
H           -1.18166102162713        1.90505653956406      -12.05138977796914
C           -0.49156815560478        0.11928731848126      -12.85255128315661
H            0.01416451392552       -0.41864025526351      -13.63334236627431
H           -0.78179639503836       -0.45946253079363      -11.99311696689190
C           -0.09496357039027        5.76633622909834       -9.89065030876482
H            0.61148313383320        4.94800931743413       -9.76002154512032
H           -1.10171729853787        5.35650539010613       -9.81418339236887
H            0.04268539049597        6.47653552701388       -9.08100373374749
C            0.54930994608904        8.83969781415198      -10.46988175795802
H            1.09065758350987        8.47611461067928       -9.59928598101041
H           -0.41749894745930        9.21491822369995      -10.13234032863198
H            1.10552816827156        9.66922004992780      -10.89486980923455
C            5.50398927497097        5.35726499055350      -13.85081308622222
H            6.31538562525804        6.00456273576885      -14.17841109216841
H            5.83046420010392        4.32336219348659      -13.95484262908935
H            5.30232724614951        5.55237844142311      -12.80389445461664
N            4.25365613284093        5.44093076152182      -16.01250772888841
H            5.03849926748393        5.18097345268819      -16.58758256386620
C            4.27783886581857        5.59626723961463      -14.65168424725267
C            2.99688540669777        5.71118350233409      -16.43253205614695
H            2.68986671611544        5.66354982180448      -17.45475251476411
N            2.22121784923978        6.02204271431759      -15.42338269289780
C            3.00681410253494        5.95796245452434      -14.30951895460768
H            2.61020561986928        6.17650193677940      -13.34230597682302
C           -5.00732599456564        2.50601955285155      -17.94494461118164
H           -4.35386846608604        1.67469762385047      -18.20503847737917
H           -5.46069304569505        2.87893728941866      -18.85796541617574
H           -5.78972715159561        2.12257777339609      -17.29502110606527
C           -4.22368473177940        3.57981780992808      -17.25436989097604
C           -3.78241970851188        4.70346570299836      -17.94094108854229
H           -4.02166945717518        4.81569288133851      -18.98856994719627
C           -3.03515246922555        5.67950593774923      -17.30951646867466
H           -2.67754699482218        6.54585189861517      -17.84288523839746
C           -2.72324740977043        5.53996081777455      -15.96499549126542
O           -1.98571565929179        6.51452956010610      -15.34186234011155
H           -1.75946588796652        6.20445676970261      -14.43230596864431
C           -3.90854926908735        3.45646144100157      -15.90694892324525
H           -4.23924242327634        2.58811012560177      -15.35604669731355
C           -3.17407757545620        4.42998431424803      -15.26135706919722
H           -2.92709586156482        4.32599736425323      -14.21342196448129
91
 energy: -134.114549534301 gnorm: 0.019128859076 xtb: 6.7.1 (edcfbbe)
Fe           0.23995530467026        6.29604726133395      -15.48455577004121
N            0.38242254345037        8.23439649340382      -15.85420307621959
N            0.19353280478855        5.89851481197344      -17.44034745433403
N           -0.02261912043818        4.32903595369699      -15.08748415131181
N            0.18252445353506        6.68374097346385      -13.50182761223226
C            0.46435158888319        9.23988711748638      -14.94738729136786
C            0.44594572084750       10.52795119447857      -15.60734842102836
C            0.35221663280909       10.26869266851473      -16.93939019717460
C            0.32069454570430        8.83000374489824      -17.07205897306592
C            0.22119052616465        6.80521646125859      -18.45013894610881
C            0.20691564153993        6.15084924376054      -19.73207376393286
C            0.17469250111662        4.80298948348682      -19.47490775438362
C            0.16192878148241        4.67646083321565      -18.02861435079092
C           -0.05786177935461        3.31769554479434      -15.99499322995488
C           -0.28627567659197        2.05435440054366      -15.34788476300083