78
 energy: -115.933729585489 gnorm: 0.321821011061 xtb: 6.7.1 (edcfbbe)
Fe          35.11200000000000        4.17300000000000       10.35300000000000
N           36.98599999999999        3.89600000000000        9.81800000000000
N           34.82800000000000        5.47600000000000        8.82900000000000
N           33.23200000000000        4.47900000000000       10.91400000000000
N           35.43700000000000        2.97200000000000       11.83500000000000
C           37.96600000000000        3.04000000000000       10.33500000000000
C           39.23800000000000        3.13100000000000        9.56600000000000
C           39.03400000000000        3.97500000000000        8.49500000000000
C           37.62200000000000        4.43100000000000        8.66600000000000
C           35.71500000000000        5.81100000000000        7.87700000000000
C           35.19000000000000        6.78900000000000        6.88600000000000
C           33.91100000000000        7.02300000000000        7.31600000000000
C           33.74800000000000        6.16700000000000        8.50300000000000
C           32.35900000000000        5.38900000000000       10.42000000000000
C           31.17599999999999        5.52200000000000       11.26300000000000
C           31.32800000000000        4.70000000000000       12.35900000000000
C           32.63200000000000        4.06700000000000       12.11500000000000
C           34.51800000000000        2.68300000000000       12.87300000000000
C           35.09900000000000        1.75700000000000       13.90400000000000
C           36.37800000000000        1.58100000000000       13.48800000000000
C           36.57599999999999        2.28000000000000       12.20300000000000
C           37.73800000000000        2.24500000000000       11.46800000000000
H           38.52600000000000        1.56100000000000       11.78400000000000
C           37.04000000000000        5.34800000000000        7.79700000000000
H           37.66000000000000        5.73800000000000        6.99000000000000
C           32.57300000000000        6.16200000000000        9.24700000000000
H           31.75600000000000        6.79800000000000        8.90500000000000
C           33.21900000000000        3.20500000000000       12.98200000000000
H           32.62900000000000        2.88900000000000       13.84200000000000
C           39.90300000000000        4.34000000000000        7.32900000000000
H           40.86999999999999        3.79800000000000        7.40300000000000
H           40.10099999999999        5.43300000000000        7.33600000000000
H           39.40000000000000        4.05200000000000        6.38100000000000
C           40.45100000000000        2.20100000000000        9.83900000000000
H           40.20800000000000        1.16800000000000        9.51000000000000
H           40.67800000000000        2.18900000000000       10.92700000000000
H           41.33500000000000        2.56100000000000        9.27100000000000
C           35.91600000000000        7.33000000000000        5.59000000000000
H           36.46200000000000        6.49800000000000        5.09600000000000
H           36.64300000000000        8.12200000000000        5.87000000000000
H           35.16400000000000        7.73800000000000        4.88100000000000
C           32.88700000000000        7.86200000000000        6.67200000000000
H           31.87300000000000        7.46900000000000        6.50500000000000
C           33.17500000000000        9.21000000000000        6.24400000000000
H           34.17600000000000        9.64100000000000        6.39200000000000
H           32.39700000000000        9.82200000000000        5.76400000000000
C           29.97200000000000        6.42800000000000       10.91000000000000
H           29.87300000000000        6.49900000000000        9.80600000000000
H           30.13500000000000        7.44600000000000       11.32300000000000
H           29.03900000000000        5.99300000000000       11.32800000000000
C           30.54000000000000        4.48700000000000       13.51500000000000
H           30.86199999999999        3.72500000000000       14.24000000000000
C           29.32100000000000        5.20600000000000       13.82500000000000
H           28.94200000000000        5.98200000000000       13.14300000000000
H           28.76100000000000        4.98500000000000       14.74500000000000
C           34.37300000000000        1.14000000000000       15.11900000000000
H           33.42000000000000        0.67700000000000       14.78600000000000
H           34.14699999999999        1.93300000000000       15.86400000000000
H           35.01200000000000        0.35700000000000       15.58000000000000
C           37.47200000000000        0.86100000000000       14.21900000000000
H           37.58600000000000       -0.16200000000000       13.80200000000000
H           37.21500000000000        0.78400000000000       15.29700000000000
H           38.43000000000000        1.40900000000000       14.09500000000000
O           35.62300000000000        5.76900000000000       11.69600000000000
H           34.79400000000000        6.16600000000000       11.96200000000000
H           36.43400000000000        6.02000000000000       11.95900000000000
C           32.21300000000000        0.03400000000000        7.58100000000000
H           32.37700000000000       -0.93900000000000        8.09200000000000
H           32.22100000000000       -0.13000000000000        6.48200000000000
H           31.23100000000000        0.44600000000000        7.89700000000000
N           34.66599999999999        0.76300000000000        7.71100000000000
H           35.01100000000000        0.01200000000000        7.14800000000000
C           33.33100000000000        1.00900000000000        7.96700000000000
C           35.40800000000000        1.69400000000000        8.34100000000000
H           36.49100000000000        1.79000000000000        8.29200000000000
N           34.58799999999999        2.40200000000000        8.97600000000000
C           33.22800000000000        2.08800000000000        8.83100000000000
H           32.41500000000000        2.61100000000000        9.30800000000000
78
 energy: -116.015563477611 gnorm: 0.137161634590 xtb: 6.7.1 (edcfbbe)
Fe          35.11917576151279        4.15225819227154       10.33945385651120
N           37.01722749907006        3.89106555813419        9.79139343768638
N           34.83486820726868        5.48249935747670        8.80748914227008
N           33.22792657204704        4.50635210028403       10.94041442835026
N           35.42151167842260        2.95840998459163       11.86750986793950
C           37.96850535974161        3.04782537527650       10.33330336666394
C           39.21743497505381        3.10150153322799        9.55945448524969
C           39.00829779554601        3.95820265706971        8.51134734128725
C           37.62909099843051        4.44412978613274        8.67154746434378
C           35.73841140767051        5.81901151717454        7.85770172088361
C           35.19378891209614        6.78250460370134        6.88477099024964
C           33.90866950701183        7.02490775722866        7.30521663804284
C           33.72511548242019        6.17830034250431        8.49844738983315
C           32.34666271074322        5.40055436917072       10.41360597160520
C           31.16649955909158        5.53142496416028       11.24526512992951
C           31.32986141315095        4.71048413574702       12.34518630642932
C           32.63350400963352        4.07030787368837       12.11473429882466
C           34.51159758489234        2.66757087148232       12.87540224406294
C           35.09703172638890        1.76639382045228       13.88595371802891
C           36.38055185054542        1.58042418682562       13.48013017882328
C           36.56696124833557        2.28271036242991       12.20966586062149
C           37.73638495885888        2.25985886669181       11.46400481494002
H           38.52275939415767        1.58034147509921       11.78162112909131
C           37.04759814146139        5.34862855354644        7.79684640784713
H           37.66126782798639        5.73075861462172        6.99173660373622
C           32.55898553350066        6.15898567524081        9.24814168918193
H           31.75397818088548        6.79829784554765        8.91234760618737
C           33.22688212949230        3.18856501821348       12.98311185419419
H           32.64483908714347        2.88330078968215       13.84443854508683
C           39.89074576897944        4.33252029689954        7.35328373329648
H           40.85254970105927        3.80590786030280        7.40540157748761
H           40.09526571424262        5.41274747772771        7.33761497314202
H           39.40896491029861        4.06076164688330        6.40247625373162
C           40.42903924070843        2.21612139822529        9.83662438647058
H           40.20969866213131        1.18768283252236        9.51716258706743
H           40.67155306591544        2.19454433283060       10.90654452653371
H           41.31198985502877        2.56068259943652        9.28348443028089
C           35.90252014124775        7.31295495009994        5.62472041436500
H           36.44889331486485        6.50777589574891        5.11561431468496
H           36.62386938962780        8.10329082723897        5.87476529709699
H           35.17283380656782        7.72607926017082        4.91444383619358
C           32.90838038282694        7.89322567963881        6.67449950527308
H           31.90329601675285        7.49095102392720        6.51742970146180
C           33.17126428986637        9.16493480396209        6.25493680685871
H           34.15023520158243        9.61493916188146        6.39694963737912
H           32.41206344366164        9.78481769751988        5.77979219383499
C           29.98645997076304        6.41988166267905       10.90388544302382
H           29.87579610669966        6.50067073626050        9.81793521531446
H           30.13142841554481        7.42762885548359       11.31669226748979
H           29.05957574436028        5.99777843581062       11.30660169273966
C           30.51240179716931        4.50733844877771       13.50644284673248
H           30.84254222216871        3.75124407283698       14.22356386733162
C           29.35776761275470        5.18454753217753       13.81686213046885
H           28.96326688301107        5.96169963128620       13.17332810460377
H           28.79352443981196        4.97468330816066       14.72211024359072
C           34.38451228971903        1.16007899215861       15.09001958528513
H           33.43946174529000        0.69080952258552       14.78464458656092
H           34.15348562375292        1.92331250709166       15.84620872953340
H           35.00209409283324        0.38292886203972       15.56132763069444
C           37.46927044186491        0.85858130689414       14.21078014126797
H           37.59260580962183       -0.15544276595402       13.80901262983206
H           37.22433118882800        0.78357135321990       15.27738129456903
H           38.41849072420642        1.39631237557326       14.10147903267912
O           35.60673015416659        5.76833610835775       11.68111170604529
H           34.79634122511205        6.18113845886531       11.97596556443251
H           36.45623237738539        6.03819484523594       11.97543696756520
C           32.22316213269871        0.03644819179166        7.57730373351371
H           32.37365884875403       -0.92692922011300        8.08076336123267
H           32.21789042602698       -0.12968103264180        6.49370467810512
H           31.25460750457734        0.44180201812128        7.88813582195935
N           34.64741856118086        0.75481858079148        7.70447608268186
H           34.99802759419340        0.00307979218966        7.13631712749556
C           33.32155328766108        0.98511868818782        7.98420125661489
C           35.38463045968347        1.69937625202941        8.34934808844401
H           36.46044743211686        1.78467784603635        8.29484202363320
N           34.57882090844470        2.46206596599881        9.00498157224975
C           33.26311954028408        2.07241342415658        8.82305294469191
H           32.44779202139254        2.59500131122121        9.28909696655741
78
 energy: -116.039047634310 gnorm: 0.045255738192 xtb: 6.7.1 (edcfbbe)
Fe          35.11629595688884        4.13708976274216       10.32000795985725
N           37.04114259995385        3.89329458106499        9.77077703224639
N           34.83951844552129        5.48649567690193        8.78450667902105
N           33.21593271640833        4.52286475277961       10.95931188930872
N           35.40559146252451        2.93906705884091       11.88569857093099
C           37.96145517141319        3.04968688473212       10.32328431140379
C           39.19842034722237        3.07943910658825        9.55517440752403
C           38.98841499535797        3.94842049612995        8.52426531538634
C           37.63278817590091        4.44647301297253        8.67470801581628
C           35.75394081977150        5.82350761455765        7.83900307351452
C           35.19861808510317        6.77538930337392        6.88693192693733
C           33.91312346713259        7.01717987368746        7.30006624522966
C           33.71115059977611        6.18352564434385        8.49168522233052
C           32.33797031406891        5.41121290684708       10.40786426970887
C           31.15866273418377        5.53555055452068       11.22894973745961
C           31.33802395889911        4.71801192546729       12.32765754003150
C           32.63847040379029        4.08165159192147       12.11527027174224
C           34.50775443072611        2.65395909746173       12.87314227479790
C           35.09638695367302        1.77218286161706       13.86612891049332
C           36.38500817353529        1.57811583893179       13.46926072913914
C           36.55755759524218        2.28562352314755       12.21171833650332
C           37.72875871165080        2.27772422418675       11.45766701752602
H           38.51964768208073        1.61386487086694       11.78456738888965
C           37.05248564573926        5.34470908125578        7.79358969781945
H           37.66799328289767        5.72028746509191        6.99106939585489
C           32.55248228006160        6.15539047730388        9.24742198839045
H           31.75315410800055        6.79963193661712        8.91686793999375
C           33.23258710205491        3.17982071093338       12.98255841952976
H           32.65527820818777        2.87767212124964       13.84400906089161
C           39.88156737568128        4.32301798866972        7.37643864308595
H           40.83725503000808        3.80431298463322        7.42491329646194
H           40.08206433399350        5.39589325188764        7.35682200179213
H           39.40879333100261        4.06137201670242        6.42661828989438
C           40.40167404353721        2.22664198786230        9.83266174192299
H           40.20566736945102        1.19729702925381        9.52246199399051
H           40.65033899553265        2.21071662301344       10.89273606590341
H           41.27819210922640        2.57491003244723        9.28802350450663
C           35.88820048289910        7.29664196781124        5.66116911244838
H           36.43389356881219        6.50398140538395        5.14739062698086
H           36.60521410730774        8.08492992871157        5.90041915722367
H           35.16576497677525        7.71300123222997        4.95735011178415
C           32.92854666316209        7.90319100599279        6.67903616702844
H           31.92853689801053        7.49345317813397        6.54458024854177
C           33.17340953286202        9.12855508057807        6.27169284146913
H           34.13846179098265        9.59410800306514        6.40078843004898
H           32.42622434575178        9.74844969855752        5.79518458894584
C           29.99761855927770        6.41013525853835       10.89436610085662
H           29.88440514884762        6.50499988958306        9.81795361058134
H           30.13068011511552        7.41024976723561       11.31259294074456
H           29.07400930773399        5.99406319122096       11.28596925970124
C           30.49893520945051        4.52196508124312       13.49375597804669
H           30.83987414135821        3.76378726870109       14.19480592018144
C           29.39135418442598        5.17026047901012       13.80722256777876
H           28.97802385125466        5.95490455733996       13.19982222141172
H           28.82900406956352        4.95765035364624       14.70379907207213
C           34.39586761546779        1.18117760605092       15.05904738313746
H           33.45583384663590        0.71128375956411       14.76540357110803
H           34.16559413488397        1.93266821016460       15.81676134383260
H           35.00748520389238        0.41166785209589       15.53166680765294
C           37.46775775612702        0.85381940419235       14.20077195893601
H           37.59848087414080       -0.15467185990639       13.80854668528400
H           37.22725604421658        0.78094343051032       15.25965145948014
H           38.41134944375056        1.38641809400703       14.10207142366499
O           35.60603530554958        5.78358634864861       11.65242124727451
H           34.81877526503724        6.20465291520663       12.00536447356090
H           36.45821290924577        6.05225589928161       11.99538966000864
C           32.23172180625016        0.04118633499439        7.57970384189016
H           32.36853939749362       -0.92313729566795        8.06974244816496
H           32.22622670301404       -0.11984267775344        6.50369125040630
H           31.26929504337239        0.44272363842879        7.88057766552013
N           34.63388508289307        0.75400687007535        7.71066808062514
H           34.99165537011785        0.00584603954933        7.13820563036233
C           33.31364506905193        0.96949619222787        8.00442120203637
C           35.36040488395485        1.70564028049697        8.35460735041806
H           36.42874875791522        1.78166649466941        8.29585886920807
N           34.57353899831109        2.50356623293842        9.02811006217167
C           33.29498494001002        2.06470030336477        8.82082628409100
H           32.47438157887757        2.58101370927251        9.27775317948347
78
 energy: -116.044843150278 gnorm: 0.022701234580 xtb: 6.7.1 (edcfbbe)
Fe          35.11270122065198        4.14369284584141       10.31201787246254
N           37.03430461731413        3.88986204368162        9.75651901435754
N           34.84002334625197        5.47617695517445        8.77549900546580
N           33.21624788033542        4.53496277736923       10.96108779673692
N           35.40018269224606        2.93503635740965       11.87855244974939
C           37.94731617505700        3.05000285205520       10.31561960393002
C           39.17850578646027        3.06315229127782        9.54734531953186
C           38.97694001680226        3.93675062164279        8.52244015864223
C           37.63028228113087        4.44419748833730        8.67069843788808
C           35.75708680189960        5.81525441479565        7.83390086042535
C           35.19803532999412        6.76432996878017        6.89503761400431
C           33.91569773599549        7.00146250885427        7.30715018348473
C           33.70957429369636        6.17306499920600        8.48878807400335
C           32.33761170172100        5.41600940240495       10.40173666218416
C           31.15646050584240        5.53517944091942       11.21536149487621
C           31.34348051785878        4.71841533207573       12.30983354783811
C           32.64072850698015        4.08605858917413       12.10720479029783
C           34.50314657884878        2.64645388095326       12.85886112417280
C           35.09918300430401        1.77370211909282       13.84803339435947
C           36.38786813489121        1.57599303111458       13.45519080686275
C           36.55280994768563        2.28971898354805       12.20491228431600
C           37.72325939074959        2.29358556786611       11.45616883852524
H           38.52604936585388        1.65353295719326       11.79728491259261
C           37.05556256850402        5.34138689623587        7.78767300772634
H           37.67510502987049        5.70974395608652        6.98401519594933
C           32.55158549632652        6.15146214598414        9.24184268770328
H           31.75402306746993        6.80135026350151        8.91427358434209
C           33.22956691263965        3.17458091481530       12.97186089436362
H           32.65759467858587        2.87314406273703       13.83704794588852
C           39.88026640437545        4.31394751172710        7.39205880745587
H           40.83223957467953        3.79381963446811        7.45327568174172
H           40.07459595340287        5.38631764591417        7.38575767025354
H           39.41267342421986        4.05669405736581        6.44048992325537
C           40.38156782200490        2.22845241070673        9.83415580719824
H           40.20135131338714        1.19425341059412        9.53220750832869
H           40.62439031503958        2.23039805692743       10.89471292665228
H           41.24885193859172        2.59240846453901        9.28772020399520
C           35.88378922462257        7.28935437624748        5.68368692884751
H           36.42671336574131        6.49470902670425        5.17284159786758
H           36.59793867805830        8.07413607372656        5.93575770591115
H           35.15346311188735        7.70809647401595        4.99281642277093
C           32.93112528187778        7.88340132591251        6.69702492054604
H           31.93109052648633        7.47373304782567        6.58512636197239
C           33.18210991362541        9.11424476858966        6.26918538636845
H           34.14503913452246        9.58126274604502        6.39734075191817
H           32.42801932147250        9.73006430412060        5.80497083109530
C           29.99803978657387        6.40403997743919       10.87261853438768
H           29.90186687961024        6.51649834112395        9.79593474469435
H           30.12035777642846        7.39794986204317       11.30883461757446
H           29.07055872235596        5.97658830091367       11.24041296212349
C           30.50800854749482        4.51298574131081       13.47491512379777
H           30.85670526184148        3.74428934173472       14.15684018916065
C           29.40197433921302        5.17006442512850       13.82060559578528
H           28.98491898805258        5.98159386174950       13.25015415921558
H           28.85498637999192        4.92872476841354       14.71718439322221
C           34.40146392981367        1.19945723013152       15.03715910436923
H           33.46232841859128        0.73326735797652       14.74036643029281
H           34.17680834678927        1.96138750050037       15.78386784195484
H           35.01803375688593        0.43626810506426       15.50784958535633
C           37.46740986275620        0.84650464729028       14.18480587459244
H           37.60254553008457       -0.16139189605906       13.79303830380451
H           37.22514260060965        0.77104301751692       15.24223496812597
H           38.41221872841472        1.37752634819283       14.09380973559346
O           35.62097609516677        5.83937612044485       11.60819104324460
H           34.84830781277628        6.22212694381537       12.05462262247952
H           36.46566002445419        6.05964898902828       12.02329737982235
C           32.23440817149903        0.04621681689866        7.58313394984466
H           32.35896286442311       -0.92750934209128        8.05860994312305
H           32.24262246201934       -0.09947147700638        6.50470613803515
H           31.27050527622103        0.44877415294744        7.87494349349555
N           34.63145060654777        0.75861605731171        7.72817479768253
H           34.99167155267779        0.01556762028652        7.15022764336309
C           33.31167812379827        0.96614078995971        8.02923247990602
C           35.35133067246414        1.71580419904234        8.36294554584672
H           36.41669351935901        1.79099099970574        8.29930159670195
N           34.56949500748427        2.51960874428701        9.04206629840944
C           33.29937221314763        2.06516678183557        8.83948587328239
H           32.47333885249092        2.57558866950528        9.28834203185270
78
 energy: -116.047297460921 gnorm: 0.046656373087 xtb: 6.7.1 (edcfbbe)
Fe          35.10997273976289        4.15737493571875       10.30104664659763
N           37.02180252363174        3.88962415590818        9.74350463108185
N           34.83791961407904        5.45589150378800        8.76775698017493
N           33.22029042373463        4.54403098181156       10.95676579632676
N           35.40137789311510        2.94526050599453       11.86842439498702
C           37.93015875280783        3.04963847083469       10.30486950395764
C           39.15941171847074        3.05172998953397        9.54047910293804
C           38.96747150854785        3.92573921992250        8.51638853920706
C           37.62386797359091        4.43590554450171        8.65882232183145
C           35.75546768640064        5.80094158838327        7.83001604910144
C           35.19721108118394        6.75406836389058        6.90472275003424
C           33.91624409649092        6.98569543416505        7.31608524100465
C           33.70950356127403        6.15492934493639        8.48498851206825
C           32.33761148160472        5.41623477294306       10.39358486524467
C           31.15423932626623        5.53171855858029       11.20235248255098
C           31.34745586608723        4.71783893884139       12.29462751527585
C           32.64410861247344        4.09081261679273       12.09755818920156
C           34.50302660741689        2.64959066538276       12.84427869097368
C           35.10081056992756        1.77492110695683       13.82816158786672
C           36.38964050762220        1.57722266671944       13.43905418265251
C           36.55033268050698        2.29778597253494       12.19534666655121
C           37.71876597147136        2.30941340743928       11.45342015428057
H           38.53446105851507        1.69503702816781       11.80929745277704
C           37.05459913007773        5.33229123083542        7.77484657407330
H           37.67923921553433        5.69965483640303        6.97395342761125
C           32.55121494761352        6.14456697185201        9.23367157167670
H           31.75687772833901        6.80017061989765        8.90677841738512
C           33.22841274180828        3.17494647881051       12.96039698248764
H           32.66009774991215        2.86514980231042       13.82467145957364
C           39.88378027420213        4.30437269840204        7.40447586605792
H           40.83366355033117        3.78342924651823        7.48342992097487
H           40.07333623100123        5.37728304464342        7.41296784557206
H           39.42957067986321        4.05050009860484        6.44601665452016
C           40.36385726377399        2.22925026515747        9.83949667364228
H           40.19974648334306        1.18862598119053        9.55043522245484
H           40.59937467074803        2.25097644652800       10.90193353367648
H           41.22511301002999        2.60297108894121        9.29046344038629
C           35.88359177228403        7.28887345729640        5.70045897347353
H           36.42524771511641        6.49494594809390        5.18761730827339
H           36.59797132685571        8.06790738531432        5.96773792132801
H           35.15061125725841        7.71494666852595        5.01820391200968
C           32.93030698686407        7.86492695355464        6.71986084597833
H           31.92672391927343        7.46406336415507        6.63322191842333
C           33.18450876576776        9.09586903959498        6.28297551382150
H           34.15805410303652        9.54566906072444        6.38030408895436
H           32.42532439321899        9.70104534830133        5.81709142632298
C           29.99085701829666        6.39405367701523       10.85954785887811
H           29.91185348474707        6.52540616795614        9.78156412586690
H           30.10002766093618        7.38244710579520       11.31262732162199
H           29.06381388713165        5.95063307301011       11.21410030721170
C           30.51833008721841        4.50484565119727       13.45655048932930
H           30.85382463927904        3.70953313724582       14.11147937463303
C           29.42267863137059        5.17273019752451       13.82537389024027
H           29.00682647928501        5.99636161950059       13.27406911012470
H           28.89157169480441        4.90282336487043       14.72410054187178
C           34.40279050380982        1.21603511886730       15.01796229421457
H           33.46178864764394        0.75404516825170       14.72207449022935
H           34.18375732456663        1.99310989480683       15.75080651563872
H           35.01984095241704        0.45836582573782       15.49445762606399
C           37.46554442134477        0.83798730138805       14.16261571466742
H           37.60124543235817       -0.16746033074423       13.76262572338768
H           37.22043907926770        0.75314800669573       15.21939415967416
H           38.41351595770496        1.36682930155169       14.07971892961034
O           35.64516992055794        5.92060142001983       11.54543129551406
H           34.89046151806522        6.23198454284430       12.10398773988213
H           36.46950551974863        6.05490359300181       12.07816682544823
C           32.23528925433813        0.05556048732923        7.58829980473570