78
 energy: -116.058076833584 gnorm: 0.000024214195 xtb: 6.7.1 (edcfbbe)
Fe          18.60097230543684       23.44901219256439       30.07582475521262
N           17.33651828991635       22.15192808493180       29.19648970024932
N           17.25643600878833       24.92583945394139       29.79767074718227
N           19.81815880335897       24.72680237723429       31.00217195310580
N           19.89361558274536       21.96690570977735       30.39030614806939
C           17.55798962236265       20.83184227433502       28.95737894119947
C           16.43452655506879       20.24178187402237       28.26617390616743
C           15.52652394662588       21.23948917108346       28.08817523210029
C           16.11001875614760       22.42705598390932       28.66976694213305
C           16.04118174736643       24.82902996613135       29.18640706723152
C           15.39556104066289       26.11329129827962       29.12371893129237
C           16.25882875520022       27.00732745462396       29.70279322105415
C           17.41123804586707       26.23634576941009       30.12331939426948
C           19.61879573676423       26.06041411804216       31.18472234994068
C           20.73219680910281       26.65564196682225       31.88121568471396
C           21.62261161997061       25.64297399643407       32.11680165452050
C           21.02159575158806       24.44587222603368       31.55891720728522
C           21.09492803423977       22.05619234025992       31.01627747626594
C           21.76242375697348       20.77161615594864       31.03262654387317
C           20.93194683313301       19.90387965547963       30.39734293049601
C           19.76893347345639       20.67079743872931       30.00329135604423
C           18.69001024148337       20.13148812265456       29.33017299918133
H           18.73114285951180       19.08279660474772       29.07883224901252
C           15.49630620266430       23.66480055962968       28.66850006583694
H           14.52458389192416       23.73444488676436       28.20389241249250
C           18.51206149432902       26.77389138250445       30.76131834965371
H           18.50992570105197       27.83759079989106       30.94314953889108
C           21.63130963214488       23.20508668618977       31.56453760393715
H           22.60324646687751       23.12703835352041       32.02750635736835
C           14.18605751361661       21.19242875996621       27.43779079880636
H           13.96323464581654       20.18873578230958       27.08449094275571
H           14.14693140201710       21.87191720452979       26.58576174215850
H           13.40704246945405       21.48857104253996       28.14096346738168
C           16.35449510317392       18.80973393240681       27.86194328389395
H           16.42141251941013       18.16067567156108       28.73538801281952
H           17.17405175040683       18.55562144018784       27.18946893414120
H           15.41648219213727       18.60238713324802       27.35267964066220
C           14.02713432792964       26.36095835565613       28.59072214943672
H           13.36181460271449       25.53393088253493       28.83466894461374
H           14.04388130077055       26.47102670493199       27.50489718720873
H           13.61963845831164       27.27365363846370       29.02081914927108
C           16.09518167094748       28.42832078242790       29.91384248431073
H           16.55645895261699       28.82429653435043       30.81111339351022
C           15.44594886232314       29.25973121948545       29.10519406035236
H           15.00936223605404       28.93396050909582       28.17723446461007
H           15.35200864905243       30.30839689771229       29.33374031581193
C           20.81480196144913       28.07942853058799       32.30863756428467
H           19.84421429473559       28.43620229271444       32.65008044768713
H           21.13718778119369       28.71620896355520       31.48301753992952
H           21.52924566282342       28.18344854516956       33.12264634318258
C           22.89590536801092       25.68340570957080       32.80137218320552
H           23.15005603562246       24.79522979486001       33.36819021048316
C           23.75209547604503       26.69976195909733       32.77866473844004
H           23.57348532982648       27.58640589333997       32.19558521005847
H           24.67937373047226       26.66782537268188       33.32648513804683
C           23.09672300523874       20.52556936483264       31.64878290742110
H           23.07297390940790       20.75433187090936       32.71437196235163
H           23.85648040329200       21.15510802715093       31.18478280183400
H           23.39298508132326       19.48638690409367       31.52862917140840
C           21.11087890109055       18.44908152119795       30.12798541704814
H           22.06694519744602       18.09987429299223       30.51005853737912
H           21.07590601888693       18.25007069345872       29.05657475674527
H           20.31935037622925       17.87093101756393       30.60534557747330
O           17.48905211948887       22.99047305525911       32.02948324634428
H           16.94865581541798       22.24954192974065       31.73421001145015
H           16.91273943252209       23.76122139135027       32.07388978752049
C           22.17629344654388       24.50820509405564       25.93265744355990
H           22.17072364922999       25.50709519632465       25.49669132812157
H           22.24976239994690       23.78299604884726       25.12225461614102
H           23.05116429992765       24.41051299840827       26.56762806317735
N           19.69156667357300       24.34685060939168       26.20032481378429
H           19.47237778082567       24.55548241650075       25.24012204759154
C           20.95021748339048       24.27761992949579       26.73769274250753
C           18.80849177096590       24.08917906632921       27.19103909282619
H           17.74638126012860       24.07546108826936       27.05949743982503
N           19.43086790315573       23.86078656597508       28.32182654806370
C           20.76404312875430       23.97417909859458       28.05593812885284
H           21.49432968151612       23.83160136241299       28.82551349272929
