78
 energy: -116.058149705997 gnorm: 0.000082114111 xtb: 6.7.1 (edcfbbe)
Fe           6.70559803088210       23.35810390781975        9.05667897712415
N            6.37585866097708       23.06278196087775       10.99575413546668
N            6.10739665712952       25.27056239525807        9.24052463703222
N            7.09508167873015       23.67853176489392        7.10167414291786
N            7.35561049801179       21.48131038864669        8.87064006368178
C            6.55458333110672       21.90926991738767       11.68650902364599
C            6.20370375795406       22.08513897127812       13.08041042074106
C            5.81111360383353       23.37873127388403       13.21403266891539
C            5.92172122671656       23.97275810692005       11.89783104377233
C            5.66354889905990       25.88016024693046       10.37437536770727
C            5.29073916796192       27.24520226025297       10.11088556487499
C            5.51637760277190       27.45567923716490        8.77566665702635
C            6.01557969248879       26.19936655031831        8.25174311039199
C            6.86916968914554       24.82591171258380        6.40045978406563
C            7.23333191910632       24.66054153855962        5.01831682754033
C            7.68916853237333       23.37360198634534        4.89012124170640
C            7.57861925577950       22.77799697549375        6.20575714931773
C            7.82941218370151       20.88272003543256        7.74546743589462
C            8.19218571590673       19.50712339685102        8.01053902753801
C            7.91806784350193       19.28855941295977        9.32386464935855
C            7.39865123874585       20.53507379707226        9.84339186517685
C            7.02012461962698       20.72067369308725       11.15855863753109
H            7.11154011867118       19.87875401876164       11.82759079771774
C            5.58699044609268       25.28320509312364       11.62194892448949
H            5.23705914545682       25.89022254108227       12.44298312825351
C            6.37691214709821       26.00509663655394        6.93284858919411
H            6.26993479908056       26.84244972703777        6.26069158344571
C            7.94429558728364       21.47700144609834        6.50273477886392
H            8.34359905968165       20.87521623882706        5.70066988709154
C            5.34955137837863       24.10710672386147       14.42968872380019
H            5.36464345954257       23.45526440641846       15.29962531551565
H            4.33182929853490       24.47511439165411       14.29507142591351
H            5.99456268513813       24.96249545605846       14.63118580572535
C            6.28987475478406       21.01191636532005       14.11053214624889
H            7.31552761047137       20.65487666833749       14.20481717348916
H            5.66081637261420       20.16504460434866       13.83539807276327
H            5.96475528069639       21.37919534650461       15.08087436020255
C            4.70980446427541       28.18373157154952       11.11018089123637
H            5.49349005809154       28.64344807754728       11.71473037558516
H            4.03067597838298       27.66041405218956       11.78165564819193
H            4.15904079804533       28.97383941322482       10.60382415455837
C            5.29481734683770       28.64821584007209        7.98834322502891
H            4.98776973360268       28.48166653151164        6.96217615643375
C            5.44534586727029       29.89628047472194        8.41991767923337
H            5.79376942463684       30.12138661668723        9.41276367597911
H            5.24868452836871       30.74093061623539        7.78061136942023
C            7.06130677751752       25.69002679386963        3.95657810098675
H            7.89209992324227       26.39776861843810        3.96043373238348
H            6.14077440406293       26.25125586122180        4.10991513758920
H            7.02030210660095       25.21444907659878        2.97871646627027
C            8.16579727398387       22.68438686464979        3.71159218463875
H            7.94987014800440       21.62277648347851        3.67041131525303
C            8.83972051660810       23.24145913623176        2.71053788797048
H            9.12557098651564       24.27869118450745        2.71870870061577
H            9.15354954741450       22.66705017705145        1.85475765436151
C            8.75118860387453       18.57295039030869        6.99235448291701
H            9.67976971833561       18.96743865654681        6.57934003957174
H            8.04859491681989       18.43309311480127        6.16996132407728
H            8.95884966249737       17.60094680193677        7.43279183252917
C            8.09726096052285       18.05015952503022       10.13298647237053
H            8.48945018293241       17.24102449304089        9.52166811510905
H            7.14631228535269       17.72938755308440       10.55887982745526
H            8.79224639770514       18.22796850008111       10.95376630275705
O            8.83857090961659       24.10672759017558        9.44255929034614
H            8.68388305761403       25.05718424324654        9.47230173201366
H            9.24378274134979       23.91184631362453        8.59067483057081
C            1.17366341360568       22.69015046707513        8.87931296211020
H            0.76411485613420       21.70371833639579        9.09658726633756
H            0.64433734635983       23.09664199789626        8.01760189701192
H            0.99621561310579       23.33650411767747        9.73306081514803
N            3.15292172616242       21.86065646146728        7.58890760797814
H            2.62315695906537       21.30874940027284        6.93442846504623
C            2.63192200001574       22.60869779475036        8.61196405451377
C            4.49709425183650       22.00273150039624        7.62057304766818
H            5.16724207989101       21.52878264966062        6.93347278814269
N            4.85852804705587       22.79461068993679        8.60084326860477
C            3.70931039466456       23.17919348586070        9.22692854036649
H            3.73465804296588       23.83629933292246       10.07131753745617
