78
 energy: -115.991448310158 gnorm: 0.241861155289 xtb: 6.7.1 (edcfbbe)
Fe          25.96000000000000      -17.77000000000000      -80.36400000000000
N           25.18000000000000      -19.11400000000000      -81.66100000000000
N           24.26100000000000      -16.67700000000000      -80.53100000000001
N           26.77600000000000      -16.33100000000000      -79.21100000000000
N           27.67700000000000      -18.82400000000000      -80.28500000000000
C           25.76400000000000      -20.31100000000000      -82.05099999999999
C           24.82900000000000      -21.08800000000000      -82.83699999999999
C           23.66100000000000      -20.39500000000000      -82.86899999999999
C           23.87300000000000      -19.18200000000000      -82.12100000000000
C           23.10300000000000      -17.01500000000000      -81.20499999999998
C           22.08600000000000      -16.01900000000000      -81.00300000000000
C           22.64300000000000      -15.03400000000000      -80.21100000000000
C           23.98300000000000      -15.46500000000000      -79.91100000000000
C           26.22600000000000      -15.08900000000000      -78.92500000000000
C           27.21500000000000      -14.22300000000000      -78.32800000000000
C           28.39100000000000      -14.93500000000000      -78.26700000000000
C           28.10400000000000      -16.23900000000000      -78.81399999999999
C           28.85900000000000      -18.45100000000000      -79.66600000000000
C           29.88100000000000      -19.43600000000000      -79.89800000000000
C           29.33100000000000      -20.37300000000000      -80.73499999999999
C           27.95600000000000      -20.02500000000000      -80.92799999999998
C           27.03800000000000      -20.72100000000000      -81.70599999999999
H           27.35600000000000      -21.69200000000000      -82.08399999999999
C           22.91600000000000      -18.19000000000000      -81.92899999999999
H           21.93800000000000      -18.34600000000000      -82.38400000000000
C           24.91300000000000      -14.73200000000000      -79.18600000000001
H           24.57600000000000      -13.77800000000000      -78.78100000000001
C           29.03700000000000      -17.26400000000000      -78.96400000000000
H           30.00400000000000      -17.12000000000000      -78.48199999999999
C           22.34600000000000      -20.80200000000000      -83.53900000000000
H           22.46900000000000      -21.79300000000000      -84.02599999999998
H           22.07100000000000      -20.05300000000000      -84.31199999999998
H           21.54200000000000      -20.87300000000000      -82.77599999999998
C           25.13100000000000      -22.49500000000000      -83.36000000000000
H           24.97900000000000      -23.23400000000000      -82.54500000000000
H           26.18600000000000      -22.54900000000000      -83.70300000000000
H           24.44600000000000      -22.73800000000000      -84.20000000000000
C           20.66900000000000      -16.10200000000000      -81.54300000000001
H           20.29700000000000      -17.14500000000000      -81.44900000000000
H           20.65800000000000      -15.81100000000000      -82.61499999999998
H           20.00500000000000      -15.42900000000000      -80.95999999999998
C           22.16000000000000      -13.79000000000000      -79.74800000000000
H           22.48000000000000      -13.40800000000000      -78.76800000000000
C           21.26000000000000      -12.99600000000000      -80.51100000000000
H           20.91200000000000      -13.33800000000000      -81.49700000000000
H           20.90100000000000      -12.03100000000000      -80.12400000000000
C           26.96900000000000      -12.77700000000000      -77.87400000000000
H           26.81500000000000      -12.75500000000000      -76.77400000000000
H           26.06100000000000      -12.37600000000000      -78.37300000000000
H           27.85000000000000      -12.14900000000000      -78.12700000000000
C           29.70600000000000      -14.61300000000000      -77.85399999999998
H           30.47700000000000      -15.38700000000000      -77.97000000000000
C           30.15300000000000      -13.38600000000000      -77.29800000000000
H           29.45000000000000      -12.55400000000000      -77.14500000000000
H           31.20700000000000      -13.25300000000000      -77.01400000000000
C           31.29900000000000      -19.41600000000000      -79.34999999999999
H           31.27100000000000      -19.23699999999999      -78.25400000000000
H           31.87700000000000      -18.60000000000000      -79.83400000000000
H           31.79000000000000      -20.39400000000000      -79.54199999999999
C           30.07100000000000      -21.52400000000000      -81.39199999999998
H           30.03600000000000      -22.41400000000000      -80.72900000000000
H           31.13200000000000      -21.24100000000000      -81.55900000000000
H           29.58800000000000      -21.77700000000000      -82.36000000000000
O           26.77600000000000      -16.69400000000000      -82.04600000000001
H           27.09900000000000      -15.86400000000000      -81.69600000000000
H           26.81100000000000      -16.95700000000000      -82.89499999999998
C           24.53100000000000      -19.64800000000000      -75.15599999999999
H           25.10600000000000      -20.54500000000000      -74.84199999999998
H           23.45700000000000      -19.80900000000000      -74.92300000000000
H           24.91200000000000      -18.76400000000000      -74.60100000000000
N           24.30800000000000      -20.41000000000000      -77.53799999999998
H           23.88400000000000      -21.28000000000000      -77.28799999999998
C           24.70400000000000      -19.43200000000000      -76.64300000000000
C           24.59800000000000      -19.97700000000000      -78.80600000000000
H           24.37400000000000      -20.52600000000000      -79.71899999999999
N           25.18500000000000      -18.79700000000000      -78.69999999999999
C           25.26899999999999      -18.45000000000000      -77.35800000000000
H           25.73200000000000      -17.52100000000000      -77.04900000000001
78
 energy: -116.034155567366 gnorm: 0.090268109030 xtb: 6.7.1 (edcfbbe)
Fe          25.95177102852196      -17.77404935797586      -80.35773277065736
N           25.16638637036523      -19.13605360191734      -81.63748766961949
N           24.25501203450496      -16.67993830873176      -80.52133260615302
N           26.79442119882341      -16.31254706472564      -79.23929135559635
N           27.67963449022341      -18.82173747659251      -80.29227233652311
C           25.75787055472101      -20.30966554211646      -82.03997428662993
C           24.82823682390308      -21.09848686403186      -82.82134657116801
C           23.66052418292723      -20.39817615693304      -82.86657806884820
C           23.88226348208100      -19.17516594563909      -82.12801839089008
C           23.10621116723899      -17.02279095362499      -81.18731923549619
C           22.09060335970719      -16.01842090799930      -81.00561162941645
C           22.64476093887779      -15.03395663776252      -80.21798180068159
C           23.99142652362559      -15.47691141620123      -79.91252443960843
C           26.23439221007373      -15.09416030328388      -78.92435373585690
C           27.21370825011042      -14.22250446556131      -78.32493062677939
C           28.39528882026674      -14.93381674087319      -78.26176571413853
C           28.10072871358611      -16.24356074092355      -78.82138435286086
C           28.84180379101846      -18.45919932106030      -79.65814226168646
C           29.87659818239372      -19.43520040851607      -79.90071596101916
C           29.33205140653087      -20.37324962519865      -80.73194057393304
C           27.95676104485739      -20.00413593748502      -80.93877496917334
C           27.04087193666854      -20.70960661934160      -81.70839201583041
H           27.36031084227191      -21.67651807655438      -82.08364724641882
C           22.92795964298778      -18.18824980674466      -81.92671306839652
H           21.95460720475541      -18.34385781670394      -82.37984712834471
C           24.91575764937248      -14.74343773010155      -79.18460640346348
H           24.58118341014193      -13.78889726252756      -78.79271932003246
C           29.02181393209030      -17.27564076022688      -78.95858381359623
H           29.99374608229565      -17.13296693000612      -78.49957939498967
C           22.36413551781825      -20.79570524627032      -83.53057445649328
H           22.46780034515964      -21.77217303734862      -84.01426207952991
H           22.07647298745869      -20.06349803870267      -84.29342246695788
H           21.55816510439029      -20.86523938568477      -82.79135763127478
C           25.12710073539221      -22.47794783521265      -83.35541423033857
H           24.98273671693806      -23.22117959309718      -82.56151183907316
H           26.16252869267285      -22.54641429938492      -83.70238677924594
H           24.46131507179061      -22.73083349883747      -84.18604844573039
C           20.68671398504306      -16.10242248736552      -81.53757754536713
H           20.30433934929748      -17.12613454802349      -81.45153211807514
H           20.65579605802115      -15.81575013067573      -82.59579391214389
H           20.02387890521362      -15.43851667391410      -80.97294772557227
C           22.12427367075493      -13.77840430947638      -79.76753053404698
H           22.46321322910588      -13.40030687665139      -78.80361841347150
C           21.26738103605351      -13.01679625989668      -80.48830496719557
H           20.93340703799484      -13.33065208683634      -81.46928121445802
H           20.91735026985031      -12.05846386436440      -80.12297459530767
C           26.96466798108108      -12.79942089956963      -77.88275984714038
H           26.81913206919196      -12.75864429166595      -76.79572523461292
H           26.07547161407787      -12.38532119209053      -78.36576445664495
H           27.81819619133586      -12.16370998415839      -78.13689013420277
C           29.71388658007311      -14.58199116933626      -77.83440326808883
H           30.47478001567190      -15.34894397891335      -77.95821092070094
C           30.14119356528321      -13.41015864540678      -77.30405748995746
H           29.47035601995630      -12.58070485504317      -77.13694211805819
H           31.17948531854638      -13.26966969879527      -77.02901485389901
C           31.27972125425902      -19.40976179650752      -79.35551697106531
H           31.26884955712585      -19.23644644765557      -78.27350680151928
H           31.86804619906787      -18.61218186207153      -79.82457108151203
H           31.77747950763833      -20.36730721136018      -79.53962971697011
C           30.05807787082557      -21.52029736741167      -81.38042558411104
H           30.03543447591329      -22.40938407931408      -80.73931159426893
H           31.10481860391430      -21.25063331044461      -81.55649119747810
H           29.59934293215169      -21.77401422911769      -82.34105326679585
O           26.77608057982856      -16.68385230383334      -82.03043110536433
H           27.11217155875234      -15.84524700269121      -81.71768318099222
H           26.81989709436443      -16.95115635614146      -82.93071529866461
C           24.53313185121391      -19.65071284790980      -75.16413622855995
H           25.09610587172268      -20.53270426069540      -74.83979990885410
H           23.47589749810782      -19.80464755186363      -74.92201158082973
H           24.90212641784479      -18.78012014061490      -74.61626071341016
N           24.30137025784041      -20.40867143029780      -77.53244090297154
H           23.87278328756359      -21.28353933271963      -77.28758893148925
C           24.70925868664398      -19.44871295748735      -76.63655539597893
C           24.60541311308873      -19.96724101352979      -78.78340287212349
H           24.38372839414932      -20.51081581284861      -79.68620206372580
N           25.18950082264944      -18.79454995290688      -78.70757720684085
C           25.26666858550507      -18.45676808735236      -77.37525877177441
H           25.72061223671355      -17.53232897914269      -77.06955459930393
78
 energy: -116.043229310606 gnorm: 0.029805339969 xtb: 6.7.1 (edcfbbe)
Fe          25.94828109116941      -17.77592408801382      -80.35634865974171
N           25.15903217708862      -19.15234089779965      -81.61735732404162
N           24.25000605749439      -16.69338994653546      -80.50163748838204
N           26.80392117025180      -16.30506210443286      -79.25134522305660
N           27.67799435350365      -18.82161512921205      -80.29613435575750
C           25.74990596150612      -20.31257053633882      -82.01765874877191
C           24.82783102602105      -21.10555925452838      -82.80340035458620
C           23.66382960523880      -20.39817135086577      -82.86212640432468
C           23.88968971232920      -19.17697025035370      -82.11654971749461
C           23.11146923014833      -17.03631606468620      -81.16578568655397
C           22.09861082512756      -16.02226878125927      -81.00062437632687
C           22.65529489647670      -15.04151198206865      -80.21960507602152
C           24.00332428858074      -15.49284470974534      -79.91165283271837
C           26.24265254150746      -15.10052498209957      -78.93216571934055
C           27.21350328984288      -14.22915155499364      -78.32253971107158
C           28.39314472679845      -14.94185066184762      -78.25783434156412
C           28.09599731462021      -16.24823418282366      -78.83287773984658
C           28.82502035393606      -18.46242975857713      -79.65626906582196
C           29.86729132067136      -19.43554717773351      -79.89970749546858
C           29.32931682322258      -20.37177129922235      -80.73073786482928
C           27.95276515502618      -19.98728255900913      -80.94554789886851
C           27.04222629349345      -20.70233107888746      -81.70668810975627
H           27.37078797671359      -21.65711249706852      -82.09438693562325
C           22.93781610941699      -18.19311632053221      -81.91444612363001
H           21.97297136875171      -18.34074573997333      -82.37950382980370
C           24.92252575364254      -14.75256281882315      -79.19032967299813
H           24.58847531782996      -13.79819086223936      -78.80842855707226
C           29.01198362534187      -17.28103706567938      -78.96107030325365
H           29.98688245936186      -17.14038442663721      -78.51614493140507
C           22.38128708961290      -20.78506223545586      -83.52258869887852
H           22.47749059250753      -21.75418340524438      -84.00518915085972
H           22.09123553462902      -20.05525284830946      -84.27691201177795
H           21.57538139223047      -20.85137820234707      -82.79243252139274
C           25.12338788626003      -22.46361518814470      -83.34930968361134
H           24.98644960551079      -23.21625684782858      -82.57075265004629
H           26.14874063341491      -22.53078521025781      -83.70295390420142
H           24.46302480825753      -22.71037684476478      -84.17604374319041
C           20.70616725456486      -16.10210101051508      -81.53241318163290
H           20.31988271892051      -17.11664657564816      -81.44941618081077
H           20.66839141670534      -15.81646789882922      -82.58423368019314
H           20.04894834728427      -15.43898316992547      -80.97512548562371
C           22.11171152992112      -13.77332862722948      -79.78564658682943
H           22.45190718193982      -13.41206357652147      -78.82186558694103
C           21.27867450930351      -13.02605509095976      -80.48539160482227
H           20.93505625805123      -13.32408150176101      -81.45920396905504
H           20.91236282529654      -12.08329468125826      -80.11794090022357
C           26.96059970071028      -12.82229701736316      -77.89239381193865
H           26.82472162059137      -12.77101922493917      -76.81080817205316
H           26.07335272152674      -12.41268954400518      -78.36580480445905
H           27.79901973423237      -12.18308547677059      -78.15704268361529
C           29.71470673668945      -14.56829286336943      -77.81961891550698
H           30.46594666763392      -15.33644258099228      -77.95492917671916
C           30.12793004441258      -13.42366551253292      -77.29876513130908
H           29.47894918287725      -12.59111491301624      -77.11108569593989
H           31.16120336890495      -13.27774224972066      -77.03561289532131
C           31.25861010137275      -19.40010943592833      -79.35665989480597
H           31.25170664150032      -19.22648892962948      -78.28204093941811
H           31.84628054330644      -18.60897456590954      -79.82229987543076
H           31.75910237875719      -20.34745503967433      -79.54083168707844
C           30.04201214313554      -21.51922178676968      -81.37054199884905
H           30.02031650646741      -22.40578098845926      -80.73700755040274
H           31.08322067442203      -21.25781021539079      -81.54816190155243
H           29.59245889583869      -21.77172735714394      -82.32682404465713
O           26.76950001994892      -16.66959995364879      -82.03727061481490
H           27.13646378022591      -15.82244372668179      -81.77558811886104
H           26.83174835591010      -16.93304124390106      -82.95404336713251
C           24.53773269262800      -19.64810356871452      -75.17144555132569
H           25.09172059797212      -20.52356098579739      -74.83559035990872
H           23.48738422373075      -19.79692916987010      -74.92671917408396
H           24.90091928997339      -18.78071537788337      -74.63284398553479
N           24.29888914883335      -20.40694329197087      -77.53067484525698
H           23.86311206531717      -21.28234744590585      -77.29017097403548
C           24.71558362825171      -19.45818619521270      -76.63482340081293
C           24.61060264038236      -19.96374062371151      -78.76953315873550
H           24.39098213575632      -20.50619380271000      -79.66463886037504
N           25.19783610531892      -18.79608614263191      -78.71539274386720
C           25.26817382264110      -18.46366221070008      -77.39127380930445
H           25.71356342120655      -17.54077756205726      -77.08523776867175
78
 energy: -116.045821001596 gnorm: 0.017634642509 xtb: 6.7.1 (edcfbbe)
Fe          25.94895032390662      -17.77544014780128      -80.35981431851857
N           25.15662944807892      -19.16334274388104      -81.59709304547805
N           24.25147722933026      -16.70607579362672      -80.48759727412619
N           26.80874987289634      -16.30498952892716      -79.26139240299503
N           27.67347080755675      -18.81899833648595      -80.30236788561766
C           25.74721663195276      -20.31723292185245      -82.00243226791025
C           24.82692392252481      -21.10960708985206      -82.78866144550270
C           23.66653467540880      -20.39877756751509      -82.85152130829744
C           23.89326446227637      -19.18187182836173      -82.10088990245049
C           23.11577480809495      -17.04845975633209      -81.15030238794787
C           22.10661078382507      -16.02841121357969      -80.99442902298026
C           22.66537983802536      -15.04931883078651      -80.21810879646848
C           24.01166581203256      -15.50350289135649      -79.90833759644467
C           26.24662618688038      -15.10691981715239      -78.93722294641067
C           27.21463283037351      -14.23769185137310      -78.32246009476368
C           28.39156228486269      -14.95077300802896      -78.25541073144146
C           28.09495686582720      -16.25323274705382      -78.83700380673217
C           28.81439388113543      -18.46315397220927      -79.65735754688524
C           29.85762376582740      -19.43588837895012      -79.89840615249551
C           29.32388772230356      -20.37065195636348      -80.73064980842041
C           27.94821355439770      -19.98040678948263      -80.95040194036976
C           27.04459617536084      -20.70073324974877      -81.70943916505308
H           27.38146914273158      -21.64581119913996      -82.11020384353822
C           22.94186272558364      -18.19960052458036      -81.90258849477530
H           21.98254940792397      -18.34057812454685      -82.37866881181813
C           24.92790006505239      -14.75786723652889      -79.19301837699024
H           24.59509511601486      -13.79993961689405      -78.82254060192032
C           29.00913444082977      -17.28549251310220      -78.96199190024144
H           29.98646543225273      -17.14819286102689      -78.52461758275408
C           22.38789468401349      -20.77358205588657      -83.51684876740900
H           22.48038815467843      -21.74052953712563      -84.00349547459014
H           22.10442754716163      -20.03690741289136      -84.26665671362541
H           21.58027248766824      -20.83708763333833      -82.78849859742748
C           25.12274754822393      -22.45790030609691      -83.34910371896662
H           24.99470725268556      -23.22189571633082      -82.57990816138678
H           26.14531257635203      -22.51660542147336      -83.71216304837051
H           24.45664820275085      -22.69424791844940      -84.17399917436207
C           20.71897577183772      -16.10366373269686      -81.52960657087118
H           20.32952967057232      -17.11645546278630      -81.44704965475493
H           20.68541798943841      -15.81728341087450      -82.58097402135098
H           20.06608000535908      -15.43578304647444      -80.97370740445321
C           22.11000714503547      -13.78202945671732      -79.78578758368080
H           22.45241686517715      -13.42700604472993      -78.82124346736312
C           21.26455610755363      -13.03486213180434      -80.48297387104522
H           20.93939843291198      -13.31150027267008      -81.47074256238120
H           20.90175445585244      -12.09123873280330      -80.11418123391522
C           26.95498327477575      -12.83423195960052      -77.90079866384568
H           26.83482834146472      -12.77519367164596      -76.81783500849095
H           26.05601436603487      -12.43986212895607      -78.36518400318383
H           27.78255403229958      -12.18961851051215      -78.18696432945926
C           29.71193703857584      -14.57013869241667      -77.81112677728647
H           30.46404346254093      -15.33457994680709      -77.95892396472475
C           30.12133057213396      -13.42392766972894      -77.27751675546165
H           29.47566125820434      -12.59399597523814      -77.06431661032859
H           31.15764998048991      -13.27666085838596      -77.02561845244990
C           31.24412210138311      -19.38906123799404      -79.35357948852952
H           31.23331623281344      -19.21228360774902      -78.28008771697084
H           31.82493229690543      -18.59399764731785      -79.82070210776662
H           31.75083731729146      -20.33262841923445      -79.53719307239551
C           30.02715140100796      -21.52519101588312      -81.36179647810216
H           29.99582262369563      -22.40925012862726      -80.72553430194512
H           31.07069609038172      -21.27299413076523      -81.53753447123300
H           29.57836242664183      -21.77697636186922      -82.31821712180755
O           26.74610294323273      -16.64578491112054      -82.06330652419628
H           27.16775215372415      -15.80887626141293      -81.83548475424361
H           26.84772080774789      -16.92135014445391      -82.97758593213885
C           24.54224027213919      -19.63858989445421      -75.17557443565077
H           25.09223141728289      -20.51294461354118      -74.82918696861431
H           23.49120112754570      -19.78280932229981      -74.93062073301346
H           24.90637753026760      -18.76723981361612      -74.64474346000638
N           24.30069862489326      -20.40669261320808      -77.53172014731364
H           23.85627904159250      -21.27835116742701      -77.29177037131591
C           24.72224393579051      -19.45866161493990      -76.63810330805744
C           24.61609757675535      -19.96949125578494      -78.76878105205154
H           24.39650625423053      -20.51527859439197      -79.66058096249154
N           25.20741833994863      -18.80262679793464      -78.72255538797269
C           25.27714509763341      -18.46825798075167      -77.40161940772842
H           25.71858895003523      -17.54391226224188      -77.09556774592168
78
 energy: -116.047455634690 gnorm: 0.036436504323 xtb: 6.7.1 (edcfbbe)
Fe          25.94759104155172      -17.77722222092272      -80.36415210813742
N           25.15775255828259      -19.17159009245842      -81.57836493700403
N           24.25438745615294      -16.72468072343143      -80.46784059503860
N           26.81221741342368      -16.30904647531850      -79.27172289828985
N           27.66718589574771      -18.81046256195838      -80.31772665414854
C           25.74570037608022      -20.32253417695065      -81.98830219995182
C           24.82570125601062      -21.11332549548468      -82.77392816483066
C           23.66920365568365      -20.39909066384285      -82.83780681740292
C           23.89733093479871      -19.18797349588129      -82.08116095491617
C           23.12044137484190      -17.06371173103378      -81.13163333699204
C           22.11634269492496      -16.03623498555895      -80.98665957437261
C           22.67954978714322      -15.05631295129741      -80.21829170509297
C           24.02098900069714      -15.51708154254936      -79.90180654856479
C           26.25084611840265      -15.11490269943512      -78.94423120608292
C           27.21567750347799      -14.24912183712784      -78.31995993687997
C           28.38899435221647      -14.96294187223704      -78.24921306936344
C           28.09466515180793      -16.25924820272975      -78.84094658607367
C           28.80319384947213      -18.46013310732954      -79.66526722779628
C           29.84518412208829      -19.43610626871429      -79.89773239261379
C           29.31654389206078      -20.36883726391554      -80.73248218701308
C           27.94229400990214      -19.97262653891928      -80.95948564537110
C           27.04804251885221      -20.70032404055174      -81.71712908992291
H           27.39324681884025      -21.63490249881832      -82.13173989000026
C           22.94404783874412      -18.20879920533510      -81.88680758877152
H           21.99043811821615      -18.34299549623820      -82.37432903051581
C           24.93460319183266      -14.76265863642536      -79.19699778471056
H           24.60213406784638      -13.80021565399265      -78.84116719957930
C           29.00930596646490      -17.28846282261379      -78.96635319377390
H           29.98747364645422      -17.15881082916385      -78.53206411055407
C           22.39095544965929      -20.75720761253191      -83.50953957499831
H           22.47639110255455      -21.72117729143796      -84.00505396899479
H           22.11926854942802      -20.00851950357931      -84.25350818851540
H           21.57995760476770      -20.81774956690501      -82.78316167042436
C           25.12276621766402      -22.45235203523751      -83.35335298557497
H           25.01165745824336      -23.23132161040613      -82.59512387428171
H           26.14166763435418      -22.49724184481689      -83.73307896720507
H           24.44430378827456      -22.67726977868743      -84.17304744971929
C           20.73270409906481      -16.10604251720628      -81.52678360309794
H           20.33817284179709      -17.11751364653317      -81.44464228404195
H           20.70761774329111      -15.81902117631953      -82.57892859894980
H           20.08416178864452      -15.43078690151873      -80.97281450471837
C           22.11702731795152      -13.79025266140205      -79.79029211951293
H           22.44349415793691      -13.44717070282821      -78.81620334795257
C           21.26979002978793      -13.03900003897160      -80.49064955884724
H           20.93435835714137      -13.31286858895991      -81.47503394361422
H           20.87809824445726      -12.11454550939255      -80.09726575406539
C           26.95370746167198      -12.84531884815352      -77.90721877367859
H           26.85862826890734      -12.77394131821074      -76.82172435005690
H           26.03659189301347      -12.46956669180951      -78.35599763187399
H           27.77116292493077      -12.19798403329760      -78.22256042051187
C           29.70539727316491      -14.57356069894537      -77.79999973293022
H           30.46719198804527      -15.32436419962006      -77.97029198465219
C           30.10178694990690      -13.42711853557529      -77.24441859558308
H           29.45061340932181      -12.60630753948979      -77.00851661834656
H           31.14130345467077      -13.27699741210076      -76.99976302930367
C           31.22694809310244      -19.37355743061489      -79.34687226740888
H           31.20846781340904      -19.19209280251642      -78.27360228596820
H           31.79673357777770      -18.56999489687636      -79.81594232900406
H           31.74638713143547      -20.31163389208070      -79.52764062962105
C           30.00672774009000      -21.53715302943426      -81.34944768734415
H           29.95456508530240      -22.41613987453103      -80.70547949062507
H           31.05674433082358      -21.30321497214358      -81.51913017647121
H           29.55923783096158      -21.78919056913143      -82.30763913185604
O           26.66776418625061      -16.59455308371537      -82.11426193198805
H           27.23006450713437      -15.81188846623943      -81.91644190395137
H           26.90335117366025      -16.91431071956439      -83.00865272420810
C           24.54919926646317      -19.61953676410000      -75.17868746680885