78
 energy: -116.058059027728 gnorm: 0.000075471080 xtb: 6.7.1 (edcfbbe)
Fe          25.98130532534472      -17.75389155099376      -80.53082762363903
N           25.15118551495816      -19.19353901261827      -81.62843697116392
N           24.27603926983550      -16.72203424006407      -80.56168887000943
N           26.86517509192358      -16.27078882492060      -79.49150848955894
N           27.71906097473870      -18.77125211239979      -80.52324895890598
C           25.74403917276994      -20.32746647771686      -82.08513138775551
C           24.81285615197259      -21.11595725071097      -82.86374936352541
C           23.63884134487451      -20.43164721128452      -82.85884471534290
C           23.87048140128065      -19.23375650684529      -82.07970455616402
C           23.10260584959108      -17.10892080787987      -81.12686949188567
C           22.07858595397369      -16.11581903942081      -80.91874073549029
C           22.66547012136552      -15.10026459847004      -80.21307155400177
C           24.04107252216166      -15.51028331641281      -79.99618130634597
C           26.28713611886361      -15.10476397624041      -79.08664061441294
C           27.22219603047177      -14.29926993680934      -78.34638302385812
C           28.39001254889850      -15.01546508209294      -78.29314656845776
C           28.13975697669579      -16.24333152153631      -79.02094833544604
C           28.86805271114518      -18.42418745745075      -79.88116978640272
C           29.87329735883545      -19.44949487601163      -80.04428702350941
C           29.30419040540547      -20.42656322751235      -80.80169368710159
C           27.95780194216317      -19.98703963620131      -81.08641685638470
C           27.04816623051686      -20.71240893814210      -81.83373676507297
H           27.37947363296110      -21.65408169342553      -82.24436836371000
C           22.90511488352219      -18.27786936995813      -81.84032447192804
H           21.92496111784723      -18.44659941306210      -82.25942748519815
C           24.97224749037763      -14.74202791258903      -79.32486822262032
H           24.64665645295556      -13.78725673739904      -78.94117932681094
C           29.07396241620815      -17.25005804762095      -79.18190421926170
H           30.04034939423516      -17.11233213308267      -78.72212439137758
C           22.34121537926229      -20.77672181482047      -83.50498952128051
H           22.41255083985349      -21.72221815566520      -84.03712143353609
H           22.05209238535338      -20.00331586569619      -84.21657104781667
H           21.55113666866243      -20.86173436002196      -82.75840609152934
C           25.14914322115155      -22.41367013066088      -83.51550825149044
H           25.45606377772280      -23.15066118517851      -82.77247286529035
H           25.96896054040464      -22.28561000774165      -84.22251236447330
H           24.29168502492639      -22.80897293602792      -84.05437722729580
C           20.65863537157501      -16.24645767881063      -81.34647262638163
H           20.31297104402486      -17.27204029838440      -81.22567625847049
H           20.54240080922148      -15.97218864580681      -82.39617492479448
H           20.02672417757846      -15.59257462602827      -80.74873251062878
C           22.08524345485944      -13.86784687632645      -79.72747202443723
H           22.47858039587887      -13.50313891374038      -78.78526793777436
C           21.13687570195593      -13.16728877134113      -80.34107614223593
H           20.74367587464074      -13.45377372174550      -81.30063925670710
H           20.73945786768191      -12.26171803051408      -79.91328437522057
C           26.95045295298265      -12.93148339937517      -77.82471428053177
H           26.43973070233146      -12.97556893248997      -76.86120396970048
H           26.31966773814034      -12.37366085986303      -78.51531211118430
H           27.88527722851179      -12.39038600574519      -77.69217701898741
C           29.65354477011482      -14.66058167012821      -77.68642286069669
H           30.53673092510219      -15.03584066715940      -78.19076597714262
C           29.80406906043171      -13.93546742445448      -76.58267372141957
H           28.96465416947193      -13.57688230564228      -76.01317952278619
H           30.78054141645777      -13.69716727417065      -76.19458336537993
C           31.24647517300090      -19.38034327389130      -79.46940557948771
H           31.20291543214506      -19.27660790251118      -78.38506189638366
H           31.78748114341894      -18.52188823940516      -79.86876667357787
H           31.81076961643551      -20.27921162227886      -79.70555179110703
C           29.88737300869338      -21.71253157438977      -81.27906415580046
H           29.31125404818142      -22.55912749942909      -80.90433066986282
H           30.91461183327253      -21.82100245286470      -80.93995828604342
H           29.87975351671086      -21.75583763207052      -82.36845628443615
O           26.75772826642175      -16.69459806500432      -82.41104627997174
H           27.05584189766230      -15.86020769105585      -82.03292664370316
H           27.54299809558353      -17.22706734073736      -82.57808535659562
C           24.18489384022938      -18.92623512997013      -75.38602562553896
H           24.92929310341322      -19.25384462996057      -74.66036490939108
H           23.29888484979694      -19.55046547125383      -75.27108466772177
H           23.91650169881497      -17.89732726609608      -75.16831317516787
N           25.12682883442971      -20.20308190022841      -77.32353987371903
H           25.10791628314229      -21.10231899530265      -76.87121577240774
C           24.71969385421900      -19.01846502969575      -76.76803430533228
C           25.55671747501126      -19.94103449223849      -78.57841925737274
H           25.93477341162051      -20.68280001032565      -79.25131489564238
N           25.44658007893234      -18.66343128968881      -78.85082237238264
C           24.92683866197986      -18.07660240867252      -77.73461136815556
H           24.73869997265475      -17.02362861653308      -77.70118930764910
