87
 energy: -128.467993218766 gnorm: 0.000038862320 xtb: 6.7.1 (edcfbbe)
Fe          17.55350540220685       55.41101452658971       35.63617135542709
N           17.22907487987748       57.38103876252756       35.48875977348397
N           15.67520089819469       55.05270461064252       35.03179031175436
N           17.87893153783354       53.43739159364102       35.80811532763541
N           19.43675714344314       55.76867446825784       36.21758272585863
C           18.09631135506162       58.37786667706992       35.79821200939803
C           17.48647180450006       59.67272621627185       35.58281270057806
C           16.22941122661510       59.43040260146790       35.12595378417243
C           16.08742177388928       57.99067779924762       35.07518038893753
C           14.75133739215589       55.97457079459735       34.64997789554164
C           13.52147334062631       55.33655353103485       34.25696775502020
C           13.71638486001221       53.99007248496159       34.42180762420303
C           15.07838187063951       53.84111658504077       34.89995254207646
C           16.97039552405343       52.44316169064435       35.61208942712805
C           17.56206872196004       51.15324566766446       35.85423227852453
C           18.87037109302796       51.38719412517516       36.19170888560583
C           19.03645082176914       52.82757413845340       36.16561632357881
C           20.39684257267456       54.84569507856032       36.48433651616133
C           21.63981939493510       55.49114834771832       36.84774392387495
C           21.40075807621744       56.82911395123050       36.80456121072565
C           20.01872685139722       56.98124291831525       36.40505240829405
C           19.39850004869201       58.20474460371031       36.23077833764614
H           19.98037179596573       59.09212065317803       36.43041727595030
C           14.93552977674909       57.34781448478899       34.66711099626045
H           14.10598080422941       57.96559935109024       34.35715777034209
C           15.66235440860118       52.62390876317473       35.19396949195760
H           15.05630550360573       51.73884439642457       35.07104539669533
C           20.22518543894647       53.47439740365116       36.45426637598288
H           21.08373196991700       52.86306477132718       36.68858901877709
C           15.16159980468855       60.39624718339482       34.73944275961175
H           15.50278838352727       61.42119008818011       34.86396212273736
H           14.27294308392000       60.25375256272380       35.35515427291781
H           14.87579659814963       60.25472096729063       33.69670611380334
C           18.16726117767180       60.97559035776799       35.83083446809204
H           19.05063440009434       61.07419267864304       35.19895681947466
H           18.48657067058513       61.04913511911634       36.87069621557577
H           17.50069053659778       61.80789063316280       35.61775985566213
C           12.32515322659225       56.03889151134486       33.71467461991240
H           12.62274159508775       56.87727474685454       33.08651425157804
H           11.70039110777408       56.42665208681471       34.52135438039386
H           11.72701844373776       55.35220003654200       33.11870414340571
C           12.80992437157437       52.89584728577805       34.15738371996011
H           13.27324294330379       51.97317764072891       33.82599319976773
C           11.48796275034759       52.93337280266785       34.29526178241736
H           10.97456306951715       53.80271058097350       34.66686619489543
H           10.87312149431586       52.07897629089668       34.06448358088211
C           16.83731962077865       49.85272271603041       35.80647786204673
H           16.78306374346895       49.47126595814372       34.78504114146206
H           15.81997002887221       49.96507234179133       36.17850081180068
H           17.35263415101679       49.11557137447890       36.41930573726811
C           19.90603242516709       50.44380849724890       36.54678831133503
H           20.63789218810078       50.80004111142729       37.26307908914307
C           20.03082155115877       49.21022216769961       36.06637633968958
H           19.36648160001128       48.81577646934378       35.31770995273529
H           20.82480484953627       48.55757008847880       36.39022372757761
C           22.89566066221723       54.76642544230578       37.19474925392787
H           23.20282498510314       54.11817412425642       36.37381627432697
H           22.75030659409976       54.14446412733188       38.07894220921032
H           23.70275436615444       55.46595026218117       37.39903584858644
C           22.32432093478061       57.96374206292133       37.09145379506822
H           23.30722783113442       57.59973797572562       37.38101576981152
H           21.93437756115023       58.57998350912760       37.90208023877421
H           22.43920305161977       58.59756274425489       36.21158427529758
C           19.97529462224296       56.43751828251385       30.70188639351003
H           19.33542961751184       56.69450225416053       29.85758202677803
H           20.73398901008920       55.73663082527789       30.35343885997497
H           20.46889336505605       57.33892850037640       31.05142287028870
N           18.44330148707743       54.70035542785607       31.65453218874926
H           18.36855761546986       54.15687608899778       30.81041127613019
C           19.17892922430942       55.84681423433055       31.80740814151614
C           17.84515012796848       54.43765868913250       32.83852736743358
H           17.20492416860202       53.59794917086111       33.01403707043053
N           18.15630105397225       55.34619641593185       33.72948094694119
C           18.98508750665467       56.22941068361988       33.10355395066686
H           19.38352423644838       57.07455626729274       33.62521718685147
C           14.76945650918321       56.31341758759481       40.40104501912454
H           15.24736373107345       56.92009249747956       41.17038670193816
H           14.30166514003770       55.45593380158316       40.88493591494625
H           13.99695014240581       56.90576897202677       39.92075258663635
N           16.85111756666886       55.10677557172065       39.70586528554784
H           17.08801578774129       54.77437934594629       40.62612914227483
C           15.75936439797308       55.87151889271755       39.38614243169937
C           17.54093790373939       54.88188943861472       38.56465929659399
H           18.44422543775572       54.30999202781181       38.51203197952925
N           16.95374845777136       55.45654110376422       37.54435925531056
C           15.84459331811956       56.07613008407549       38.03901096614820
H           15.18702348249378       56.62356929420528       37.39629417021060
