78
 energy: -116.006340098108 gnorm: 0.210612397993 xtb: 6.7.1 (edcfbbe)
Fe          14.62700000000000       28.12100000000000        4.79500000000000
N           14.83000000000000       29.44300000000000        6.28100000000000
N           13.82100000000000       26.81200000000000        6.07900000000000
N           14.47300000000000       26.75800000000000        3.33900000000000
N           15.49100000000000       29.41700000000000        3.51100000000000
C           15.36900000000000       30.70700000000000        6.20300000000000
C           15.33300000000000       31.36600000000000        7.51600000000000
C           14.77000000000000       30.46500000000000        8.37000000000000
C           14.46700000000000       29.29800000000000        7.61900000000000
C           13.59400000000000       27.01700000000000        7.43900000000000
C           12.98700000000000       25.81200000000000        8.02500000000000
C           12.86100000000000       24.91800000000000        7.05400000000000
C           13.38700000000000       25.54700000000000        5.85500000000000
C           13.95900000000000       25.47100000000000        3.43800000000000
C           14.04500000000000       24.79500000000000        2.17500000000000
C           14.61400000000000       25.67900000000000        1.32700000000000
C           14.86500000000000       26.89600000000000        2.06500000000000
C           15.74800000000000       29.21200000000000        2.19700000000000
C           16.36900000000000       30.34300000000000        1.60900000000000
C           16.50000000000000       31.27200000000000        2.61700000000000
C           15.94300000000000       30.67900000000000        3.80600000000000
C           15.88200000000000       31.27000000000000        5.03700000000000
H           16.27400000000000       32.28400000000000        5.11400000000000
C           13.89500000000000       28.17500000000000        8.14700000000000
H           13.65500000000000       28.18800000000000        9.21000000000000
C           13.45100000000000       24.92299999999999        4.61000000000000
H           13.06500000000000       23.90600000000000        4.55000000000000
C           15.45200000000000       28.04400000000000        1.54700000000000
H           15.70900000000000       28.01000000000000        0.48900000000000
C           14.50000000000000       30.63400000000000        9.84700000000000
H           14.83600000000000       31.64200000000000       10.17200000000000
H           15.05900000000000       29.86500000000000       10.42100000000000
H           13.41100000000000       30.53700000000000       10.04300000000000
C           15.82400000000000       32.73900000000000        7.79400000000000
H           15.70900000000000       33.36500000000000        6.88400000000000
H           16.89800000000000       32.70400000000000        8.07400000000000
H           15.23100000000000       33.19000000000000        8.61800000000000
C           12.61700000000000       25.70000000000000        9.47800000000000
H           12.17900000000000       26.66100000000000        9.82400000000000
H           13.52400000000000       25.48000000000000       10.08000000000000
H           11.86600000000000       24.89200000000000        9.61300000000000
C           12.30400000000000       23.51800000000000        7.13300000000000
H           11.61500000000000       23.16700000000000        6.35100000000000
C           12.60300000000000       22.67000000000000        8.10900000000000
H           13.28700000000000       22.96800000000000        8.91700000000000
H           12.17000000000000       21.65900000000000        8.12200000000000
C           13.58700000000000       23.38400000000000        1.94000000000000
H           12.74400000000000       23.14900000000000        2.62400000000000
H           14.42200000000000       22.68000000000000        2.14300000000000
H           13.24200000000000       23.27100000000000        0.89000000000000
C           14.98800000000000       25.56400000000000       -0.12100000000000
H           15.44600000000000       26.44200000000000       -0.59600000000000
C           14.83000000000000       24.52200000000000       -0.90000000000000
H           14.37900000000000       23.59700000000000       -0.51100000000000
H           15.14600000000000       24.55900000000000       -1.95300000000000
C           16.79500000000000       30.46099999999999        0.17500000000000
H           15.91000000000000       30.34100000000000       -0.48600000000000
H           17.53300000000000       29.66600000000000       -0.06400000000000
H           17.24400000000000       31.46200000000000       -0.00200000000000
C           17.11800000000000       32.63300000000000        2.49300000000000
H           16.81800000000000       33.09000000000000        1.52600000000000
H           18.22500000000000       32.54700000000000        2.52200000000000
H           16.76600000000000       33.28200000000000        3.32300000000000
O           16.57700000000000       27.25500000000000        5.01500000000000
H           16.58400000000000       26.47600000000000        4.45900000000000
H           17.25000000000000       27.54900000000000        5.51600000000000
C            9.52200000000000       29.63800000000000        2.62000000000000
H            9.55300000000000       30.64100000000000        2.14300000000000
H            8.58300000000000       29.54700000000000        3.20700000000000
H            9.55000000000000       28.86100000000000        1.82700000000000
N           10.92800000000000       30.31500000000000        4.59600000000000
H           10.31700000000000       31.05400000000000        4.87800000000000
C           10.70100000000000       29.47900000000000        3.52500000000000
C           12.06600000000000       29.98300000000000        5.17700000000000
H           12.48500000000000       30.48600000000000        6.04800000000000
N           12.58400000000000       28.95900000000000        4.52400000000000
C           11.74800000000000       28.62200000000000        3.48700000000000
H           11.97900000000000       27.80200000000000        2.81900000000000
78
 energy: -116.037272282231 gnorm: 0.075878159646 xtb: 6.7.1 (edcfbbe)
Fe          14.59873641302517       28.12087172504827        4.80984030253468
N           14.85158556341598       29.44244731509642        6.29317652577269
N           13.82177457928688       26.79717313474511        6.09923528969594
N           14.45527277585640       26.75634107254930        3.34097816953628
N           15.47205567724830       29.41729071482637        3.52432595990261
C           15.37283412003746       30.70231468980121        6.20652924410735
C           15.33179070435246       31.36244054411508        7.50325018242281
C           14.77290266630057       30.46783788374460        8.36517996263614
C           14.47296470242611       29.28995209591031        7.60901855457859
C           13.59013207048951       27.00542105695302        7.43906311304138
C           12.99230040921862       25.81806939582347        8.03224843889873
C           12.86031039018693       24.90483435585697        7.04158952694468
C           13.37930094490905       25.54037220698769        5.84261230515484
C           13.95414096050733       25.47672189798261        3.44036711883019
C           14.04359231323296       24.79982671692740        2.17230891992945
C           14.61983843161033       25.68538936848949        1.30388613473016
C           14.86255553370014       26.89747951423632        2.05940468120755
C           15.73500479738434       29.20724656056491        2.20814363485659
C           16.36783158812060       30.34857764296378        1.61685448746017
C           16.49612605253544       31.27160322300809        2.61567852442173
C           15.93503921087281       30.67310723257294        3.80625739998346
C           15.87842775731473       31.27130948404703        5.04553039723917
H           16.27490952642074       32.27752708104055        5.12260453318628
C           13.88925483018785       28.16008911991218        8.13947312300659
H           13.65488307189537       28.17729805297074        9.19775159608709
C           13.44553486974855       24.92227783086263        4.60421789938931
H           13.07104405195847       23.90747768027955        4.54834683886056
C           15.44695117047534       28.03957349157820        1.53775927892339
H           15.71154756828543       28.01352560581763        0.48807809215853
C           14.50358869842770       30.63632614321197        9.83216472031694
H           14.83011418197430       31.62393602516976       10.16988688226778
H           15.04433473657119       29.88091230503635       10.41199243026927
H           13.43316991539533       30.53478882166994       10.04387267665435
C           15.82208576187304       32.73778080934174        7.78605020081753
H           15.71564031121233       33.37149361332022        6.90121215206251
H           16.88080936937402       32.71798253818928        8.07038302422727
H           15.25152682928814       33.18986292013408        8.60387089522980
C           12.61565045749589       25.70587548231340        9.47407450755124
H           12.18154438854751       26.64515717743923        9.83028996746870
H           13.50181885305405       25.48461019787142       10.07927882929520
H           11.88357501430758       24.90465832885219        9.61435229637144
C           12.31644216436203       23.53300193034301        7.12768062590340
H           11.63796146838304       23.20237543400262        6.34273496182556
C           12.60256556845861       22.68411589731582        8.10719428679950
H           13.28247827842607       22.95488924304482        8.90530584265604
H           12.18011237802790       21.68505754148340        8.12811870507933
C           13.58344799412957       23.39478657862690        1.94786388769457
H           12.75660183979074       23.14685106574405        2.61862275064146
H           14.40178764857335       22.68879437756043        2.13387258883741
H           13.22958005090428       23.26247858234311        0.92377745111525
C           14.98306562771125       25.56436378334645       -0.11314799054334
H           15.43550081594622       26.44406448045939       -0.56507431749358
C           14.83127548513854       24.51179841296881       -0.90425418768536
H           14.40337822670946       23.58760129904373       -0.54728256849680
H           15.13734887664774       24.54732969728243       -1.94237523205961
C           16.79020344372767       30.46203240537943        0.18683304825300
H           15.92724576717142       30.34210022046249       -0.47890629792976
H           17.52123077761001       29.68518727278379       -0.06314190113756
H           17.24067197869041       31.43968941820776       -0.00426265991574
C           17.11155615926067       32.62841529449785        2.49612433670650
H           16.82732218304876       33.09077287002232        1.54511285471520
H           18.20515095724914       32.55821276522898        2.52667840018213
H           16.77974955819545       33.28103729087895        3.30752159877175
O           16.56323858258882       27.24180898262601        5.02764063632790
H           16.61107896406132       26.46942164753551        4.46389861552266
H           17.29330565993413       27.54897430631800        5.53542685183159
C            9.51851165979199       29.64095599536589        2.62287419538412
H            9.53906293727586       30.62635852652339        2.14436623526143
H            8.58572908837496       29.54790111439017        3.18865115347478
H            9.54446913507284       28.87545888909657        1.84505687419056
N           10.91574759552452       30.31791049175828        4.58557754289975
H           10.30216897214605       31.06054898991123        4.87412095475253
C           10.69548602154952       29.48519746987640        3.51849844554698
C           12.07367778523336       29.96886428360451        5.16174217144856
H           12.48751794687865       30.46112683381363        6.02498916207661
N           12.60846799668978       28.95629043655917        4.51666024168443
C           11.75911717617450       28.63378573543857        3.49454195804690
H           11.98424196201633       27.81865937889445        2.83381995960275
78
 energy: -116.045199950927 gnorm: 0.022358468652 xtb: 6.7.1 (edcfbbe)
Fe          14.58100877114129       28.12351266211197        4.81681796880939
N           14.85795280972315       29.44301771676167        6.30087294900561
N           13.80772046394547       26.79791720582473        6.10735690235292
N           14.42835787011964       26.75902322661020        3.33595237327807
N           15.44894021872132       29.42404820938013        3.53240650634866
C           15.37607930825175       30.69700511891986        6.20894393697732
C           15.33223523607922       31.35953426958535        7.49418692985823
C           14.77658370755569       30.46976526434001        8.36317116981188
C           14.48197050362222       29.28239211185064        7.60139172057807
C           13.58815885356936       26.99790657469763        7.43518627165215
C           13.00086907917996       25.82337526373358        8.03570239543730
C           12.86399119069484       24.90192171100067        7.03426857562922
C           13.36983859663544       25.54250868219352        5.83236238715680
C           13.93845314665685       25.48667200384519        3.43648172057658
C           14.03404130177452       24.80323395023833        2.17078697519995
C           14.61663137715686       25.68616059371167        1.28896692889222
C           14.84834687146848       26.90176589378325        2.05158571351045
C           15.71301015934050       29.20625627275736        2.21689481157361
C           16.35981833456515       30.35261859733237        1.62482779773372
C           16.48771353880735       31.27362200689203        2.61765799835531
C           15.92081798247537       30.67231466477382        3.80750012534185
C           15.87579474356075       31.27261991597936        5.05225057017162
H           16.27870348173277       32.27184625962730        5.13133857190233
C           13.89230377411229       28.14979643620498        8.13380050000653
H           13.65885099212395       28.17091200589872        9.18803031209353
C           13.43550539633230       24.92444767015129        4.59860114592717
H           13.07543566136399       23.90761756472562        4.54827137990862
C           15.43347579035934       28.04106534858620        1.52942196481607
H           15.71421292529066       28.02410541166505        0.48796271494335
C           14.50672565687732       30.63736992524700        9.82170062113633
H           14.82889894167664       31.61672073971269       10.16157968140502
H           15.04063850684143       29.88525884040418       10.39968580961127
H           13.44385672520028       30.53067216588935       10.03533721329744
C           15.82148543043165       32.73839712238291        7.77968562708797
H           15.71623480919234       33.37723802088031        6.90791986807653
H           16.87398309130943       32.72270015525172        8.06325688364902
H           15.26133818082748       33.18466000084295        8.59781462237124
C           12.61585638139487       25.70554329367890        9.46969402676999
H           12.17879686529467       26.63348893646236        9.82936321228772
H           13.49058174371507       25.48658328712267       10.08150574918329
H           11.89503791391509       24.90397455880640        9.60578525192260
C           12.33145268071834       23.55365322828982        7.12103771553161
H           11.67132061896347       23.23888849156954        6.32106465894178
C           12.60491445386188       22.70057386479927        8.10188037186584
H           13.27931861686547       22.95187571211514        8.90023100313220
H           12.17902983015397       21.71205514072093        8.13026630492674
C           13.57492311289558       23.40216527599077        1.95205140777234
H           12.76345124078973       23.15081683362732        2.62851462106729
H           14.39082968470585       22.69951570627388        2.12499393013671
H           13.21390186933314       23.26464981434351        0.93927500306939
C           14.97475564904995       25.55498393985872       -0.10219401864774
H           15.41364367030584       26.44030008677173       -0.54235652985558
C           14.83619708562679       24.49705937261675       -0.90022377014199
H           14.42497497571932       23.56548160313240       -0.56962622714132
H           15.13499879932825       24.54072303141465       -1.93211367530609
C           16.78445439229696       30.45950840220697        0.19863983902561
H           15.93079691328224       30.33950976935738       -0.46767006838875
H           17.51290074499904       29.68911128167458       -0.04992337583715
H           17.23705884049198       31.42683910766086        0.00476780923422
C           17.10515580292439       32.62725446277796        2.50516368300807
H           16.83018251084317       33.08943612488437        1.55948389623762
H           18.19255802082651       32.55881057237637        2.53901293689321
H           16.78160773571728       33.28048476987235        3.30847431840917
O           16.54852811754660       27.20428186183378        5.09412490318724
H           16.67942389486571       26.47685733651000        4.47034010912751
H           17.33473200949193       27.55227862856545        5.53017661436854
C            9.51855262966410       29.63692507617360        2.62422265484159
H            9.52846451774524       30.61511181106935        2.14604710361776
H            8.59090746954397       29.54215173798902        3.18433961743735
H            9.54126261698165       28.87617120524674        1.85352144360874
N           10.91634109948949       30.31690717474682        4.57834672908026
H           10.30214586292496       31.05925557080017        4.87477199906023
C           10.69943871113430       29.48727860731200        3.51106293669343
C           12.08859351622025       29.95858988987979        5.14633412789251
H           12.49895380526199       30.44261464125078        6.00681392097005
N           12.63256593746937       28.95492633185279        4.50386553994829
C           11.77604296930858       28.64469591202053        3.48961310888272
H           11.99436325961578       27.83466796254950        2.82734147270328
78
 energy: -116.046254209292 gnorm: 0.058487945516 xtb: 6.7.1 (edcfbbe)
Fe          14.57395349694657       28.12510897008167        4.81958558319214
N           14.86107507257815       29.44208802679222        6.30393957687924
N           13.79217842988556       26.80744324728373        6.10682244010853
N           14.41072179047733       26.76299606174810        3.33066894640987
N           15.43879737103418       29.42532654187473        3.53891472796323
C           15.37818731875628       30.69469885865046        6.20986116529349
C           15.33482369104301       31.35880966883503        7.49138205024914
C           14.78101540284072       30.47141618821994        8.36330553992606
C           14.48589549627004       29.28090912635576        7.59834271250956
C           13.58356972961351       27.00035658591781        7.43218906310999
C           13.00858730357114       25.82725510932580        8.03755976849753
C           12.87025726413889       24.90540687819576        7.03159213554652
C           13.36114316721095       25.55097059009249        5.82680830431564
C           13.92210187756885       25.49595923751370        3.43281245646520
C           14.01904940427012       24.80602556035852        2.17189681288710
C           14.60372954626817       25.68526927237123        1.28379416607983
C           14.83270161635387       26.90540041835183        2.04548414876059
C           15.69580341921071       29.20537678828717        2.22287841059374
C           16.34850427700644       30.35341545134164        1.63096312350743
C           16.47791578782530       31.27440977231611        2.62177521548731
C           15.91029483903177       30.67175850969279        3.81056935080850
C           15.87451707997017       31.27361094392882        5.05571633365739
H           16.28292898893167       32.26902144812892        5.13668727033034
C           13.89333929753206       28.15027703611631        8.13262499095235
H           13.66658069696834       28.16928509679979        9.18704134987922
C           13.42398507943164       24.93037914849440        4.59598138947695
H           13.07550747819993       23.90999607111632        4.55016536618543
C           15.41915408811710       28.04430126892695        1.52503670536966
H           15.70955031316154       28.03538650015781        0.48708767826685
C           14.50937900393246       30.63734883936391        9.81824343164934
H           14.82960925836407       31.61586201063344       10.15984473949223
H           15.04229444793015       29.88425947041774       10.39487889693604
H           13.44698793313282       30.52748138272939       10.02980214108216
C           15.82259699950080       32.73998135971037        7.77656537738354
H           15.71163657631750       33.38326097996762        6.90945485820139
H           16.87605111544666       32.72534519041848        8.05426412346676
H           15.26695249112829       33.18072005265912        8.59962293692493
C           12.61726915228956       25.70250825246019        9.46792060953323
H           12.16996411811316       26.62497976007805        9.82892449683107
H           13.48761088278460       25.48805008233979       10.08728356650129
H           11.90327054704643       24.89402065776039        9.59489636667982
C           12.34249213718438       23.56424431774093        7.11290521237376
H           11.69884341039745       23.25636046682920        6.29714058304987
C           12.59965629536783       22.71130799336397        8.09882380160631
H           13.27062420762556       22.95564546397550        8.90160686604351
H           12.17297334304591       21.72464661276796        8.12494010859949
C           13.56005016310880       23.40603174110478        1.95713280202423
H           12.76384298962134       23.14982339380842        2.64939767218287
H           14.38151978701300       22.70541067611790        2.11113051067804
H           13.17945982426778       23.26966003796601        0.95145554336180
C           14.96065087057455       25.54634901947840       -0.10019870900795
H           15.38727924922796       26.43791024017735       -0.53865626302876
C           14.84189686548764       24.48465027118550       -0.90019756776259
H           14.46144088136145       23.53470209628023       -0.58121518587138
H           15.14373929631855       24.53804845206010       -1.93047795938182
C           16.77778576220464       30.45558479817763        0.20721024119613
H           15.92738083910897       30.33451592453081       -0.46153138821336
H           17.50690904732810       29.68468900182920       -0.03535645230694
H           17.23336278819627       31.42100915935714        0.01327882438493
C           17.09872313176147       32.62666717711460        2.51573237747374
H           16.83064471632864       33.09141527904595        1.56992066229197
H           18.18540072520402       32.55560418451559        2.55538022929427
H           16.77510332004250       33.28010938099007        3.31793964051849
O           16.52773596394224       27.14315521392815        5.19932624830633
H           16.75565660776210       26.51289172164159        4.45603021723841
H           17.37702879495261       27.57574122730613        5.49992414963389
C            9.52164735336097       29.62908059294978        2.62432443069948
H            9.51967226384209       30.60641111045643        2.14463397749287
H            8.59845912532947       29.52952868715612        3.19054185548620
H            9.54164854757279       28.86736497305731        1.85512613037344
N           10.92624229984230       30.31335846425184        4.57257349880305
H           10.31084469759237       31.05181784218086        4.87691408647911
C           10.71054323490879       29.48710499761593        3.50186770431693
C           12.10607034332106       29.95455307481296        5.13270673169574
H           12.51539364604165       30.43359107226273        5.99521148106985
N           12.65468412194353       28.95879599588640        4.48411614051764
C           11.79465744409355       28.65290822008273        3.47272118283048
H           12.00944405451680       27.84883470217883        2.80243228815836
78
 energy: -116.048527857042 gnorm: 0.018249173988 xtb: 6.7.1 (edcfbbe)
Fe          14.57611777303259       28.12684111138630        4.81870844936175
N           14.86239651200109       29.44139886147342        6.30390416280747
N           13.78454749280920       26.81714064296256        6.10257799969089
N           14.40285598468541       26.76722315112652        3.32613660554693
N           15.43545699760372       29.42590557511197        3.54113434823974
C           15.37964918378723       30.69471360718274        6.20983589695308
C           15.33751033743296       31.35947963290565        7.49165677942862
C           14.78482896319861       30.47231584903917        8.36386259722717
C           14.48878887523952       29.28155750024448        7.59825086365942
C           13.58299303712729       27.00503123000705        7.43017673894189
C           13.01521174205375       25.82920858786293        8.03735778738893
C           12.87724033922509       24.91032882059393        7.03071877408521
C           13.35817181034359       25.55917601724342        5.82434327944955
C           13.91196537620481       25.50239089530010        3.42983763721806
C           14.00737136254619       24.80859780956148        2.17252083240484
C           14.59185454851910       25.68493792881306        1.28311420785280
C           14.82158373586270       26.90850276000555        2.04080520027938
C           15.68530516071180       29.20652192179530        2.22423745864341
C           16.33833438164098       30.35460984546678        1.63306887937870
C           16.46946184567651       31.27610964752081        2.62415534009731
C           15.90416976097347       30.67292628076527        3.81240232689668
C           15.87417524130813       31.27486056279594        5.05651341074996
H           16.28502258450537       32.26915589061750        5.13876075052054
C           13.89626270680667       28.15335576310425        8.13348906987785
H           13.67421995122790       28.16875052489958        9.18909941405729
C           13.41745834634700       24.93627389306598        4.59477360789685
H           13.07508387124163       23.91333947528216        4.55155987486928
C           15.40870752468885       28.04828061561693        1.52227164983483
H           15.70211791729101       28.04412245544286        0.48478271312380
C           14.51161917705546       30.63677946658655        9.81816970354180
H           14.83084935074819       31.61717158252374       10.16056477968572
H           15.04622685367750       29.88220245919196       10.39395113689483
H           13.44749304660127       30.52499106270268       10.02714013727136
C           15.82377158055523       32.74178449584510        7.77529677493760
H           15.70569448526316       33.38763701390647        6.90880551258826
H           16.88027909014943       32.72785095348711        8.04648702653290
H           15.26999355383954       33.17888203406940        8.60344416671747
C           12.62055902522893       25.69941698796386        9.46684696762749
H           12.16392251195298       26.61967088010894        9.82813723277189
H           13.49001847813135       25.48899871734973       10.09150793215703
H           11.90995977201482       24.88437878885383        9.58675162970129
C           12.35117470228381       23.56779498293629        7.10613032578367
H           11.71775530421927       23.26169455894993        6.28015145696194
C           12.59732710608601       22.71599062693549        8.09586460019246
H           13.26316321752557       22.96124175401947        8.90501093684500
H           12.16831360790458       21.72902598569247        8.11896828968590
C           13.54833049713541       23.40843090170320        1.95912682468348
H           12.76314545055913       23.14774487502619        2.66557132189905
H           14.37597165322389       22.70900196441680        2.09775076110773
H           13.15119053156832       23.27596079475946        0.95670892764483
C           14.95032204013474       25.54063994443134       -0.10192242279209
H           15.36395306472298       26.43794932451243       -0.54459887520998
C           14.84882404725558       24.47549399673652       -0.89922264839914
H           14.48793255075010       23.51339320993043       -0.58268404351662
H           15.15127924786157       24.53601227888588       -1.93116438470006
C           16.77162828496161       30.45404579474072        0.21064705094974
H           15.92162909801318       30.33174956915848       -0.46028959926817
H           17.50220114283009       29.68066004670652       -0.02619229371335
H           17.22913693630181       31.42072844982681        0.01762929738484
C           17.09288301408515       32.62787809998415        2.52257848351920
H           16.82891477931075       33.09518633410605        1.57511545226263
H           18.18062826443745       32.55373092432079        2.56746377246823
H           16.76600556877635       33.28089784307371        3.32619723392400
O           16.56300432835435       27.17342680510395        5.17020351538572
H           16.75902146733471       26.48955250180541        4.52939119822707
H           17.37772864935436       27.55346194713798        5.52506784433300
C            9.52439147374926       29.62108887239347        2.62520379501282