87
 energy: -124.720689632250 gnorm: 0.000038865900 xtb: 6.7.1 (edcfbbe)
Fe          -0.88423910243222       44.36625551534095        5.37081602479025
N           -0.87786812977350       42.59820549843016        4.43657797621348
N           -2.55004341162782       43.84734263749285        6.33828018454625
N           -0.86369355698285       46.11588885827605        6.34248850062111
N            0.80787848233537       44.87315919960204        4.42618396706521
C            0.08600926206890       42.11519176725193        3.60878130672471
C           -0.26321031906515       40.79347038257620        3.13599236920753
C           -1.46805605821257       40.49631766904508        3.69183210597723
C           -1.82906215899014       41.63311028725536        4.50983036450825
C           -3.28780970252576       42.72352956832341        6.14917357262668
C           -4.44098468547591       42.71599292839056        7.02291566363138
C           -4.36887456395057       43.85664242366438        7.75859412166310
C           -3.18219841115737       44.55267221775284        7.31074454200815
C           -1.69944779535563       46.50523306905503        7.33593777844898
C           -1.36610519795456       47.83956682319851        7.79309530063049
C           -0.29376858827500       48.24022561021233        7.04070662269586
C            0.00890112118776       47.14444292445240        6.15635927823165
C            1.45426371919799       46.06549340266254        4.49096472524466
C            2.63542948001038       46.05432366972839        3.64916448670392
C            2.70066499960421       44.79573330439842        3.11143889793568
C            1.55016645688810       44.08400296936904        3.60379429250528
C            1.22973116060770       42.78946761045785        3.23133658235166
H            1.90977306431095       42.27989968320561        2.56595720393152
C           -2.97222861368255       41.69218589373008        5.28532512914622
H           -3.65210516174605       40.85537206161423        5.23652255414594
C           -2.78225493818715       45.78036007924597        7.80079595471032
H           -3.38217016831754       46.22349093960094        8.58098830255028
C            1.06742348418739       47.14374901534229        5.26347459832197
H            1.65811626813777       48.04451013963786        5.19466536634479
C            0.57815063676076       39.98097568550414        2.21219935151753
H            1.56633050108739       39.81292812840919        2.64119309921116
H            0.70718739443309       40.49384002219615        1.25852140528845
H            0.11922813921358       39.01414949937313        2.02051128718046
C           -2.30195093076591       39.27032486650214        3.54138221828219
H           -3.28660990493959       39.52497522232917        3.14935749265482
H           -2.43932349255824       38.77687142935670        4.50419975750508
H           -1.83370073338934       38.56479061033557        2.85938015342658
C            3.75895840435678       44.21582509845118        2.23962129908502
H            3.96082773375950       43.18196583937610        2.51591152189024
H            4.67890118150817       44.78879370085414        2.33766262757736
H            3.45383714245948       44.23180349452112        1.19174694805244
C            3.54358814874582       47.16701221801504        3.48393421592792
H            3.65616538177425       47.81425714903104        4.34620432528625
C            4.22241554183946       47.45040618790188        2.37674426749671
H            4.11521091607677       46.87354994337663        1.47476845729292
H            4.89396495257377       48.29150309237860        2.32782592036313
C            0.48667790559074       49.50439754353135        7.14095465676886
H            0.19210786369573       50.20776616689491        6.35995787885082
H            1.55311129231187       49.31066367383671        7.03363541401723
H            0.31461147640831       49.97311871117537        8.10768752487218
C           -2.05884728500678       48.54484082868772        8.84841575438458
H           -2.44133447629943       47.92542650482079        9.65167600888464
C           -2.26088789779787       49.85757683801042        8.89471128082544
H           -1.94599057532984       50.51388469954653        8.10219710625289
H           -2.77552517556047       50.32000590724378        9.72067282808225
C           -5.29074124347090       44.36086534681263        8.81527223620346
H           -6.09917228585985       43.65574527203027        8.99243850018071
H           -5.72653752173802       45.31537471802149        8.51893409583015
H           -4.75461675186257       44.51100575715162        9.75271678323065
C           -5.46243963675990       41.63128745988296        7.05761189515731
H           -6.24896435117816       41.86335044771154        7.77145697591964
H           -5.00816279481916       40.68215205350742        7.34460998635948
H           -5.91688587389671       41.50454910319178        6.07510112958497
C            2.88484442817979       43.34162233848595        9.34834107167102
H            3.57856510428819       42.51479529755998        9.19618006934502
H            2.53663804682759       43.30877672819187       10.38070026245570
H            3.41581533560178       44.27501392530085        9.19000360552420
N            0.89493941956054       42.17671043195855        8.37080040144342
H            0.95393919020474       41.36316544127850        8.96097818818612
C            1.74283965020256       43.25291482837201        8.40362349073010
C           -0.02602141952515       42.40955877169025        7.40898727250395
H           -0.81915359709132       41.73589169349244        7.15872900847815
N            0.18738497253756       43.56635964450525        6.83192263656715
C            1.28358178408416       44.10295492114447        7.43880624355366
H            1.66633593848188       45.05757441999351        7.14324980737058
C           -3.73523540659268       47.27392354239495        4.57315054146815
H           -3.88443857869875       48.34781697612996        4.66609340159067
H           -3.58362839998321       46.85647361340177        5.56482080293187
H           -4.62994024125430       46.82908838982831        4.14410010321223
C           -2.53193396047411       46.98777914813788        3.69662183234842
H           -1.62948378630446       47.44257220500947        4.10292305368067
H           -2.69863756710024       47.34086569083350        2.67853478218042
S           -2.25217417358688       45.17388963770442        3.58870134374370
C           -1.22406307570956       45.17195497985860        2.08853958210116
H           -0.37448636795828       45.83435449963776        2.22068720582487
H           -1.83086821725803       45.48415846483616        1.24245906995894
H           -0.87763969460218       44.15396504101883        1.94709404620552
