87
 energy: -124.473380634068 gnorm: 0.288324846076 xtb: 6.7.1 (edcfbbe)
Fe          -0.79600000000000       44.39900000000000        5.39800000000000
N           -0.81200000000000       42.64800000000000        4.39600000000000
N           -2.53200000000000       43.91099999999999        6.34300000000000
N           -0.77300000000000       46.16900000000000        6.38900000000000
N            0.94700000000000       44.88300000000000        4.49100000000000
C            0.18700000000000       42.14800000000000        3.59800000000000
C           -0.19900000000000       40.82200000000000        3.16600000000000
C           -1.40200000000000       40.54199999999999        3.70200000000000
C           -1.80500000000000       41.69300000000000        4.47100000000000
C           -3.31900000000000       42.82200000000000        6.01600000000000
C           -4.54200000000000       42.89200000000000        6.75700000000000
C           -4.45800000000000       44.12100000000000        7.60400000000000
C           -3.17600000000000       44.68500000000000        7.28800000000000
C           -1.62100000000000       46.55400000000000        7.39200000000000
C           -1.20900000000000       47.85699999999999        7.84700000000000
C           -0.14800000000000       48.23800000000000        7.13100000000000
C            0.13200000000000       47.19200000000000        6.18900000000000
C            1.60800000000000       46.08599999999999        4.59200000000000
C            2.81300000000000       46.01500000000000        3.81200000000000
C            2.88800000000000       44.79700000000000        3.25900000000000
C            1.70700000000000       44.07300000000000        3.67300000000000
C            1.35900000000000       42.79300000000000        3.29000000000000
H            2.08200000000000       42.24400000000000        2.68700000000000
C           -2.98100000000000       41.81600000000000        5.15600000000000
H           -3.72300000000000       41.03300000000000        5.00100000000000
C           -2.68600000000000       45.83000000000000        7.84900000000000
H           -3.19000000000000       46.20000000000000        8.74200000000000
C            1.17900000000000       47.18299999999999        5.30400000000000
H            1.71500000000000       48.12000000000000        5.15200000000000
C            0.66900000000000       39.92300000000000        2.26200000000000
H            1.58300000000000       39.95800000000000        2.89300000000000
H            0.77800000000000       40.64999999999999        1.42900000000000
H            0.55000000000000       38.89599999999999        1.85600000000000
C           -2.24400000000000       39.24300000000000        3.59400000000000
H           -3.17500000000000       39.73999999999999        3.24800000000000
H           -2.33200000000000       39.03000000000000        4.68100000000000
H           -2.11100000000000       38.29500000000000        3.03000000000000
C            3.97800000000000       44.20400000000000        2.33700000000000
H            4.25900000000000       43.27800000000000        1.79100000000000
H            4.76200000000000       44.43000000000000        3.09200000000000
H            3.89900000000000       45.04000000000000        1.61000000000000
C            3.80900000000000       47.18000000000000        3.63900000000000
H            4.71500000000000       47.09900000000000        4.25400000000000
C            4.00300000000000       47.70700000000000        2.39700000000000
H            3.15700000000000       47.82900000000000        1.70400000000000
H            5.00700000000000       48.01599999999999        2.07200000000000
C            0.67000000000000       49.54600000000000        7.24700000000000
H            0.57400000000000       49.84400000000000        6.18100000000000
H            1.66300000000000       49.07300000000000        7.40000000000000
H            0.57800000000000       50.45100000000000        7.88400000000000
C           -1.89100000000000       48.62400000000000        8.99700000000000
H           -2.22100000000000       47.91600000000000        9.75700000000000
C           -2.32900000000000       49.88800000000000        8.85800000000000
H           -1.93500000000000       50.53000000000000        8.05600000000000
H           -3.08600000000000       50.29500000000000        9.54400000000000
C           -5.50500000000000       44.65600000000000        8.57400000000000
H           -6.33400000000000       44.53300000000000        7.84500000000000
H           -5.71800000000000       45.53699999999999        9.21600000000000
H           -5.43500000000000       43.73899999999999        9.19800000000000
C           -5.73300000000000       41.93100000000000        6.71000000000000
H           -6.45800000000000       42.77000000000000        6.63900000000000
H           -5.63100000000000       41.63300000000000        7.77500000000000
H           -6.11100000000000       41.07500000000000        6.11100000000000
C            3.12900000000000       43.03199999999999        9.11800000000000
H            3.60600000000000       42.04200000000000        8.95100000000000
H            2.89900000000000       43.14299999999999       10.19900000000000
H            3.83200000000000       43.82999999999999        8.79600000000000
N            0.82100000000000       42.24300000000000        8.50500000000000
H            0.80600000000000       41.50500000000000        9.18000000000000
C            1.86800000000000       43.11900000000000        8.32200000000000
C           -0.14500000000000       42.54100000000000        7.64900000000000
H           -1.09700000000000       42.01400000000000        7.58800000000000
N            0.24600000000000       43.56399999999999        6.90500000000000
C            1.49800000000000       43.95399999999999        7.32500000000000
H            2.00800000000000       44.79400000000000        6.87000000000000
C           -4.42100000000000       46.05200000000000        4.49800000000000
H           -5.25700000000000       46.74600000000000        4.26500000000000
H           -4.28600000000000       46.01600000000000        5.60000000000000
H           -4.68400000000000       45.04100000000000        4.12000000000000
C           -3.15800000000000       46.52900000000000        3.84500000000000
H           -2.72300000000000       47.34099999999999        4.46600000000000
H           -3.41200000000000       46.95000000000000        2.84900000000000
S           -1.98900000000000       45.25200000000000        3.65600000000000
C           -0.97800000000000       45.75100000000000        2.27100000000000
H           -0.33900000000000       46.62200000000000        2.53100000000000
H           -1.62000000000000       46.04099999999999        1.41200000000000
H           -0.31300000000000       44.91700000000000        1.96100000000000
87
 energy: -124.592146787899 gnorm: 0.157121595761 xtb: 6.7.1 (edcfbbe)
Fe          -0.79181857595962       44.40796858548702        5.39552788548362
N           -0.80947772959143       42.63965211417130        4.40528602445715
N           -2.51607276113840       43.91871664226328        6.32979613695607
N           -0.77081476785085       46.17435221986997        6.38784917130890
N            0.94193575253285       44.88197905404632        4.49597962608958
C            0.17743858050374       42.13492066468839        3.60564189524691
C           -0.19860638826862       40.80242012898533        3.16076960346832
C           -1.40228485018789       40.52669561957884        3.69276911793315
C           -1.79635040403977       41.68984997438950        4.46582944070594
C           -3.31443757418149       42.84789159380762        6.02211490947858
C           -4.53261180354355       42.92438882168418        6.75989323599835
C           -4.43977585022457       44.09901006330244        7.57469553709302
C           -3.16438813248541       44.66475686416801        7.27565495158759
C           -1.60533841534211       46.55506093739071        7.40009013468569
C           -1.21486135465450       47.86568383500641        7.87777612738606
C           -0.15644665903395       48.25850914163895        7.14142260900591
C            0.12505085040133       47.19477896372609        6.20138911183366
C            1.59886703743416       46.07930324325904        4.58222548399980
C            2.80669890988284       46.02231863382319        3.80022367454189
C            2.86953584837892       44.77694190012897        3.25523887492392
C            1.69217385233720       44.07281945216680        3.68671491968058
C            1.35325534497673       42.78865236400459        3.29514873511323
H            2.07589583529874       42.25246920246470        2.68618822194114
C           -2.98088917833509       41.81996864244601        5.15686434562416
H           -3.72029967859773       41.03727716518692        5.01242524468416
C           -2.68076032102875       45.82657419170383        7.85177895306603
H           -3.20198061691080       46.20362537474995        8.72703590659223
C            1.17610742440081       47.18240340126854        5.30385703457091
H            1.72456303794453       48.10938233564462        5.16122703151441
C            0.69449502021012       39.96096316858343        2.26802969091528
H            1.61550865297678       39.94494667485566        2.86274835552468
H            0.81347532106301       40.63130402831822        1.40850941104180
H            0.50584460396386       38.93916288597082        1.89763712123849
C           -2.26672803003931       39.27504912567220        3.61621352299889
H           -3.20673008376164       39.70779864172846        3.25579874363766
H           -2.36161700278287       39.00679605989697        4.67600899712464
H           -2.06763101297174       38.35705672455928        3.03718166186084
C            3.98973009699779       44.25644581845839        2.35459566319723
H            4.18553340178260       43.29568659121826        1.84236626926759
H            4.81601309551463       44.43623250320901        3.05409113106065
H            3.95420532984219       45.04134904998917        1.58882664437314
C            3.83204088711997       47.11123568491673        3.59646574646831
H            4.70201387191460       47.09708750896319        4.26143805776538
C            4.00159410269994       47.69649903854408        2.40132863257787
H            3.17261158249818       47.81077437089840        1.70675408561470
H            4.98090535534188       48.05615706279882        2.08841030873596
C            0.68608302962725       49.52256997575592        7.21202806976743
H            0.60772829790830       49.87452803638990        6.17648586452103
H            1.68503565660102       49.10576584606692        7.38952140699509
H            0.54122811729419       50.38662113968843        7.88168634980439
C           -1.92171863073423       48.60718481254045        8.96473859134665
H           -2.22767125221571       47.93341783429581        9.76020131686678
C           -2.32598406031952       49.87229245432032        8.85703612429842
H           -1.95244759531912       50.51328404105963        8.06235558951892
H           -3.05274372371609       50.29662049959329        9.54864116124861
C           -5.51026276153559       44.59348107760980        8.54208320812369
H           -6.38135747861931       44.52481351743912        7.87685555613864
H           -5.64234901420885       45.51072906379964        9.15416375330095
H           -5.49141882206255       43.73447618423003        9.22679631318587
C           -5.73234365476126       41.98162579766804        6.75206777614260
H           -6.51364227347951       42.74674823676350        6.66092419541733
H           -5.68160742364724       41.61845582890719        7.78757040470170
H           -6.03064423449791       41.12825746533044        6.10878666190530
C            3.12882200469180       43.02954466433295        9.11981716675647
H            3.60581181015355       42.05352889492692        8.95772066997227
H            2.90926058469965       43.14204704039274       10.18937721530201
H            3.82109892773995       43.81775079663616        8.80371147028982
N            0.82999014526309       42.24158893463076        8.51224440055284
H            0.81077114153131       41.49987699990480        9.18866616234884
C            1.87276938968008       43.11499429752200        8.32699519910733
C           -0.13976726132880       42.54864271259850        7.63987930076374
H           -1.08313037319703       42.02707903929892        7.57923723692487
N            0.23616878870778       43.57057241864206        6.89915293427409
C            1.48613980251486       43.94595879132522        7.32200640128256
H            1.99640433616434       44.78068465149641        6.87293728871078
C           -4.42594972713110       46.05337578711156        4.49965296590094
H           -5.25256427472490       46.73780176798576        4.27287401539460
H           -4.29510792959803       46.00813362575851        5.58614956631045
H           -4.68439397992917       45.05344249926024        4.12822039226161
C           -3.15492124774553       46.54653606628972        3.84237296512690
H           -2.71903374399345       47.34801495098868        4.45733773083935
H           -3.40092214493694       46.95199370936704        2.84977198514180
S           -2.00082817678628       45.20822837278077        3.63565765559778
C           -0.97534254587555       45.76446247409625        2.26376985492090
H           -0.34194985163156       46.61862176890616        2.53294094440979
H           -1.61604551391039       46.03875289719494        1.41666327247691
H           -0.32773694175889       44.92857895746177        1.97108287367591
87
 energy: -124.658416350732 gnorm: 0.069038150735 xtb: 6.7.1 (edcfbbe)
Fe          -0.78921266809370       44.41108294002115        5.39809046332558
N           -0.80656014413499       42.63043029422872        4.41445236924349
N           -2.50739880006989       43.92624868090181        6.31820612312121
N           -0.76717771169957       46.17665507643961        6.38716784569886
N            0.93667038983568       44.88218249996742        4.49810937409207
C            0.17118532041575       42.12381446676351        3.61641880148231
C           -0.19607161904273       40.78630645159750        3.15726672156487
C           -1.40599144695808       40.51454371258696        3.68712319814388
C           -1.78873119197119       41.68945427062246        4.46564532038355
C           -3.31145910564570       42.86750969579427        6.02273314939932
C           -4.53028075699786       42.95040317020003        6.76884936672486
C           -4.43219411443837       44.07567300180623        7.55494446913503
C           -3.15678805059622       44.65420770863761        7.26559224196590
C           -1.58995030236225       46.55260602704335        7.40480466716362
C           -1.21712669858886       47.87314473162139        7.89822104195686
C           -0.16143365798201       48.27596575055472        7.14184956614271
C            0.11911534515424       47.19377159690193        6.20950694761406
C            1.59057247766839       46.07413479772844        4.57350345077306
C            2.80157393209673       46.02964640155619        3.78936794438588
C            2.85758502570891       44.76184841074704        3.25158793199332
C            1.68077836957936       44.07324299973101        3.69690929484347
C            1.34786731542242       42.78355163627143        3.30038014801241
H            2.06864037734821       42.26134853847086        2.68461300669235
C           -2.97988983902704       41.82427416342939        5.15819165162285
H           -3.71664673789050       41.04268638052919        5.02611954124080
C           -2.67732987080967       45.82598681070284        7.85114322302765
H           -3.21530378621639       46.20900921714770        8.70844760496748
C            1.17350097640634       47.17990721202109        5.30499339614066
H            1.73634203564471       48.09577707476453        5.17314336142310
C            0.71636647165161       39.99733286669456        2.27556370209475
H            1.65037855645622       39.93325861453734        2.83154852332687
H            0.85083631860987       40.61450332703019        1.38823382101644
H            0.45135742314710       38.98134336064257        1.94530366821137
C           -2.28681967036807       39.30663120223472        3.63666415468124
H           -3.24047808779469       39.67632533666485        3.26422611863228
H           -2.39381937864604       38.98487146275423        4.67316568499781
H           -2.01381559033938       38.42378178820299        3.03836151583503
C            3.99624404703571       44.30876607173012        2.37518270488740
H            4.09505847474875       43.31189086286292        1.90318691090278
H            4.86481627175940       44.44496569829091        3.02008805360020
H            4.00589227544874       45.04515665349147        1.57162593301665
C            3.84461696782851       47.05037955557991        3.56208244119121
H            4.68232774829588       47.07605616042959        4.26470716352592
C            3.99694315037450       47.68655751607998        2.40644571257997
H            3.18794092756423       47.77882803507948        1.69776987683486
H            4.95233199728613       48.10814566084908        2.11372124617632
C            0.69822468976396       49.49864505600590        7.17930248364944
H            0.64308893494218       49.90492046437613        6.17024169457907
H            1.70700378957357       49.13584115768184        7.37675521149533
H            0.49348088854106       50.31794851905988        7.88428917249012
C           -1.93774416889634       48.58687035760433        8.93779119620533
H           -2.24793173603832       47.94790577295162        9.75928754173419
C           -2.31757973249874       49.85806471876536        8.85901563078513
H           -1.97436321367453       50.49784129216696        8.06033090953905
H           -3.01608741959460       50.29667122655371        9.55885447566389
C           -5.51360465034077       44.53207434553894        8.51239868500166
H           -6.42031624832042       44.51331543538715        7.90444433057334
H           -5.54636354347566       45.48802739064347        9.08236096857613
H           -5.54268094095834       43.72709594719129        9.25061384457150
C           -5.72951314407055       42.03086687270672        6.79158482964216
H           -6.56369961448380       42.72597132913203        6.68433879725107
H           -5.72541941835232       41.60966855175700        7.79991579053684
H           -5.93136751635683       41.18782755465215        6.09637539345491
C            3.12897173790163       43.02864148709688        9.12051597305100
H            3.60629391487508       42.06111865581251        8.96295528213109
H            2.91639919913012       43.14167633509359       10.18340924283576
H            3.81397664537621       43.81125127906708        8.80865425769389
N            0.83603236985469       42.23994443090180        8.51706730359582
H            0.81195541917472       41.49544837149718        9.19338457456725
C            1.87560450986462       43.11237502933753        8.32967443238687
C           -0.13562481789651       42.55551912852730        7.63303731562294
H           -1.07190735616108       42.03686174820837        7.57078525813008
N            0.22989005540733       43.57523343561424        6.89549814375799
C            1.47585201347626       43.93975480811089        7.32021825907916
H            1.98974359258917       44.76959125031519        6.87688229448829
C           -4.43309714558587       46.05738285436777        4.50241860556523
H           -5.25348354631238       46.73522110499503        4.27994776316107
H           -4.30038676518424       46.00260733506273        5.57800700371587
H           -4.68306785012138       45.06516439722316        4.13068902005640
C           -3.15774278888991       46.56376029573445        3.84157172527625
H           -2.70819275851494       47.34813869300439        4.44989584219525
H           -3.38939560430761       46.95234116790553        2.84887673949372
S           -2.01124269947908       45.17200526365815        3.61790213044965
C           -0.97102324424363       45.77359364929121        2.25473813986850
H           -0.34994635608995       46.61651842860513        2.54269666415039
H           -1.61353393187186       46.03938570221099        1.41955640986658
H           -0.33466451456514       44.93670126424104        1.97645720931956
87
 energy: -124.686813833457 gnorm: 0.048577339498 xtb: 6.7.1 (edcfbbe)
Fe          -0.79078363480610       44.41169326396935        5.40012837412810
N           -0.80142100677683       42.62687341194053        4.42903476501020
N           -2.50707963541920       43.93224508453548        6.31107432338608
N           -0.76177584523914       46.17133367674847        6.38822432629580
N            0.93128057012079       44.88167671786771        4.49789390840162
C            0.17268579308436       42.12153070466002        3.63213390034903
C           -0.19149263998227       40.78749237455536        3.16423617033549
C           -1.40873030708732       40.51875740500477        3.69170913800109
C           -1.78399168881701       41.69431748600746        4.47299128978553
C           -3.30978850564393       42.87441682176509        6.01525891966699
C           -4.53119321959300       42.95513065346888        6.77062352322749
C           -4.42717654838605       44.06744102073940        7.55858473079095
C           -3.15006204519406       44.65685772131051        7.26452909817280
C           -1.57698496330366       46.54445346589922        7.40710667607278
C           -1.21066559108696       47.86942977094672        7.89806102784637
C           -0.15794421568546       48.27576975609383        7.13068691561461
C            0.11902528458177       47.18745193357018        6.20783538720883
C            1.58211975203126       46.07296913247404        4.56695927741307
C            2.79038647454015       46.03010689286318        3.78128955991628
C            2.85063844950397       44.76082438847514        3.24877138459329
C            1.67581812724563       44.07204769573021        3.70077458133282
C            1.34523517524547       42.78049630370488        3.30776938643962
H            2.06040053841130       42.26836530346298        2.68074434199875
C           -2.97824742693613       41.82880625767964        5.15954675822027
H           -3.71237069999370       41.04514765873785        5.04079690351875
C           -2.67300388087574       45.82674554116598        7.84898678016370
H           -3.23165758582526       46.22196454575219        8.68623596800588
C            1.17303769020170       47.17584458992753        5.30485192014130
H            1.75423693872024       48.08122093079340        5.18952701162267
C            0.72682648792554       40.01840725326679        2.28257398268922
H            1.68363127191879       39.91824525375646        2.80008403476066
H            0.88530977129882       40.59663742130344        1.36978148448017
H            0.39355080976701       39.01196445503371        1.99033365043944
C           -2.29796796090143       39.32692634827395        3.64650397796329
H           -3.27240899060699       39.64399053786578        3.26914168644127
H           -2.42635605841801       38.96139862649391        4.66868050625934
H           -1.95597503104364       38.48243942913031        3.02972648868089
C            3.99495344583889       44.33680253044805        2.38897633561215
H            4.00786563950476       43.31767742627642        1.95930719685001
H            4.90452441080386       44.44939794833511        2.98705962321188
H            4.05334557386000       45.04262965547320        1.55585035667845
C            3.85102219674538       47.01206936300596        3.54475528507280
H            4.66678774053415       47.04521846551450        4.26691313411047
C            3.99305824033296       47.68282752894000        2.40915063381071
H            3.19996717800895       47.73304055712941        1.67732690785538
H            4.92357797858737       48.18777478346498        2.15067211975318
C            0.70476152752806       49.48539456332238        7.15800509315140
H            0.67810389516146       49.93975023046637        6.16460885731364
H            1.72916633108674       49.16672705822164        7.36387185906763
H            0.44094814419109       50.25858059827976        7.89419298806352
C           -1.95474216294065       48.57243221881633        8.92139489831873
H           -2.27838542264087       47.95786213698707        9.75646376471889
C           -2.31725115356469       49.84932638140437        8.85630828591754
H           -1.99586552971690       50.48498239336164        8.04696474935036
H           -2.97143979301073       50.30442741293984        9.58736353757035
C           -5.51103923372634       44.49667639085157        8.49960691570764
H           -6.44826340925074       44.50465452599328        7.93492930835157
H           -5.45068454317046       45.47466322662074        9.02106598838105
H           -5.58955473842617       43.72356769105355        9.27165648380775
C           -5.72641047644342       42.05687864098966        6.81196935287550
H           -6.60613574845903       42.69988798369476        6.70380106419945
H           -5.76541135265107       41.60133423238725        7.80666815352278
H           -5.83516990960033       41.23669163423683        6.07467176307983
C            3.12829052088738       43.02865016295710        9.12096677653082
H            3.60974609919608       42.06331415032393        8.96708637288333
H            2.92054583299171       43.14257560904677       10.18412633009594
H            3.81139428700452       43.81186492567973        8.81020348020817
N            0.83655241391231       42.23776156988178        8.51727874616911
H            0.80994659042369       41.49231287096661        9.19330258165277
C            1.87516775424113       43.11071915789368        8.32959320714403
C           -0.13442447546548       42.55757892450426        7.62956162057851
H           -1.06809689158083       42.03924017715592        7.56171425647109
N            0.22739817469718       43.57861079045483        6.89463366700400
C            1.47201361178551       43.93727055373652        7.31995513753995
H            1.98963548474558       44.76408776584455        6.87934142808388
C           -4.43760834505913       46.06569942778545        4.50190862036437
H           -5.26040094521566       46.74189985904499        4.28786457729177
H           -4.30335326262962       45.99881840281887        5.57580359926993
H           -4.68626650328376       45.07616213086244        4.12591178591150
C           -3.16147755806175       46.56960697425463        3.83867007845805
H           -2.68985224468181       47.34207008224110        4.44278193791511
H           -3.37877451741310       46.95446796561597        2.84365049831418
S           -2.02375976187347       45.14753145718587        3.60237012444890
C           -0.97223859136931       45.77624640527320        2.25002165574245
H           -0.36179745984202       46.61728204678062        2.56199017296961
H           -1.61270127090720       46.04491260426043        1.41631208698071
H           -0.33377342405909       44.94262057224173        1.97620444224489
87
 energy: -124.697783233132 gnorm: 0.036192154767 xtb: 6.7.1 (edcfbbe)
Fe          -0.79143764797834       44.41111398596924        5.40076018692818
N           -0.79570245906856       42.62887575953728        4.44811072062174
N           -2.50926069469760       43.93806019476983        6.30707580176790
N           -0.75966647613217       46.16315040542218        6.38481893822850
N            0.92818951687607       44.88081319709413        4.49328442622248
C            0.17692228548209       42.12343735672173        3.65130896699924
C           -0.18613791239991       40.79542775131396        3.17835815140063
C           -1.40979618749071       40.52943847945308        3.70273141307568
C           -1.77953611029584       41.70067907608233        4.48637912385660
C           -3.31013949389817       42.87864381220979        6.01269780291014
C           -4.53083179184864       42.95407843494658        6.77592736700462
C           -4.42352081645026       44.06175151355076        7.56848791642663
C           -3.14865812943227       44.66099291155643        7.26478433140900
C           -1.57258686649415       46.53944084363602        7.40127324265647
C           -1.20911414525686       47.86622007006363        7.88483528673259
C           -0.15540715023687       48.27051046053406        7.11396364395272
C            0.12161224114316       47.17835344855111        6.20312112712091
C            1.57718352446394       46.07296965437877        4.55961858911443
C            2.78085461377078       46.03034954196386        3.77124105699628
C            2.84968048940788       44.76504362930667        3.24374356526650
C            1.67564564097527       44.07137801643984        3.69828780322871
C            1.34493544717268       42.77951402553023        3.31460146125346
H            2.05173028976494       42.27134976477988        2.67647749472045
C           -2.97673031743081       41.83288348581061        5.16646138527056
H           -3.70721627649791       41.04539313360141        5.05745938929152
C           -2.67548896324584       45.83070793184287        7.84084715172323
H           -3.25158247903201       46.24178306606294        8.65842860699888
C            1.17756181870355       47.16977859224656        5.30621038237338
H            1.77686835134755       48.06535099660295        5.21065551457860
C            0.72423756353243       40.02392596191235        2.29123640920903
H            1.69522404023501       39.89627046176791        2.77964665855047