78
 energy: -115.976744737971 gnorm: 0.285458231995 xtb: 6.7.1 (edcfbbe)
Fe          24.14400000000000       78.77400000000000       27.70499999999999
N           25.52000000000000       78.39700000000001       29.08400000000000
N           23.64600000000000       80.44700000000000       28.68900000000000
N           22.64100000000000       79.13200000000001       26.39100000000000
N           24.60600000000000       77.07199999999999       26.78100000000000
C           26.43700000000000       77.38399999999999       29.05300000000000
C           27.21800000000000       77.40100000000000       30.27000000000000
C           26.75700000000000       78.39900000000000       30.97900000000000
C           25.68200000000000       79.05600000000000       30.26700000000000
C           24.08000000000000       80.82799999999999       29.93900000000000
C           23.56400000000000       82.15000000000001       30.25200000000000
C           22.76700000000000       82.52599999999998       29.22900000000000
C           22.81300000000000       81.44700000000000       28.23900000000000
C           21.94400000000000       80.28800000000000       26.30300000000000
C           21.12200000000000       80.18600000000001       25.13700000000000
C           21.28700000000000       78.97300000000000       24.59200000000000
C           22.27100000000000       78.27900000000000       25.37700000000000
C           23.90800000000000       76.54300000000001       25.68700000000000
C           24.62700000000000       75.36900000000000       25.23500000000000
C           25.79000000000000       75.16900000000000       26.10400000000000
C           25.72400000000000       76.28399999999999       27.02500000000000
C           26.59100000000000       76.47099999999999       28.04600000000000
H           27.48300000000000       75.84499999999998       28.06800000000000
C           24.96600000000000       80.15200000000000       30.68900000000000
H           25.13000000000000       80.49800000000000       31.70900000000000
C           22.04900000000000       81.40700000000000       27.12000000000000
H           21.48700000000000       82.29999999999998       26.84700000000000
C           22.77100000000000       77.04400000000000       25.09900000000000
H           22.24400000000000       76.42200000000000       24.37500000000000
C           27.27200000000000       78.86499999999999       32.37400000000000
H           28.21900000000000       78.33700000000000       32.61500000000000
H           26.51700000000000       78.62400000000000       33.15300000000000
H           27.46400000000000       79.95900000000000       32.35700000000000
C           28.41800000000000       76.43800000000000       30.59300000000000
H           29.36600000000000       76.89300000000000       30.23300000000000
H           28.26700000000000       75.46500000000000       30.07900000000000
H           28.48800000000000       76.28100000000001       31.69100000000000
C           23.73600000000000       82.82899999999999       31.60900000000000
H           24.75300000000000       83.27099999999999       31.67599999999999
H           23.61300000000000       82.08099999999999       32.42100000000000
H           22.98400000000000       83.63900000000000       31.72200000000000
C           21.94100000000000       83.79400000000000       29.02900000000000
H           20.91400000000000       83.75100000000000       28.63800000000000
C           22.48000000000000       84.98999999999999       29.33700000000000
H           23.50600000000000       85.05600000000000       29.72900000000000
H           21.90100000000000       85.91500000000001       29.20000000000000
C           20.21500000000000       81.31699999999999       24.67000000000000
H           20.77400000000000       81.97700000000000       23.97300000000000
H           19.88200000000000       81.91600000000000       25.54400000000000
H           19.33400000000000       80.89700000000001       24.14000000000000
C           20.61800000000000       78.35100000000000       23.33700000000000
H           20.69800000000000       77.26500000000000       23.18700000000000
C           19.95700000000000       79.01399999999998       22.42700000000000
H           19.83500000000000       80.10400000000000       22.50900000000000
H           19.51400000000000       78.49100000000000       21.56700000000000
C           24.21400000000000       74.52300000000000       24.03500000000000
H           24.21200000000000       75.15300000000001       23.12000000000000
H           23.19200000000000       74.11799999999999       24.19500000000000
H           24.93500000000000       73.68899999999998       23.89699999999999
C           26.86000000000000       74.11199999999999       25.93300000000000
H           27.58599999999999       74.44099999999999       25.15800000000000
H           26.39500000000000       73.15599999999999       25.60900000000000
H           27.40000000000000       73.96499999999999       26.89300000000000
C           28.25300000000000       82.00700000000001       25.61400000000000
H           28.05800000000000       82.75100000000000       24.81300000000000
H           29.14900000000000       81.41000000000000       25.34100000000000
H           28.43200000000000       82.54500000000000       26.56900000000000
N           26.60100000000000       80.31600000000000       24.72600000000000
H           26.97600000000000       80.30700000000000       23.79900000000000
C           27.06200000000000       81.09999999999999       25.75700000000000
C           25.58200000000000       79.58400000000000       25.18000000000000
H           24.97700000000000       78.92700000000001       24.55600000000000
N           25.43900000000000       79.78700000000001       26.47000000000000
C           26.33000000000000       80.75400000000000       26.85300000000000
H           26.36400000000000       81.11099999999999       27.87500000000000
O           22.61400000000000       77.73900000000000       28.93400000000000
H           21.78100000000000       78.16599999999998       28.73300000000000
H           22.73600000000000       77.06500000000000       29.50000000000000
78
 energy: -116.031410013908 gnorm: 0.107754435964 xtb: 6.7.1 (edcfbbe)
Fe          24.14344257036721       78.77769362239957       27.71175201175519
N           25.52474602143505       78.38991715175466       29.08792880646303
N           23.64075737859749       80.45628887450987       28.68827622170502
N           22.65827607909197       79.12583361475122       26.39049181661970
N           24.60696201068143       77.07631511034226       26.77351940773026
C           26.44955552158891       77.38799699103225       29.05316695058142
C           27.24505447859189       77.39606920704378       30.26697031283874
C           26.76838702268214       78.40949135226970       31.01114939808311
C           25.68971529382048       79.03899118594607       30.27553873007414
C           24.08061680168921       80.84536178318565       29.92347187997758
C           23.53351151091112       82.14744944120793       30.26578502890523
C           22.75168215446452       82.53460359443827       29.22213616972802
C           22.80836425118460       81.44616281407171       28.24752629891289
C           21.95797118323769       80.28271904587699       26.27324296363524
C           21.09975855757146       80.19281668944136       25.12078309536673
C           21.26726244730315       78.95774964206605       24.57235414264515
C           22.26598978893980       78.28649645031882       25.38116470887708
C           23.93313313163480       76.52453756074114       25.70413095051200
C           24.63866442751258       75.35326643413811       25.24291678293028
C           25.76252728288116       75.18735851234688       26.06123089197168
C           25.70494467966238       76.28290709676617       27.00003131196697
C           26.59276944499453       76.46916949846165       28.03666546831506
H           27.46782852568034       75.82990277269242       28.07213571147969
C           24.97567305964936       80.14771361765342       30.69405350041256
H           25.15067838934041       80.50367365889426       31.70287116994490
C           22.05330049329558       81.39732645291379       27.10400852456037
H           21.48276761498233       82.28139793860306       26.84494576220306
C           22.78610683957782       77.03807877722194       25.11413451968209
H           22.27690584898690       76.43197841048628       24.37149565396117
C           27.26779736672438       78.86433961676627       32.36934817152652
H           28.20167919879705       78.34852637036703       32.61128151201707
H           26.52707282814216       78.63288991577707       33.14245973279007
H           27.45621150907375       79.94228050675707       32.36007295684763
C           28.40082997625812       76.45136388676630       30.58479041346975
H           29.34426717840625       76.88892344366678       30.23632698880836
H           28.26342837804126       75.48547872161444       30.09021871690357
H           28.47797908707334       76.28553666386297       31.66469911945382
C           23.73380241444283       82.82548542595926       31.59679883077074
H           24.73768092915007       83.26261316225489       31.67399429188705
H           23.61421832541864       82.09786608750528       32.40767936057463
H           22.99636548493150       83.62508763379313       31.72041257162403
C           21.96828735817348       83.78648047009506       29.03829232751818
H           20.95295643662289       83.72706764426373       28.64452849875566
C           22.47963783090026       84.97798566304338       29.34165163069228
H           23.49110049876630       85.06403705663041       29.72033491615887
H           21.91223349327663       85.89440419028880       29.20407800123744
C           20.21078378282037       81.31652001782362       24.67164610277434
H           20.75874493556669       81.97101217744077       23.98157565711610
H           19.88280192520474       81.91087894186205       25.52894160601129
H           19.33101601775899       80.91627188778973       24.16318570998386
C           20.62614615118975       78.35881428955679       23.36023110772704
H           20.71768047271169       77.28149782456531       23.22566110283565
C           19.95971546977817       79.02000841168018       22.42711344123012
H           19.83883213605245       80.09251661633540       22.47354961873355
H           19.51861375528972       78.50352429171377       21.58001959000911
C           24.22319688393764       74.52803776127463       24.05240367938189
H           24.21326343031247       75.14184502408163       23.14148946582456
H           23.21359364801901       74.12174850676969       24.19407454329723
H           24.92104371647358       73.69969024102338       23.89863494005996
C           26.83433181217886       74.13559625978436       25.93006589986687
H           27.57129186401632       74.43556771420786       25.17133243349124
H           26.40200356637840       73.17749736358334       25.61716855902592
H           27.37572504768529       73.97481208458649       26.87157205577609
C           28.24848423596896       82.00567396215510       25.61059605369833
H           28.06546659491430       82.74497248075555       24.82206530116569
H           29.14043522878060       81.42611883162476       25.34568481127173
H           28.42991898215363       82.53279496441293       26.55099516341021
N           26.60233724834504       80.32910561529090       24.72517088514284
H           26.97491947890412       80.32070920412171       23.79177857625223
C           27.07782711762988       81.09222331579343       25.76125146505088
C           25.58782034414641       79.57879887724826       25.19293492747591
H           24.99127612527758       78.92574211687842       24.57676091584099
N           25.41906208304566       79.79399464894871       26.47674694494219
C           26.33107899594968       80.74174501810742       26.84928300101434
H           26.36319868572138       81.10216294603589       27.86116125751435
O           22.61564921590478       77.75409844797930       28.92254377410347
H           21.76789889785766       78.15548400461998       28.74230634194477
H           22.72594104547083       77.03990239096122       29.52220883515311
78
 energy: -116.044835571411 gnorm: 0.028592277530 xtb: 6.7.1 (edcfbbe)
Fe          24.13878573745760       78.78120656610081       27.70770563885433
N           25.52604913649268       78.38677715026367       29.08550905618929
N           23.64005436115464       80.46054537246913       28.68792137802623
N           22.67383368361854       79.12286091153385       26.38248580390865
N           24.60788937463302       77.07671112566783       26.76734050078131
C           26.45674721871075       77.39464038007725       29.04871556764119
C           27.25894900475524       77.40029669661710       30.25812531727226
C           26.77292194149049       78.41529979642937       31.02560295966786
C           25.69518021540366       79.02791245579967       30.27469361267061
C           24.08191018104508       80.85026021163073       29.91359704368899
C           23.52137358011706       82.13829781870177       30.27168279118565
C           22.74663677913478       82.53068085909986       29.21488306016239
C           22.80644030155723       81.43955464013207       28.25128496379994
C           21.97181448350935       80.27969020391771       26.24729742798407
C           21.09093493357483       80.20046859081994       25.10792758909595
C           21.25711729219704       78.95064639833180       24.55870282249768
C           22.26516816598404       78.29461051938856       25.38143272743536
C           23.94873281931903       76.52066403249482       25.71479795367938
C           24.64621006956678       75.34683373113157       25.24661092617923
C           25.74364583367816       75.20400172508278       26.03097674510978
C           25.69592861640325       76.28791829807598       26.98572641817672
C           26.59234663248873       76.46871885997636       28.02942891802257
H           27.44574661843457       75.80679832109932       28.08042443456535
C           24.98547467053162       80.14370729914124       30.69231986814299
H           25.18229340002173       80.51666429897729       31.68775077958943
C           22.05996638600419       81.38470929682397       27.08991760003176
H           21.47725272632687       82.25999355386070       26.84402730568281
C           22.80295253586820       77.04272645032545       25.12171350298604
H           22.32133352093910       76.44961918092615       24.35532289769899
C           27.26048162128635       78.86187439674887       32.36082719017886
H           28.18827511441841       78.35544183058443       32.61107079826944
H           26.52815439129490       78.64223821103916       33.13623694616333
H           27.44684338341853       79.93321665004771       32.36159268538521
C           28.38349087395134       76.47098943907106       30.57359953901025
H           29.33105534809816       76.88997373643156       30.23213218892679
H           28.24886644774785       75.50686000025811       30.09154110019939
H           28.46052446450260       76.30057099867466       31.64542870899902
C           23.72955574495037       82.81932732919033       31.58311289921405
H           24.72794081073346       83.25131006056334       31.65720899272228
H           23.61416918095270       82.10671475393835       32.39865434210724
H           23.00222217496321       83.61718532770365       31.71173149508619
C           21.99532783874837       83.76613543555357       29.04669066459648
H           20.99147402005953       83.68877897580391       28.64176045112934
C           22.48377127389744       84.96353791059822       29.34547915588910
H           23.48629063010072       85.07447436396816       29.71962405773207
H           21.91629704044486       85.87038209473367       29.21216600527844
C           20.20327398227227       81.31439153105454       24.67555532157155
H           20.73736819469740       81.96801225973874       23.98423087690937
H           19.88556977160675       81.90995907069849       25.52616108389493
H           19.31739864131233       80.92895776675576       24.18252799217027
C           20.63450263294517       78.37085281042482       23.39071209683153
H           20.73492485725836       77.29759120698245       23.27745183736086
C           19.97085463412051       79.02095942370815       22.43431948243460
H           19.85165122934827       80.08663457431540       22.43787840402791
H           19.53257277109733       78.49994252444321       21.59932451668792
C           24.22805190005463       74.53064784497806       24.06753916379046
H           24.21657520363792       75.14083237881559       23.16285925969150
H           23.22528483554100       74.12582577270521       24.20459867618377
H           24.91519381123556       73.70494493262682       23.90806974394204
C           26.81221391378979       74.15726709779840       25.92508312680401
H           27.55535024627036       74.44491885256588       25.17728404847436
H           26.38984254941131       73.20067488624773       25.62046673106391
H           27.33740827175345       74.00280760846648       26.86612343290036
C           28.24610621022803       82.00361994728817       25.61046488593660
H           28.06280282638149       82.73773883854058       24.82769270362934
H           29.13989802815014       81.43918468028856       25.34720806902363
H           28.42721184194045       82.52593292668388       26.54308179143570
N           26.60177347422546       80.33775268030070       24.72719216650174
H           26.96689505715719       80.33313494560353       23.78826966563379
C           27.08987790525544       81.08456122133187       25.76754129198176
C           25.59206302761411       79.57603232936299       25.20534121418466
H           25.00484728807411       78.91853757272382       24.59768294493463
N           25.41631871877570       79.79002992930165       26.48653183884444
C           26.33346203126682       80.73212662009776       26.84951655849647
H           26.37056338230014       81.09224505428163       27.85630813017489
O           22.62025114150447       77.76089400174401       28.92306611164554
H           21.74662235467064       78.12147604431094       28.76779596563752
H           22.70783868611617       77.02868640600855       29.53033803558556
78
 energy: -116.047731239105 gnorm: 0.018851314739 xtb: 6.7.1 (edcfbbe)
Fe          24.13357373937934       78.78060863512130       27.70602990202031
N           25.52663050928156       78.38866905684176       29.08143998478602
N           23.64194414005928       80.45648324804796       28.68685600459688
N           22.68454054270868       79.12907461366136       26.37427429860885
N           24.60745158876168       77.08138962628735       26.76272537061806
C           26.45825370649462       77.39979814773865       29.04326554806960
C           27.26137193654025       77.40869389493538       30.24888831984396
C           26.77557501516503       78.42147580707534       31.02125208979504
C           25.70029263465160       79.02980996793666       30.26859115330781
C           24.08593956946074       80.84672535510603       29.90996322383487
C           23.52422514068467       82.12853483301849       30.27016586161664
C           22.75153216886824       82.52069707355700       29.21141063951034
C           22.80978868582049       81.43363501744828       28.24957862895150
C           21.98211486401566       80.28618987430974       26.23732336145495
C           21.09433745771348       80.21228957071604       25.10596043600453
C           21.25946539451208       78.96031166205641       24.55716179612520
C           22.27068994806150       78.30576418897924       25.37625882907377
C           23.94784731860956       76.53052699668432       25.71205188378973
C           24.63826648180092       75.35095688013230       25.24308212208426
C           25.74386368170082       75.21641630679025       26.02279847344864
C           25.69618725563430       76.29677517998701       26.98274203196723
C           26.58971531962971       76.46883152349247       28.02758466534313
H           27.42649848812814       75.78635863558650       28.08993317555651
C           24.99752822578403       80.14696050165837       30.68614611313464
H           25.21716997960379       80.53640268436001       31.67098792068627
C           22.06710618708371       81.38242339387887       27.08514673661323
H           21.47426321845499       82.25234279057595       26.84689684702588
C           22.81284640827453       77.05725267198309       25.11207006166104
H           22.35694338851677       76.47396059351618       24.32245829938891
C           27.25444235787750       78.86575649503546       32.35942884065869
H           28.18059845062233       78.35903611922134       32.61736567401478
H           26.51721456709245       78.64982453493987       33.13280411460179
H           27.44103646888599       79.93809271963653       32.36391477567056
C           28.37941010012670       76.47738152850704       30.56501881594921
H           29.33037182942407       76.88868120254081       30.22192686178215
H           28.23663791872187       75.51209563066909       30.08661231616237
H           28.45124157514440       76.31311976644332       31.63820724823290
C           23.73136593557074       82.81581548347340       31.57484440384054
H           24.73087101697881       83.24605449797376       31.64104054531914
H           23.61621838764908       82.11010929161570       32.39683242255986
H           23.00521468563221       83.61581655190395       31.69833616368330
C           22.00840494218516       83.75291832994233       29.04460715791579
H           21.01173502134847       83.66513998601854       28.62635297558107
C           22.48324336121850       84.95387781105121       29.35401830087868
H           23.48497575572683       85.07944583629285       29.72830431183615
H           21.90799222696021       85.85416250471376       29.21962804266713
C           20.19103418615230       81.31879974789240       24.68749350656298
H           20.70417191284206       81.97238736302346       23.97895705726673
H           19.89129870120231       81.91916653700444       25.54220569054053
H           19.28919757894973       80.93349915115866       24.21988883049957
C           20.63715716002782       78.37241569212262       23.40120923177791
H           20.73037015941959       77.29517381491914       23.31856076824906
C           19.98427608211260       79.00740805911974       22.42512718686380
H           19.88934111089515       80.07859048448073       22.38093477249338
H           19.54200632414684       78.46876008197582       21.60446375319624
C           24.22033792118358       74.52953355783156       24.07173257321621
H           24.21039610753364       75.13892061846472       23.16760797198166
H           23.21914153378252       74.12506805527420       24.21444508039020
H           24.90892471806069       73.70386551872670       23.91651764536135
C           26.80561601584449       74.17029772289489       25.92299997271232
H           27.55262777700050       74.45545131722713       25.17970777352440
H           26.37766436660742       73.21660776643394       25.61984296387537
H           27.31425366491554       74.02472733120780       26.87241231864405
C           28.24385924923342       82.00385007348220       25.61353642870985
H           28.05164485932784       82.73649766571295       24.83142363575342
H           29.14312796738091       81.44921018165144       25.34612194951440
H           28.42535697345587       82.52672181177014       26.54587951204849
N           26.59999622648976       80.33744617539692       24.73393395735330
H           26.95455398008565       80.34173942155573       23.79069838842430
C           27.09482952381813       81.07745021513033       25.77596880729273
C           25.59579246757733       79.57018134480454       25.21667735043596
H           25.01465331488060       78.90354731514398       24.61405892139739
N           25.42263950624270       79.78135299517817       26.49824838812713
C           26.34320240028190       80.71985023119572       26.85938335369393
H           26.38840797784496       81.07697152260759       27.86667610514614
O           22.61587308939514       77.75940519393829       28.93970979771081
H           21.72074061064369       78.07618863683932       28.78977112629281
H           22.69356893609973       77.01122737437343       29.53251843067165
78
 energy: -116.049763432567 gnorm: 0.018410102323 xtb: 6.7.1 (edcfbbe)
Fe          24.13059933310399       78.78306992755525       27.70459430060025
N           25.52577781416025       78.38995143393336       29.07809010389051
N           23.64728331203262       80.45108279799133       28.68340321747414
N           22.69619695789525       79.13855779179002       26.36672546658793
N           24.60283073880754       77.08946520048823       26.76165228672984
C           26.45681474015171       77.40274383813328       29.03885095725785
C           27.26327605697874       77.41746153024593       30.23872961760626
C           26.78135470232304       78.42956124437663       31.01281940610720
C           25.70823446371368       79.03511036385440       30.26045476571661
C           24.09420597165867       80.84366030448528       29.90418635604846
C           23.53389810907639       82.12002923563411       30.26502156219435
C           22.76025422571309       82.51103406481982       29.20659083712378
C           22.81429583833033       81.42707004508753       28.24775576968099
C           21.99064183852652       80.29562329839749       26.22996363415075
C           21.10164605245509       80.22697085303444       25.10301911514109
C           21.26900933699468       78.97568575226022       24.55441298905649
C           22.28252923213867       78.32220574246392       25.36683762767371
C           23.94679161303942       76.54612101646801       25.70698737118461
C           24.63225732845478       75.36272041466822       25.23739459912655
C           25.73937631259438       75.22854121145716       26.01880053697965
C           25.69167506792975       76.30620227368323       26.98287288102989
C           26.58109925849289       76.46498412269186       28.02867132343157
H           27.40179546963130       75.76559958258159       28.09777599137086
C           25.01731499794359       80.15664104899268       30.67581011245002
H           25.26146458319342       80.56439415973915       31.64725974880833
C           22.07332326473683       81.38228566004327       27.08341109692199
H           21.47496852446143       82.24902095549871       26.85046708118547
C           22.83001101117539       77.08031161795891       25.09119454206563
H           22.40521777814902       76.50867536081020       24.27650890926940
C           27.24880159407581       78.87313656015503       32.35635054677207
H           28.17052900218917       78.36329160523559       32.62724876871338
H           26.49939905405699       78.66060671134464       33.12103206532861
H           27.43785004092157       79.94641402795126       32.36390989408461
C           28.37791214985605       76.48139612595814       30.55563050186027
H           29.33085721760269       76.88264959739061       30.20481032732242
H           28.22362589331508       75.51372913253327       30.08384183207974
H           28.44986162820975       76.32702640101947       31.63063249178630
C           23.73953864787782       82.81447781823545       31.56425752979546
H           24.74004354693318       83.24450534099482       31.62334495729432
H           23.62412129160771       82.11631904989072       32.39352216578554
H           23.01294816694099       83.61616204387875       31.67949852969115
C           22.01980420184051       83.74115933888369       29.03905876889104
H           21.03177690697604       83.64424203376701       28.60285409759233
C           22.47983075900506       84.94457879713831       29.36199054249969
H           23.47347291625392       85.08366043176508       29.75522713867386
H           21.89231962502667       85.83675863534577       29.22821165789492
C           20.17540648807874       81.31764834685544       24.69135617984603
H           20.65964811932817       81.97548036620648       23.96490796796839
H           19.88692052342627       81.92283758598028       25.54893056006136
H           19.27178777425696       80.91281495473109       24.24000710902409
C           20.63936036076490       78.37389737151187       23.41037420299732
H           20.70254796302219       77.29029056550813       23.36876769188937
C           20.00797135053060       78.99890483154971       22.41566606067133
H           19.91366222757580       80.06782444037330       22.35319055694597
H           19.55322569626008       78.44280138511449       21.61200108125722
C           24.21046302197276       74.53080544110573       24.07653649649109
H           24.19952600663092       75.13119243353560       23.16655961893411
H           23.20978610657620       74.12778925868717       24.22783379458738
H           24.89842649852602       73.70205910437562       23.92885995357265
C           26.79621841304960       74.18325191424630       25.92386664951717
H           27.55173074191063       74.46677503935264       25.18939580369531
H           26.36625361662702       73.23208893748676       25.61622658897398
H           27.28911872309304       74.04166696124572       26.88111730074313
C           28.24048803833937       82.00566780124372       25.61938504423903
H           28.03299791240032       82.73588441764585       24.83776985665044
H           29.14649284556895       81.46340336834277       25.34531157892065
H           28.42223862708398       82.53114047523523       26.55121398511387