78
 energy: -116.057518855605 gnorm: 0.000019675754 xtb: 6.7.1 (edcfbbe)
Fe          45.04019328448177       23.93197453711692      125.76158083529675
N           43.17190518296945       23.30240333605891      126.04837833594168
N           44.91499997929109       25.06422022425098      127.42031070142151
N           46.93520938111331       24.56184196270321      125.48741434135623
N           45.21261186761074       22.73719207496522      124.17780665958144
C           42.48112758404720       22.42804654242271      125.27490785376072
C           41.13391764613853       22.25298324199824      125.77496125138920
C           41.02959821563307       23.04408799190142      126.87486870606664
C           42.31529711374658       23.69080053837842      127.03089891800205
C           43.82980843828516       25.20276869235357      128.23165089990206
C           44.11687743475225       26.09813557080000      129.31888450891125
C           45.42011842444970       26.49195235991750      129.16453443113855
C           45.88803256508345       25.85485456172069      127.95034317022666
C           47.59015398509591       25.51351147269082      126.21161969584783
C           48.88513578463086       25.78530063417529      125.64539445366081
C           49.01064352684283       24.96234357134722      124.55598853726688
C           47.77061273407288       24.21762277712710      124.47335209675425
C           46.30797971770824       22.57180931521856      123.38991112009334
C           46.05195390465909       21.59158448855735      122.35564688647406
C           44.76936133529910       21.17918155083947      122.53269391957791
C           44.26193535676847       21.90883636604937      123.67536931082977
C           42.97981914066111       21.76775565638369      124.16827148650351
H           42.32133115678328       21.08184032176521      123.65766424811072
C           42.60889202759189       24.57320698474203      128.05108516737846
H           41.83083570396565       24.78670599547308      128.76833587519556
C           47.11504277195912       26.10729013724038      127.36768655545694
H           47.74709315462191       26.83553892921999      127.85069135914136
C           47.50073202977014       23.25926748531920      123.51213900487450
H           48.27559620968374       23.04034926126846      122.79344607311128
C           39.86830605160092       23.24947535087943      127.78656119522502
H           39.01195133989395       22.66522899346927      127.45910402662980
H           39.57746149674302       24.30024105113928      127.81060417017554
H           40.12137199726855       22.94598086720420      128.80262652746649
C           40.11680788474102       21.35768750847376      125.15492854224745
H           40.46283307777941       20.32400757631457      125.16349011311529
H           39.93397776398177       21.64431886595599      124.11907897270777
H           39.17503436446130       21.40743968702807      125.69608488948779
C           43.16645123402902       26.44997943043225      130.41096379551502
H           42.90074814337753       25.56408577554270      130.98880664176193
H           42.24780482921329       26.87172677703200      130.00174888000794
H           43.61163089195239       27.17556253769076      131.08701109104874
C           46.17394780372917       27.36015407730054      130.04493055734525
H           45.61011491177087       28.17776538872457      130.48163383743582
C           47.45024263026814       27.20876783235362      130.38052825162879
H           48.04371528287486       26.38529824369529      130.02104305947205
H           47.94177715364260       27.89527921490128      131.04978837087651
C           49.83912978012422       26.81351846664081      126.14441785512774
H           50.43936093259848       26.42278765977762      126.96806616872124
H           49.30504215923255       27.69138481214743      126.50458758211961
H           50.51195293667858       27.11719442709331      125.34485615069937
C           50.10843307610663       24.83826593676044      123.62317282745576
H           49.83081974892014       24.59236809166075      122.60459875954939
C           51.39535837870899       24.98993443064225      123.91909183420317
H           51.73454291905785       25.18680809027493      124.92095668992590
H           52.16079498669176       24.89524945703653      123.16677145905523
C           47.04899838951525       21.17001841334054      121.33119643463280
H           47.94651373301574       20.77689224653892      121.80891421763957
H           47.34102394658358       22.01567830271593      120.70745416375665
H           46.63758442926926       20.39705369305495      120.68683519689500
C           43.98122514056525       20.18217575423344      121.75481473563767
H           44.57692245390495       19.76131862506540      120.94847267582126
H           43.09612161158525       20.64782673218946      121.32063617103962
H           43.65257670672677       19.36775643745755      122.40049734236121
C           44.28634255640698       27.72289678131072      121.74341414267705
H           44.50644609015843       28.76325844589661      121.98250763417110
H           43.35833981491857       27.69329246339401      121.17248413796689
H           45.08797276417108       27.33108531935530      121.12535619843557
N           43.24107350885679       27.17545729583028      123.95225661124833
H           42.56417405045978       27.92041001634685      123.93130568529091
C           44.17064947049187       26.91069024100873      122.98092588988547
C           43.40268185861125       26.26040231155869      124.93449163609171
H           42.80974113302322       26.22387887490892      125.82502909573610
N           44.37715425230090       25.43291731800421      124.64414063921599
C           44.86418556842629       25.82437487278889      123.43166163527199
H           45.67557705072427       25.30280471177061      122.96824512817021
O           45.92409356545044       22.30232120928536      127.11461784033060
H           46.83888487893315       22.31245110119686      126.81287829313844
H           45.90028959272595       22.75912170057986      127.96257584230571
