78
 energy: -116.058077916158 gnorm: 0.000077122438 xtb: 6.7.1 (edcfbbe)
Fe          -5.60146624975881       56.90283970875508       20.80923449230858
N           -6.37053771450500       55.98374245071182       22.42714172868008
N           -6.46121361818133       58.62910480231552       21.39946903912373
N           -4.79485536384056       57.83599268334877       19.24350194725395
N           -4.71270700436374       55.20345117270237       20.27283530896187
C           -6.24864818459755       54.66936919109567       22.75322467656045
C           -6.98080958425955       54.37256380807876       23.96316827799341
C           -7.55350326766966       55.54086746968736       24.36142289995265
C           -7.16619035230199       56.53512861882569       23.38646627599983
C           -7.24399860303473       58.82578842075822       22.49877899787445
C           -7.72084405920376       60.18218324246640       22.55202253716672
C           -7.21980627622676       60.81078296538995       21.44126433997330
C           -6.42882997857026       59.81836286269684       20.74214359443722
C           -4.97431508715391       59.13624947365240       18.88464321373464
C           -4.25008715065057       59.44000744697420       17.67540328572340
C           -3.62241053778419       58.28182427998901       17.30331280108364
C           -3.97791524365947       57.29565716731016       18.30658586118016
C           -3.91261290604070       55.01089275985284       19.19314531427405
C           -3.46689815979850       53.63523450291017       19.12284642609300
C           -4.02204413474939       53.00114448686558       20.18865187103448
C           -4.79786982926926       53.99888181463050       20.89484022867315
C           -5.51573860780884       53.73537588391159       22.04514271150651
H           -5.50106177095519       52.72458139864304       22.42288557010631
C           -7.56842033029681       57.85596226541077       23.43406775433256
H           -8.20760147927207       58.14905558794442       24.25291236665405
C           -5.74727921670082       60.05957811113054       19.56521652299194
H           -5.82530963984926       61.04847653485578       19.14035562924447
C           -3.56437074644955       55.97696763371931       18.26920987689453
H           -2.92500299041493       55.67575730229234       17.45338791343275
C           -8.41450014538679       55.81530247134094       25.54693122320807
H           -7.95775345073152       56.57051879383147       26.18728937465708
H           -8.56112976623212       54.91273582005419       26.13493106013470
H           -9.39250046780048       56.18400156626005       25.23587970175537
C           -7.04695809314541       53.02510559623958       24.59604398969709
H           -6.04934377731005       52.68116608126925       24.87013707472869
H           -7.47614938606779       52.29876704092696       23.90561442516028
H           -7.65962305343630       53.04800485472325       25.49399917918134
C           -8.53563754047533       60.76280342264529       23.65520691640011
H           -8.23103764280989       60.35333479979138       24.61733099801068
H           -9.59587197157499       60.54379658410321       23.51612065612088
H           -8.41019029563711       61.84337456200714       23.68167051747850
C           -7.37945359477312       62.18462752444965       21.01993280525072
H           -6.53162582523147       62.61623851049092       20.50073537020346
C           -8.46284134323107       62.93061232180350       21.21093984995282
H           -9.35203013458465       62.54297870228095       21.67666991754915
H           -8.50597024102085       63.95519846884710       20.88060127315488
C           -4.16737268803861       60.78367251717160       17.03946352498863
H           -4.10028585888220       61.56444121652644       17.79566275684477
H           -5.04986566855784       60.98063733042356       16.42833200776850
H           -3.28753166915669       60.84094413215204       16.40194951079473
C           -2.74925643459868       58.03389797891698       16.17738211503629
H           -1.95002269474687       57.32327946463366       16.35335737059587
C           -2.86015530558872       58.59418031150015       14.97724980496517
H           -3.66099445059629       59.26997711210500       14.73231666141657
H           -2.16286413180349       58.37400652250737       14.18587489446961
C           -2.57113344944405       53.09512662948158       18.06150936317809
H           -1.61493250207409       53.61859129277106       18.06637776440171
H           -3.02136822853089       53.22279858455290       17.07669868211478
H           -2.38194245046476       52.03577541605478       18.21671225976305
C           -3.89956138027621       51.57718452605818       20.61092593484595
H           -3.26830481621103       51.02228991015065       19.92129333256128
H           -4.87936730417954       51.09972537465061       20.63948956681135
H           -3.46120654315062       51.50941531561183       21.60684430353115
O           -3.83494341613846       57.48485892927749       22.15269181538909
H           -4.04881735814634       56.95850628767128       22.93082548715295
H           -4.07460855382932       58.39629044007268       22.35284339530258
C           -9.14282708939876       55.30131260710765       16.81390017417923
H           -9.78451698718081       56.06218529970621       16.36980935383181
H           -9.74258872992263       54.40758014777877       16.98587142943537
H           -8.35173974203064       55.05989311761586       16.11102368768367
N           -9.30930718928569       56.17573194692668       19.15469669212790
H          -10.31531856788316       56.17154375879028       19.19315613719246
C           -8.54723322667368       55.78966121362439       18.08326330243084
C           -8.46663666376354       56.56346261454608       20.13819716197755
H           -8.78545923081875       56.91662737630256       21.09694527060632
N           -7.21855885564052       56.44619286933528       19.75513866402915
C           -7.25223728909089       55.96541386612516       18.47895362182447
H           -6.34907670708260       55.78040472186309       17.93492815685685
