78
 energy: -115.981853395980 gnorm: 0.266232143012 xtb: 6.7.1 (edcfbbe)
Fe          28.20000000000000       91.96599999999999       52.27300000000000
N           29.01000000000000       93.77399999999999       51.81100000000000
N           29.26600000000000       92.00500000000000       54.00600000000000
N           27.08599999999999       90.44100000000000       53.00500000000000
N           26.91800000000000       92.16300000000000       50.72299999999999
C           28.77800000000000       94.48999999999998       50.65200000000000
C           29.61400000000000       95.66400000000000       50.63000000000000
C           30.40100000000000       95.61400000000000       51.72599999999999
C           30.01200000000000       94.44700000000000       52.47400000000000
C           30.24800000000000       92.89799999999998       54.37900000000000
C           30.90600000000000       92.44199999999999       55.57800000000000
C           30.31400000000000       91.27900000000000       55.93900000000000
C           29.26900000000000       91.01900000000001       54.97299999999999
C           27.35800000000000       89.68700000000000       54.12499999999999
C           26.32500000000000       88.69000000000000       54.30600000000000
C           25.46700000000000       88.81200000000000       53.26199999999999
C           25.98999999999999       89.85599999999998       52.40700000000000
C           25.88800000000000       91.30700000000000       50.39500000000000
C           25.42900000000000       91.58900000000000       49.05200000000000
C           26.12400000000000       92.66500000000001       48.60899999999999
C           27.01300000000000       93.05599999999998       49.68000000000000
C           27.86600000000000       94.14799999999998       49.65600000000000
H           27.81900000000000       94.79600000000001       48.78099999999999
C           30.59200000000000       94.04000000000001       53.66999999999999
H           31.38000000000000       94.66900000000000       54.08400000000000
C           28.38300000000000       89.94699999999999       55.02700000000000
H           28.50400000000000       89.24600000000000       55.85300000000000
C           25.44300000000000       90.24800000000000       51.18700000000000
H           24.59100000000000       89.67600000000000       50.81799999999999
C           31.50300000000000       96.59599999999999       52.10199999999999
H           31.18400000000000       97.19099999999999       52.98500000000000
H           31.69600000000000       97.28599999999999       51.25300000000000
H           32.43000000000000       96.04000000000001       52.35800000000000
C           29.58000000000000       96.74799999999999       49.56800000000000
H           28.55300000000000       96.82800000000000       49.15200000000000
H           30.28200000000000       96.49100000000000       48.74600000000000
H           29.86300000000000       97.72299999999998       50.01799999999999
C           32.04200000000000       93.16800000000001       56.29700000000000
H           31.94000000000000       94.26300000000001       56.14000000000000
H           33.01900000000000       92.83499999999998       55.88700000000000
H           31.99400000000000       92.95399999999998       57.38600000000000
C           30.62000000000000       90.47699999999999       57.05100000000000
H           29.79200000000000       89.98699999999999       57.58300000000000
C           31.94800000000000       90.23199999999999       57.56999999999999
H           32.82700000000000       90.68800000000000       57.09100000000000
H           32.09400000000000       89.58700000000000       58.44899999999999
C           26.20600000000000       87.76100000000000       55.52200000000000
H           26.61700000000000       88.27000000000000       56.42000000000000
H           26.78300000000000       86.82899999999999       55.34000000000000
H           25.13800000000000       87.51600000000001       55.70400000000000
C           24.25400000000000       88.12799999999999       53.04399999999999
H           23.42100000000000       88.70099999999999       52.61400000000000
C           23.97000000000000       86.73600000000000       53.32399999999999
H           24.74400000000000       86.08400000000000       53.75600000000000
H           22.97700000000000       86.31399999999998       53.10799999999999
C           24.39700000000000       90.77300000000000       48.27400000000000
H           23.39300000000000       90.91500000000001       48.72800000000000
H           24.66200000000000       89.69499999999998       48.31600000000000
H           24.36700000000000       91.11600000000000       47.21800000000000
C           25.99800000000000       93.34500000000000       47.22700000000000
H           24.96100000000000       93.22499999999999       46.84800000000000
H           26.70100000000000       92.87000000000000       46.50999999999999
H           26.22500000000000       94.42899999999999       47.32000000000000
O           26.74200000000000       93.45200000000000       53.57500000000000
H           27.05800000000000       94.34099999999998       53.41300000000000
H           26.05700000000000       93.22400000000000       54.09499999999999
C           30.49500000000000       88.31899999999999       48.68400000000000
H           30.65100000000000       87.29200000000000       49.07800000000000
H           31.38900000000000       88.61799999999999       48.09600000000000
H           29.59400000000000       88.32299999999998       48.03400000000000
N           31.24400000000000       89.47499999999999       50.80900000000000
H           32.13100000000000       89.01500000000000       50.84799999999999
C           30.29900000000000       89.27000000000000       49.82700000000000
C           30.79000000000000       90.36499999999999       51.67500000000000
H           31.33800000000000       90.70999999999999       52.55100000000000
N           29.58500000000000       90.74500000000000       51.28999999999999
C           29.25500000000000       90.07599999999998       50.13700000000000
H           28.30500000000000       90.23699999999999       49.64399999999999
78
 energy: -116.035654435118 gnorm: 0.098070964304 xtb: 6.7.1 (edcfbbe)
Fe          28.15535036652582       92.01032943308418       52.32043893791498
N           29.03363314741116       93.76354192707289       51.78918334133832
N           29.28402828232035       91.99057126645495       54.00691179052274
N           27.10295827897347       90.41445148588267       52.98759598774159
N           26.91908582388835       92.15610044438964       50.71663707751499
C           28.77555156463826       94.48989414525887       50.65431246875960
C           29.61151852475430       95.66728553835229       50.62328133596323
C           30.40323716864587       95.61948191100039       51.72726211093127
C           30.01953439766622       94.43769478175903       52.46199039085209
C           30.25516154002715       92.88844098151196       54.37021173415758
C           30.91768381286314       92.44989447070795       55.57242054832942
C           30.32706825829460       91.27283849481715       55.94381078323379
C           29.27552218695705       91.01715031047472       54.97018345784370
C           27.34999886284195       89.69784212241885       54.13078333731720
C           26.33419147795683       88.68573445372127       54.31502185270271
C           25.46739521490892       88.79544774897897       53.25979567800542
C           25.98218590044914       89.86887772619491       52.41813571548665
C           25.91165550785439       91.28824064175687       50.38348123582104
C           25.42642735019951       91.58401476743443       49.04932471214320
C           26.11928496015086       92.66931161959009       48.60658075688465
C           27.02588220570338       93.04032934310410       49.67464596998982
C           27.86901294541588       94.14087490369894       49.66061866516124
H           27.82095991340806       94.78765088678148       48.79111698770618
C           30.58810246621355       94.03503127843959       53.66191579227822
H           31.37014325303069       94.66348425267832       54.07488213021055
C           28.38627119526466       89.95224814238262       55.02263718418659
H           28.50382625399146       89.25624080628216       55.84651459701013
C           25.44962084856298       90.25159306082892       51.19143115986192
H           24.60161744742984       89.68244024234868       50.82316650531488
C           31.49101540394369       96.58867820023278       52.10650132402547
H           31.19170667122584       97.18377298150423       52.97781953202200
H           31.69445377697147       97.26979647442968       51.27378609875993
H           32.41352532275865       96.05166304801187       52.35398287775428
C           29.57727703643214       96.73902908217549       49.57082234161346
H           28.56912738147585       96.83071594711295       49.15461957944758
H           30.27051712141098       96.49948624112652       48.75531848817420
H           29.85931419605201       97.70448613243416       50.00419731871873
C           32.03059572425547       93.17023301287142       56.28599901522878
H           31.94319993957441       94.25164039029380       56.14255551355565
H           33.00308603860337       92.84632573431098       55.89543929298912
H           31.99457300514363       92.95334186974142       57.36017695702730
C           30.65218663471472       90.45965305978244       57.07178360302429
H           29.82274537184456       89.97128350438274       57.58251906486620
C           31.90634378126889       90.24444388531876       57.56151286730815
H           32.78470104646590       90.67354778726984       57.09168445610232
H           32.06990963176390       89.60717448274887       58.42353815847311
C           26.21248676009087       87.77372167245727       55.51149910667434
H           26.61100913228550       88.26190094875621       56.40697200255954
H           26.77346099625449       86.84612663664275       55.34442289793113
H           25.16110705934432       87.52041302282296       55.69096110449036
C           24.24170904166967       88.08847510800773       53.04004168481435
H           23.42644785218996       88.66903094621040       52.60700704962157
C           23.97948216794994       86.78068609921677       53.32339136319277
H           24.73414754052711       86.12008241574884       53.73628681998370
H           23.00660660594096       86.34768901231610       53.11327547321523
C           24.40276564248812       90.78050662846448       48.28752004834826
H           23.40571144663211       90.90979410295328       48.72486138237191
H           24.65623668197964       89.71459093972720       48.31485852247397
H           24.36763665814252       91.10608200695627       47.24279298315321
C           25.99855563432263       93.33923811466579       47.25038488161513
H           24.98098340764121       93.22877414191296       46.86000433655756
H           26.69019899157543       92.88168549320419       46.53137784483870
H           26.22344635483011       94.40799292207174       47.32008648935572
O           26.76023675239352       93.44352758410083       53.54718842328256
H           27.05288937504715       94.34343376084927       53.41845104942208
H           26.03964682978124       93.22353249459182       54.10899578329770
C           30.49813409952542       88.32074839673803       48.69123950584755
H           30.65138324330302       87.30218578959330       49.06711838631897
H           31.37479528406756       88.60845328519332       48.09908069530326
H           29.61426883148420       88.32536560681255       48.04740556994696
N           31.24134941039104       89.47102957566582       50.80036424565974
H           32.13444024289773       89.00982412144054       50.84314897816223
C           30.29860797536825       89.26945349407393       49.82511572870520
C           30.76561112721973       90.37517738597641       51.67111916943455
H           31.31139091949599       90.71389485411056       52.53697870672800
N           29.55854750812248       90.76654888817461       51.30681247480264
C           29.25687097786819       90.08577301137940       50.15312195879449
H           28.31664820891649       90.23895251800947       49.65756659882217
78
 energy: -116.045723497906 gnorm: 0.039086497211 xtb: 6.7.1 (edcfbbe)
Fe          28.13202017701955       92.03759390322818       52.34901852670345
N           29.04308890799122       93.75423607369601       51.77768038231885
N           29.28812799596335       91.98468138000069       54.00662678628487
N           27.10026319469885       90.42322861195531       52.99331898021159
N           26.92386128635085       92.14956746614213       50.71665931567375
C           28.77858007879366       94.48000715533524       50.65498082273568
C           29.60780859795591       95.66467835365015       50.61919345778242
C           30.40189855650918       95.61759034577130       51.72596722943695
C           30.02615789261854       94.42182174995897       52.44749668768186
C           30.26053742654581       92.87553267421708       54.35607983563957
C           30.92343830036831       92.44973543665215       55.56245512688402
C           30.33097780030283       91.26970108069645       55.93885643861255
C           29.28328622284040       91.01476475826431       54.95933706460062
C           27.34592753309784       89.71413115975790       54.13243742252742
C           26.33947914814238       88.69566118264422       54.31958667991001
C           25.47291320354206       88.80118657868765       53.25915737062377
C           25.98874375877121       89.88153533146597       52.42534881396206
C           25.93448313998966       91.27470191755803       50.38059198317816
C           25.43389789778026       91.57411022358332       49.05236876096482
C           26.12177857436444       92.66609215907511       48.61193091367250
C           27.03784689427992       93.02496383105739       49.67720897013959
C           27.87571644797962       94.12781159109743       49.66380835890960
H           27.82316773635521       94.77544058530005       48.79964590984964
C           30.59029189446299       94.02166562886940       53.64668309065568
H           31.36377972440491       94.65357465773290       54.06083659967688
C           28.39358754113512       89.95484595306729       55.01338627477909
H           28.50329750463607       89.26679306558594       55.84054273913166
C           25.46511824510413       90.25112555713787       51.19392779926165
H           24.61690231143938       89.68655476609686       50.82925129515518
C           31.47771834261821       96.57854070906049       52.11287709420250
H           31.18794765124347       97.17046960717821       52.98091379703963
H           31.68747059056186       97.25779680597461       51.29055816577934
H           32.39726329084248       96.04947893624590       52.35645844908947
C           29.57327469538843       96.72838354539081       49.57206697933193
H           28.57504192480679       96.82758891151224       49.15454394241281
H           30.26214340681496       96.49727480492680       48.75935503334804
H           29.85897621968992       97.68853702066420       49.99623081769487
C           32.01963744167788       93.17112243155339       56.27090342264028
H           31.93605669969769       94.24641481733924       56.13739998382887
H           32.99414119005221       92.85906649335796       55.89278490102852
H           31.98712582580505       92.94905349668967       57.33643062209504
C           30.66295895972782       90.44469754023483       57.07808046626766
H           29.82750967124866       89.95633055984644       57.56879168821499
C           31.87552165982327       90.24053544857142       57.54771712286318
H           32.75344033248575       90.66500248022115       57.09228614967989
H           32.05046936599042       89.62482703825549       58.41410511841460
C           26.22131051040345       87.78777978054507       55.49765826589785
H           26.61097884324695       88.26302094523399       56.39481860809173
H           26.77500485693313       86.86193954990037       55.33852835655475
H           25.17754792379005       87.52926250594922       55.66936588014399
C           24.24115753161785       88.07605626338298       53.02804152299305
H           23.44243093483633       88.66255012753672       52.58314524501532
C           23.99859425072283       86.81321046026511       53.30899767231843
H           24.73834658170135       86.15158336221941       53.72523007745832
H           23.03057676845533       86.37418958571743       53.12641190534757
C           24.40966601143288       90.78373129183343       48.30585006598805
H           23.41787570931408       90.90912623281702       48.73921961297309
H           24.65531518208361       89.72330879777826       48.32612988256790
H           24.36970908423389       91.10193558164394       47.26702946942670
C           26.00103443950334       93.33486979759013       47.27943297433295
H           24.99294584587019       93.22724537319338       46.88381898487192
H           26.69071798908922       92.88673410697882       46.56185704025512
H           26.22640753756233       94.39583281175084       47.34127398768235
O           26.75061729922230       93.42609316995441       53.49292488374604
H           27.03833749567447       94.34130160161391       53.44297334119187
H           26.05109294107030       93.22337666396787       54.11540623277659
C           30.49710377829434       88.32602973906000       48.69872169148679
H           30.65133752839447       87.31276219581603       49.06742129977239
H           31.36620298553617       88.60828820195572       48.10601131512941
H           29.62272061355491       88.33052352526690       48.05703037318216
N           31.23536829251351       89.47502359581229       50.79981477234421
H           32.13173315920376       89.01616999786586       50.84866517359506
C           30.29390393013591       89.27281598232183       49.82634961025436
C           30.74213399756513       90.38514771201916       51.66944086164031
H           31.28137131440834       90.72388298876294       52.53035213506411
N           29.54089421408252       90.77745687822647       51.31137459306859
C           29.25304008906646       90.09109520420064       50.16332056412475
H           28.31884709856207       90.23620214351135       49.66349620980861
78
 energy: -116.048400872871 gnorm: 0.040351615291 xtb: 6.7.1 (edcfbbe)
Fe          28.12532288596022       92.04907084411761       52.35565391291787
N           29.05287217958028       93.74239742225153       51.76729741273256
N           29.29039906329625       91.98128123820071       53.99760547530313
N           27.10535681179746       90.43341384045972       52.99441494405078
N           26.93430935041667       92.14361413046767       50.71758370788430
C           28.78494900266303       94.47007146394449       50.65038551215826
C           29.60924057882713       95.65800398292185       50.61451276224806
C           30.40259817576978       95.61063746481604       51.72138262802368
C           30.03301406808785       94.40933520849886       52.43626246620856
C           30.26630158797268       92.86605478186289       54.34250103914806
C           30.92714695709216       92.44271336457253       55.55031768476503
C           30.33075821697478       91.26524428554420       55.92710846913833
C           29.28631456448612       91.01343581205722       54.94891205747970
C           27.34488802644573       89.72725880508450       54.13341067353777
C           26.34193681225991       88.70691956500475       54.31676027112444
C           25.48097177344843       88.81375926844640       53.25355292390640
C           25.99736173108840       89.89281512526129       52.42659172078567
C           25.95026374489606       91.26802061913769       50.38141063670397
C           25.44461702555958       91.56570597132111       49.05732973647063
C           26.12879448104172       92.65933901780788       48.61884751465912
C           27.04864760958383       93.01493598216767       49.67962704575054
C           27.88300357965923       94.11813279023330       49.66124349487611
H           27.82753719321639       94.76507142712353       48.79821633124746
C           30.59755965268594       94.01061532081721       53.63354383317002
H           31.37025633986870       94.64238674850863       54.04607764910577
C           28.39363459514358       89.95933759821695       55.01135473671783
H           28.50262392802781       89.27248667571455       55.83812681677227
C           25.47568060676893       90.25174074857981       51.19460938286633
H           24.63099915686265       89.68431611679577       50.82988046571458
C           31.46992806826753       96.57119241501991       52.12186516955287
H           31.17562236609833       97.15507875001101       52.99350496797415
H           31.68255307943064       97.25663499588066       51.30626791186243
H           32.38893460138680       96.04230605536148       52.36594491058613
C           29.57148852377692       96.71948349357140       49.56794346086537
H           28.57320485063555       96.82165183687883       49.15206739953869
H           30.25754858752629       96.48785865153526       48.75332647336867
H           29.86138012523194       97.67878084020532       49.98990586723804
C           32.01420007796523       93.17257916651216       56.25882239120038
H           31.92083074178820       94.24755621386534       56.12960562914273
H           32.99323410645545       92.87351899288737       55.88223872811583
H           31.98132817448294       92.94493673516683       57.32231620360157
C           30.64958174661244       90.43660494251542       57.07204577206586
H           29.80912455266306       89.94316722573687       57.54844096831501
C           31.86791802407597       90.24384020309249       57.55758463604986
H           32.74605606443012       90.65787173526270       57.09483138443447
H           32.04391836296976       89.62182600426205       58.41832803573679
C           26.22720975811075       87.79700357024720       55.48894348189841
H           26.61088341803283       88.26947762866116       56.38991595569985
H           26.78590512697694       86.87485346595234       55.32865264358655
H           25.18424798776566       87.53262114830275       55.65208289003976
C           24.24799858074406       88.08963509142281       53.01130845445820
H           23.45840401622732       88.67417906043295       52.54920890990167
C           24.00602055133376       86.82264793425392       53.31855501501234
H           24.75376643456099       86.16565506245709       53.72514021360141
H           23.04585350290534       86.37306580160178       53.12591447387972
C           24.41252598588392       90.77986726675964       48.32328440173633
H           23.42562187771086       90.90895506129424       48.76584172973557
H           24.65387693487613       89.71884777932827       48.34253028689999
H           24.36502640398265       91.09696662902066       47.28508182139276
C           26.00547300553520       93.33594619958214       47.29704216829533
H           24.99799621143153       93.22834099406090       46.90219268760136
H           26.69810940402248       92.89396066675610       46.57909505243215
H           26.23009251186370       94.39587153798080       47.36746556892711
O           26.67848560711309       93.42656619067949       53.39571317329874
H           27.04151045231540       94.33899455482492       53.49794984940332
H           26.08151252530173       93.21649584035924       54.15110270069437
C           30.49556808416673       88.33272880358270       48.70666286762602
H           30.65185214375037       87.31996706803052       49.07479103906621
H           31.36436316648989       88.61559992011615       48.11446640915958
H           29.62315201870471       88.33572827299663       48.06329288833009
N           31.22577756394810       89.48626172523673       50.80710556253261
H           32.12408150642573       89.03180396526547       50.86034649177819
C           30.28634094692782       89.27931141756113       49.83182905371344
C           30.72263299943420       90.39635739236846       51.67356954061146
H           31.25499583112061       90.74093208127113       52.53499190532412
N           29.52355641901396       90.78071290103675       51.31265326317239
C           29.24173224789620       90.09336972007907       50.16684021687678
H           28.30921502214910       90.23127137077488       49.66286806819801
78
 energy: -116.049536435751 gnorm: 0.028131076476 xtb: 6.7.1 (edcfbbe)
Fe          28.12321462581967       92.05530139910731       52.35578912646640
N           29.06070110856101       93.72890162290567       51.75872596518248
N           29.28695811779195       91.98199489918207       53.98912540970414
N           27.10908772611218       90.44951314019762       52.99853366026979
N           26.94849381352183       92.13665298775626       50.72017572481150
C           28.79214993053571       94.45854739163558       50.64540386565692
C           29.61186089447310       95.64905427932494       50.61012116662492
C           30.40391501436636       95.60109417539977       51.71610164197395
C           30.03922847128325       94.39648520839532       52.42608523126699
C           30.27227117517823       92.85699776654283       54.32888069226532
C           30.93391662707377       92.43177983625949       55.53488436647310
C           30.33252967601948       91.25847726989315       55.91154941549407
C           29.28722185860124       91.01347073836426       54.93950700579202
C           27.34378323536739       89.74152512935548       54.13558514054325
C           26.34463236699568       88.71844401956541       54.31281953607373
C           25.49043289526901       88.82785673666534       53.24723536686653
C           26.00548298099850       89.90666870840094       52.42917092667741
C           25.96543317568812       91.26340370844150       50.38526382768342
C           25.45614545761478       91.55796853769576       49.06507682856724
C           26.13649120548363       92.65217072215160       48.62827802098948
C           27.05962219347623       93.00563506986171       49.68407520150519
C           27.89116361775284       94.10821695032467       49.65762919815133
H           27.83304936340194       94.75400537222490       48.79473440546058
C           30.60771884680267       93.99872563140553       53.61987331926877
H           31.38458509738049       94.62723633845330       54.02753006849336
C           28.39227584135444       89.96412011050126       55.01172833311159
H           28.50383117568187       89.27561799275864       55.83569464432329
C           25.48524215232552       90.25313955205273       51.19636567750640
H           24.64591751687081       89.68032840937362       50.83027514425980
C           31.46312175119687       96.56281732552736       52.13318615128318
H           31.15923819718586       97.13517351983212       53.01091702582600
H           31.67801326251374       97.25881519210738       51.32574031016837
H           32.38251827529956       96.03297980937842       52.37881160957213
C           29.56979637750020       96.70923895943538       49.56268042330227
H           28.56847336397853       96.81400271010843       49.15129513949454
H           30.25129103923411       96.47369005816444       48.74369053189903
H           29.86581270854059       97.66872013733189       49.98274535343074
C           32.01307663681275       93.17233707315214       56.24416831797526
H           31.90250761986241       94.24813177469734       56.11984746236084
H           32.99739050044042       92.89047686999437       55.86455306396433
H           31.98121578679179       92.93723587417904       57.30685844386037
C           30.63435933935376       90.42468733328101       57.05786571027413
H           29.78998408220551       89.92800940374991       57.52347351815668
C           31.86190116958526       90.23673650327521       57.56066288065186
H           32.73813269836799       90.65831323339654       57.10091257933746
H           32.03238090872466       89.61718736609703       58.42499364948548
C           26.23447739690026       87.80421724128821       55.48113804504585
H           26.61144446379075       88.27683404336058       56.38642639551533
H           26.80309915777632       86.88758125780593       55.31716213909456
H           25.19134893345975       87.53163349998252       55.63531321655339
C           24.26010920886266       88.10667985444920       52.98975890809117
H           23.47695743362381       88.68582879500947       52.51139213915536
C           24.01918573558970       86.82963724498487       53.31707171657333
H           24.77219944107713       86.18728082689758       53.73737366279875
H           23.06124918224956       86.37423505634995       53.12516002899313
C           24.41288881921483       90.77477421072477       48.34514378184940
H           23.43230024039860       90.91024010877395       48.80286859660511
H           24.64985856908080       89.71158670925666       48.36476313191351
H           24.35392095359111       91.09147848377501       47.30631850953157
C           26.00908079838203       93.34038734010421       47.31466235745904
H           25.00060236788213       93.23178692323999       46.92127992316864
H           26.70611184250973       92.90718965554211       46.59414529282721
H           26.23058871185171       94.40107323675407       47.39961275213672
O           26.70735783904407       93.41549672279307       53.44004126389658
H           26.98869873805416       94.32433463738907       53.46395540048049
H           26.06755567365775       93.22723546633591       54.12606650163607
C           30.49240381376144       88.34163246425692       48.71423277427999