78
 energy: -116.058077835142 gnorm: 0.000068493155 xtb: 6.7.1 (edcfbbe)
Fe          28.06471132174302       92.05765748163874       52.33623488280595
N           29.03721922231799       93.71350794544351       51.73126885654849
N           29.21809567600344       92.00182207329757       53.98941661688461
N           27.06783647179819       90.45347635566397       52.97347625515651
N           26.89683201058496       92.16204913987895       50.72654488761998
C           28.83535393714357       94.40165749131900       50.57604744970566
C           29.76028012500680       95.50690076653892       50.47083338289764
C           30.53158898840788       95.46970780508883       51.59120798600254
C           30.06947690622778       94.33913123789250       52.36405778802477
C           30.22557622723810       92.85939102953817       54.32030031419182
C           30.85481213617135       92.45996171530953       55.55097163901557
C           30.21312836892061       91.31922991834244       55.95940305222324
C           29.18833188707202       91.05961669117930       54.96860640062999
C           27.31747267830626       89.72846692319062       54.09758632306728
C           26.40110382922492       88.62076587633281       54.20844286952588
C           25.58263058550099       88.68932600697285       53.11337719604054
C           26.02047240144537       89.84985445689136       52.36044581261424
C           25.87641144414119       91.32530612537566       50.40782690570641
C           25.27143707716611       91.70885763195275       49.14967496978190
C           25.95672196561737       92.79877227609042       48.71530175833783
C           26.96914179049179       93.06595890424668       49.71515235141329
C           27.87179230896952       94.10800685253291       49.62934566360288
H           27.81934899914889       94.74433540182899       48.75931629253530
C           30.62099740147349       93.95645703091417       53.57155845556778
H           31.44283766054425       94.54571023974620       53.94879919346590
C           28.31318340835228       89.99227632347511       55.02068859679496
H           28.41510756027401       89.30690054654529       55.84796501198604
C           25.45978152064844       90.24399034611434       51.15976711253178
H           24.63707032745173       89.66012232571964       50.77592193321220
C           31.64214985825064       96.37407451601463       52.00452243650784
H           31.41631016264806       96.84851138136251       52.95997987744408
H           31.80006532007979       97.15485593435454       51.26471856104857
H           32.57212743223397       95.81577507979591       52.11700863814191
C           29.80009010119295       96.46354356244092       49.32898794799804
H           28.84720332414895       96.98441179865297       49.23215277578506
H           29.99257429533881       95.93619335846749       48.39448160305088
H           30.58238107257487       97.20511386988203       49.47147457514642
C           31.93780522755105       93.21129063374046       56.24427702629368
H           31.78889668631501       94.28538348891131       56.14268210472501
H           32.91524621957868       92.96541812967278       55.82529543507746
H           31.94636612337304       92.95994997186249       57.30295350566246
C           30.43988487265441       90.51776610856085       57.14126282448103
H           29.55904589127992       90.05016515903684       57.56568086852979
C           31.61813694837664       90.31312202772175       57.72134670514943
H           32.53305250344565       90.71142133046264       57.31868200705890
H           31.71068155180714       89.71293281830985       58.61126766068318
C           26.34430741957397       87.66526237009458       55.34882501395341
H           26.52047138732111       88.18023884163765       56.29208034584020
H           27.10153422585863       86.88651638298803       55.24289565271798
H           25.36601414517775       87.19081519778722       55.38945094295079
C           24.47544868160146       87.83593453194005       52.74249455327701
H           23.65243075817558       88.33015109176411       52.23938444466975
C           24.40317535517368       86.52720310298203       52.96273556278349
H           25.20985258034047       85.97708827807611       53.41517567052566
H           23.53858007807869       85.95361901986838       52.67214707945208
C           24.12172910543441       91.00062921944897       48.51949546048149
H           23.25426578611471       91.01885499165599       49.17941957333193
H           24.37390452804697       89.95848379461454       48.32140227512597
H           23.84581380106727       91.47088991274688       47.57884073338963
C           25.76163717506995       93.60765946575607       47.47891734132577
H           24.94563082383946       93.20934912140399       46.88102988667040
H           26.66662959676079       93.60341268851816       46.87085093921014
H           25.52843175807600       94.64241141562091       47.73096897934463
O           26.68776192820772       93.46560243597722       53.51348576320856
H           26.99101981282283       94.31082327586935       53.16448594498497
H           27.06882776292921       93.36942467210828       54.39306070120205
C           30.51202359658396       88.12719253248964       49.23239388301529
H           31.12439171682414       87.38619031265731       49.74608453566782
H           31.03689943539701       88.43552097636652       48.32828431196089
H           29.57171501648541       87.66505108339422       48.94892619713826
N           31.25001439895454       90.07518551984055       50.62236005320535
H           32.23561713725191       89.94646408181059       50.46243140208138
C           30.24685753229873       89.29328156080960       50.11242048241248
C           30.67507660096988       91.03913467319519       51.37599966884326
H           31.22058032057256       91.79689155054184       51.89925778772629
N           29.37012082875727       90.91543664211524       51.37402945154759
C           29.08825092460945       89.83389838713295       50.59189024283318
H           28.07821395340313       89.51923678045816       50.42846060845391
