78
 energy: -115.983018755775 gnorm: 0.261939106874 xtb: 6.7.1 (edcfbbe)
Fe          13.68300000000000        2.28900000000000        1.13200000000000
N           13.18200000000000        0.56200000000000        2.04600000000000
N           15.38000000000000        2.30700000000000        2.25900000000000
N           14.27000000000000        3.92400000000000        0.11600000000000
N           12.03000000000000        2.20600000000000       -0.04400000000000
C           11.98200000000000       -0.13400000000000        1.75400000000000
C           11.94800000000000       -1.33900000000000        2.58200000000000
C           13.03700000000000       -1.30200000000000        3.35100000000000
C           13.77100000000000       -0.08100000000000        3.07100000000000
C           15.69900000000000        1.39700000000000        3.25200000000000
C           16.90600000000000        1.81400000000000        3.91600000000000
C           17.27200000000000        2.97100000000000        3.32600000000000
C           16.35400000000000        3.26500000000000        2.24600000000000
C           15.49100000000000        4.56500000000000        0.37800000000000
C           15.69700000000000        5.55300000000000       -0.66800000000000
C           14.60900000000000        5.52500000000000       -1.46900000000000
C           13.76300000000000        4.44400000000000       -1.03000000000000
C           11.71600000000000        3.15400000000000       -1.01500000000000
C           10.35300000000000        2.94700000000000       -1.46000000000000
C            9.88800000000000        1.72500000000000       -0.72800000000000
C           10.98900000000000        1.33300000000000        0.09400000000000
C           11.03300000000000        0.20800000000000        0.87400000000000
H           10.20100000000000       -0.48800000000000        0.76600000000000
C           14.99300000000000        0.27900000000000        3.59300000000000
H           15.43300000000000       -0.38200000000000        4.33900000000000
C           16.37900000000000        4.35900000000000        1.41300000000000
H           17.15000000000000        5.11100000000000        1.58100000000000
C           12.51400000000000        4.13100000000000       -1.51100000000000
H           12.13700000000000        4.71100000000000       -2.35300000000000
C           13.45300000000000       -2.30700000000000        4.44200000000000
H           12.69100000000000       -3.11300000000000        4.51400000000000
H           13.52300000000000       -1.78900000000000        5.42200000000000
H           14.43300000000000       -2.76000000000000        4.18100000000000
C           10.85600000000000       -2.40000000000000        2.54500000000000
H           10.42200000000000       -2.45000000000000        1.52300000000000
H           10.05200000000000       -2.13600000000000        3.26500000000000
H           11.28700000000000       -3.39100000000000        2.80300000000000
C           17.60800000000000        1.08800000000000        5.05900000000000
H           17.42599999999999       -0.00400000000000        4.97200000000000
H           17.20700000000000        1.44400000000000        6.03200000000000
H           18.70200000000000        1.27600000000000        5.00700000000000
C           18.46400000000000        3.82300000000000        3.63300000000000
H           18.89800000000000        4.43000000000000        2.82500000000000
C           19.05100000000000        3.90900000000000        4.81700000000000
H           18.67100000000000        3.33000000000000        5.67200000000000
H           19.92599999999999        4.56100000000000        4.96100000000000
C           16.93300000000000        6.44100000000000       -0.75400000000000
H           17.83500000000000        5.84800000000000       -0.49100000000000
H           16.83800000000000        7.28700000000000       -0.04100000000000
H           17.04600000000000        6.82800000000000       -1.78900000000000
C           14.37100000000000        6.25100000000000       -2.76600000000000
H           14.01000000000000        5.69600000000000       -3.64400000000000
C           14.58500000000000        7.58500000000000       -2.90500000000000
H           14.94600000000000        8.18400000000000       -2.05600000000000
H           14.40000000000000        8.08300000000000       -3.86800000000000
C            9.56500000000000        3.77700000000000       -2.43500000000000
H            9.97800000000000        3.64000000000000       -3.45700000000000
H            9.63700000000000        4.85000000000000       -2.15800000000000
H            8.50200000000000        3.45400000000000       -2.43000000000000
C            8.48200000000000        1.13000000000000       -0.84100000000000
H            8.34900000000000        0.68200000000000       -1.84900000000000
H            7.72400000000000        1.92900000000000       -0.69900000000000
H            8.34700000000000        0.33800000000000       -0.07400000000000
O           14.55300000000000        0.71700000000000       -0.27300000000000
H           14.34200000000000       -0.13100000000000        0.11700000000000
H           14.99900000000000        0.85100000000000       -1.03000000000000
C           10.35600000000000        6.06100000000000        3.69300000000000
H           10.82900000000000        7.03100000000000        3.95700000000000
H            9.75100000000000        5.70800000000000        4.55500000000000
H            9.70300000000000        6.20900000000000        2.80600000000000
N           12.36600000000000        4.69700000000000        4.29700000000000
H           12.44700000000000        5.07600000000000        5.21900000000000
C           11.41100000000000        5.06400000000000        3.37900000000000
C           13.14200000000000        3.77500000000000        3.75900000000000
H           13.96400000000000        3.28500000000000        4.28000000000000
N           12.75400000000000        3.56100000000000        2.51400000000000
C           11.67700000000000        4.36000000000000        2.24500000000000
H           11.19800000000000        4.35600000000000        1.27400000000000
78
 energy: -116.033588808285 gnorm: 0.103057960691 xtb: 6.7.1 (edcfbbe)
Fe          13.68829333323133        2.27858278701448        1.12908861079275
N           13.13817744120010        0.58214093423668        2.06549891977306
N           15.37721298830916        2.29973234909744        2.26115839183894
N           14.30648157470201        3.89431703456295        0.10664635578960
N           12.03297041795819        2.21636382334160       -0.04025592912283
C           11.98829041976904       -0.14072155070711        1.76046095769282
C           11.94589947552200       -1.34282658327657        2.58400123171949
C           13.03975249725178       -1.30831753579083        3.37441792550655
C           13.77436983843366       -0.09975202037156        3.04790596875090
C           15.70433397627472        1.40495062537883        3.24938934485908
C           16.91524640699183        1.82051627036662        3.91788503892795
C           17.29544991369589        2.98667887465381        3.32251689177938
C           16.33673517758890        3.26820366485938        2.26804597439780
C           15.48459467815396        4.56798301021556        0.36420833516348
C           15.69617449456179        5.56878056191687       -0.66512301210110
C           14.62170990341655        5.51562633427623       -1.50239403908111
C           13.76385788376867        4.45531740994684       -1.00915274991009
C           11.69162270595923        3.13995978456946       -1.00026051437275
C           10.33780651320098        2.91135139735822       -1.44366565327778
C            9.88913611722797        1.76235805693623       -0.75169619264397
C           10.98484857512435        1.35761385515636        0.07823447162715
C           11.02146861365572        0.21334316484260        0.86648517208619
H           10.18923628415914       -0.47482168859940        0.76604494274433
C           14.99262598865917        0.27260731959560        3.58757992941210
H           15.42142493180808       -0.37503869442162        4.34385941100006
C           16.36469648769830        4.35554720492046        1.41368913965204
H           17.14804981024880        5.09126790939450        1.56412575414863
C           12.50854044327135        4.13388599821902       -1.49944442381022
H           12.13870088210330        4.70820597152133       -2.34283221518315
C           13.45079339624431       -2.30053160428804        4.43653624544258
H           12.70590732658344       -3.09835340978288        4.51558696732516
H           13.52728357229783       -1.79887391666114        5.40654434232153
H           14.41906433728317       -2.74969855616467        4.18918861154372
C           10.86547210236218       -2.38960222762396        2.54036143511340
H           10.42804787458633       -2.45383845449048        1.53889988712527
H           10.06693018703217       -2.14232567060770        3.25067277767554
H           11.27525635604939       -3.37121739050786        2.80013018702963
C           17.59855018669102        1.08984911561895        5.04394088563871
H           17.42651229983210        0.01105013741598        4.97274952828390
H           17.21591945677930        1.43388611980888        6.01359199414593
H           18.67823534475890        1.26998383644640        5.00616358066431
C           18.46334865411074        3.82077367773409        3.62935481749648
H           18.87575682148966        4.41989733756469        2.81951033159982
C           19.05194825158143        3.90759630496144        4.81677301510762
H           18.68101827120638        3.35648797317706        5.67151388627365
H           19.91442178869191        4.54783180313802        4.96684610389635
C           16.92183701693522        6.43654699945150       -0.75348419600332
H           17.81702297240134        5.85909237259503       -0.49528011894320
H           16.84186568048590        7.27838484530305       -0.05598853946010
H           17.03965136082080        6.82487821416560       -1.77034055152900
C           14.38040682198165        6.25920485135566       -2.75566910939441
H           14.01063752240408        5.69682962630973       -3.61248103423722
C           14.58886070467684        7.56952266710582       -2.89894787699467
H           14.93643199578469        8.17529827929661       -2.07051189762037
H           14.40609692031775        8.07016133136427       -3.84505692351009
C            9.57332884010308        3.75411127697390       -2.41940266946615
H            9.97071700268966        3.63892418281064       -3.43735585035356
H            9.63612352079666        4.82001623992042       -2.15984555520020
H            8.51933632923284        3.45979653891584       -2.43139120755640
C            8.51168915443085        1.14535028052832       -0.84645882476284
H            8.35463547109131        0.69261953843525       -1.83394788466153
H            7.74261146134430        1.91335820524290       -0.70182106999303
H            8.36053858695861        0.36515399655071       -0.09070870472271
O           14.55706056971760        0.72827222285062       -0.25747063951516
H           14.34828103418763       -0.13250831932030        0.10324558521505
H           15.01994053209948        0.84286111623906       -1.06655771041471
C           10.35760756760705        6.06742094080581        3.69384300039647
H           10.81263389403595        7.02916838585371        3.95697851198575
H            9.75196465710534        5.72361345516166        4.54073192833772
H            9.71122452221023        6.20861823025338        2.82399681246382
N           12.35398482544984        4.69910819589411        4.30159830064337
H           12.43728649085030        5.07916637123932        5.22853796220072
C           11.41180551683610        5.07210508686471        3.37940384142641
C           13.14093519986376        3.76978276585588        3.74481904004360
H           13.95558571292534        3.28805279787125        4.25872709686990
N           12.76039512461641        3.53878218963094        2.50640753045029
C           11.68851060830117        4.34944058120902        2.25513816064739
H           11.20881838021202        4.34809518831278        1.29350995881521
78
 energy: -116.045517791091 gnorm: 0.034511248054 xtb: 6.7.1 (edcfbbe)
Fe          13.68812480204047        2.27327357809835        1.13281317297779
N           13.10638754093758        0.58991874150358        2.06580036579816
N           15.36834342273646        2.29553645842398        2.26742143489739
N           14.33353200743404        3.87189633404821        0.10550455043380
N           12.03501831668231        2.22700241410942       -0.03130394819188
C           11.98505266168405       -0.13417886464970        1.77276997641584
C           11.94418394213525       -1.33986929956407        2.57970524451598
C           13.04435193167545       -1.30911301858411        3.37959034838778
C           13.77022753730390       -0.10474830129082        3.02985309859948
C           15.70193550143940        1.41072289015853        3.24797788888847
C           16.91228696899252        1.82569307595071        3.91915137576268
C           17.30028242127354        3.00051290474979        3.32363716900613
C           16.32207343983309        3.26377615542165        2.27899840288311
C           15.48412551079275        4.55804676528854        0.34959475554744
C           15.69066373342444        5.57620975491498       -0.65780505223598
C           14.62430552383869        5.50140054860824       -1.51481856578618
C           13.77090770454432        4.44413394902032       -0.99575408925582
C           11.68069007168216        3.13339816970728       -0.98389343026102
C           10.32966095234935        2.88699562191510       -1.42969131484582
C            9.89544244637066        1.79059732164466       -0.76892856315781
C           10.98388840197816        1.37527996081737        0.08066728830226
C           11.00388039593454        0.22853825190454        0.87339162221491
H           10.17052023458953       -0.45206863734358        0.77397454036706
C           14.98159387105102        0.27372775080577        3.58554141120504
H           15.39914608323782       -0.36671638385460        4.34907738598618
C           16.35978722506387        4.33845995006752        1.40489792595323
H           17.15283566386440        5.06110140897709        1.54126947248495
C           12.51257382461936        4.12759450216562       -1.48778124553340
H           12.14322636612954        4.70797857185825       -2.32255144546252
C           13.45165717096811       -2.28867259333030        4.42711014068092
H           12.71636680687163       -3.08357650086115        4.51158114591362
H           13.53441741436204       -1.79946299160260        5.39567481491769
H           14.41555503734926       -2.73629350527500        4.19035063163337
C           10.87325086182818       -2.37886143510384        2.53698683107821
H           10.43589722719897       -2.45057607160524        1.54536142327574
H           10.07679675048526       -2.13998941682335        3.24238480543884
H           11.27402123726548       -3.35499623920296        2.80020679676598
C           17.58869083679635        1.09002747276169        5.02678495470874
H           17.41743177723577        0.01906180479639        4.95802269275099
H           17.21651975904018        1.42600645408353        5.99629220207759
H           18.66134942047303        1.26776780063111        4.99561840801218
C           18.45072190656246        3.82182313818316        3.62553743362577
H           18.84763120089640        4.41019815076183        2.80770796811723
C           19.04617880533466        3.91224125255237        4.81296307246722
H           18.68510212292732        3.38482391959409        5.67533682954446
H           19.90837233019428        4.53836091459380        4.96166104831367
C           16.90650520378570        6.43428571174510       -0.75312841742300
H           17.79884760521326        5.86387151778066       -0.50162112351632
H           16.84060086155364        7.27555836531606       -0.06335893785320
H           17.01993845987657        6.82478848344013       -1.76118425364861
C           14.38005027302348        6.25419429056763       -2.73484297838489
H           14.00085192395731        5.68273178869890       -3.57518207197244
C           14.59376160322780        7.55391620743740       -2.88674053013519
H           14.93814809478565        8.16991213482912       -2.07519008649428
H           14.41230309842743        8.05530916727331       -3.82339010318571
C            9.58090102267894        3.73408113838266       -2.40772100553250
H            9.97951708862363        3.62305864314413       -3.41761831801571
H            9.64665719637022        4.79158917136064       -2.14669833901932
H            8.53143011757597        3.45279511217382       -2.42821741079059
C            8.53946878984964        1.16097441181326       -0.85365226058938
H            8.37717673964552        0.70456116764330       -1.83087537760247
H            7.76400290979938        1.91335938191602       -0.70788967171540
H            8.39745946553266        0.39197039032583       -0.09770724470133
O           14.60280350695992        0.75180253779520       -0.23619303554262
H           14.35986950545190       -0.13062176776131        0.05858487447997
H           15.02083746103331        0.83216011852753       -1.09596112978641
C           10.35908772300509        6.07317647695184        3.69110746780741
H           10.80257578658120        7.03144659825082        3.95515228259386
H            9.75239339479643        5.73474856822743        4.52988202740898
H            9.71649788693878        6.21007963163032        2.82959492906879
N           12.34631504659695        4.69588325453224        4.30627350440967
H           12.43123247896090        5.07273850240060        5.23671216573903
C           11.41323917171318        5.07604785960031        3.37943017212135
C           13.13863663086854        3.76298490512053        3.73529545435410
H           13.95040276147559        3.28622441220323        4.24255135830731
N           12.76699184277821        3.52855400617375        2.50046146554133
C           11.69501280809590        4.34038438930799        2.26336142413398
H           11.21147437138947        4.34245069416520        1.30907419472399
78
 energy: -116.048341570794 gnorm: 0.041858452459 xtb: 6.7.1 (edcfbbe)
Fe          13.68921442897989        2.26860278406113        1.13415799561412
N           13.08814380833029        0.59916928263111        2.07234029393025
N           15.35745070165941        2.29699828079873        2.27432691677587
N           14.34960718008956        3.85411799855524        0.10472602489037
N           12.03512830947215        2.23056522023228       -0.02115640941806
C           11.97543629713260       -0.12706732093976        1.78369834728489
C           11.93752648559225       -1.33283336401342        2.58396311738872
C           13.04189065337735       -1.30233592630863        3.38082402194203
C           13.76047625503751       -0.09695152752131        3.03091288918360
C           15.69168451730324        1.41468861758044        3.25312275674803
C           16.90112554670456        1.82789781907096        3.92207555250105
C           17.29058608872251        3.00427836529872        3.32791247099272
C           16.31309300832490        3.26081254777684        2.28318154103990
C           15.49190977760304        4.54647965826539        0.34569106337523
C           15.69158199535015        5.57114340817711       -0.65250526892637
C           14.62510439123760        5.48971345903318       -1.50789389802534
C           13.78000374740884        4.42847457270044       -0.98950079929503
C           11.68530952738076        3.13618990189836       -0.97304989231920
C           10.33660867401401        2.89023337044528       -1.42900404668236
C            9.89639818728868        1.79361520868421       -0.76290952863771
C           10.98239688075844        1.37980159591242        0.09606067952536
C           10.98830765597840        0.23831946504429        0.88683583036393
H           10.14387231637524       -0.42930395352349        0.79658572885464
C           14.96767505191309        0.27974715541737        3.59108965864214
H           15.37625158016232       -0.35829043366709        4.36050522689854
C           16.36538251904424        4.32510395818801        1.39992477392968
H           17.17321695014427        5.03323128875951        1.52082694220980
C           12.52015639389040        4.12436587557656       -1.47764031026627
H           12.14926550907544        4.71314311798173       -2.30456829561791
C           13.45788016671000       -2.28121176399839        4.42201377413009
H           12.72555011458333       -3.07858757209507        4.50908811501303
H           13.54390727179758       -1.79355444599067        5.39168047950229
H           14.42374127513808       -2.72443459783640        4.18360566623395
C           10.87217261390570       -2.37377433566823        2.53743530106769
H           10.43952920907378       -2.44939228002229        1.54400606907416
H           10.07232251170955       -2.13591112603333        3.23899266496467
H           11.27539976299013       -3.34732688935349        2.80539071745376
C           17.58076202129685        1.08455922591502        5.01769369287638
H           17.40574407873901        0.01511968128273        4.93930950471398
H           17.21471903767756        1.41355116374571        5.99183902082949
H           18.65293126838029        1.26264459305643        4.98196083503469
C           18.44006604181932        3.82354465807263        3.62149812660827
H           18.82688488641832        4.40682917273563        2.79499238634526
C           19.04246122438701        3.92177702618590        4.80530744207050
H           18.67918012217834        3.41655395384320        5.68128556193785
H           19.90918616249829        4.54329769840713        4.94559099672525
C           16.89777361599229        6.43707679499076       -0.75268149129464
H           17.79409205640838        5.86982187025108       -0.50981114921592
H           16.83477975878925        7.27809544612014       -0.06214180123796
H           16.99759855545336        6.83054882957039       -1.76101661116579
C           14.37237167168842        6.24445438894580       -2.71792323765657
H           13.97290405974828        5.67186337247760       -3.54816127336955
C           14.59859108699029        7.54223105188602       -2.87558110162240
H           14.95117798315722        8.16136132409371       -2.07000489171000
H           14.41464240539696        8.04227835926670       -3.81124153274649
C            9.59245841522909        3.73081882494936       -2.41098442063097
H            9.99770563679839        3.61250514088173       -3.41548641354315
H            9.66014371750423        4.78485249130101       -2.14491743929545
H            8.54384667809799        3.44736758147532       -2.43233476809442
C            8.54886378167597        1.16082635509654       -0.85500433920103
H            8.39749847330503        0.70422251855180       -1.83273309498849
H            7.77230435107071        1.91211354017747       -0.71457587554594
H            8.41654745380926        0.39690244294191       -0.09528569018144
O           14.71652240472149        0.77542275266627       -0.20249040509526
H           14.34840595132113       -0.12335255264106       -0.01919149530306
H           14.99655492561950        0.84182855937805       -1.14569650984958
C           10.36208004928411        6.07480526559958        3.68607287826566
H           10.80310638365092        7.03433104560197        3.94993929205600
H            9.75016477505655        5.74146494955868        4.52299664406297
H            9.72179744215667        6.21136890710120        2.82275777088788
N           12.34379882463123        4.68685111358619        4.30806601013923
H           12.42844681169200        5.05952391389221        5.24033687507476
C           11.41429160332692        5.07256718551615        3.37883414875663
C           13.13570237307296        3.75299259007089        3.73264482714676
H           13.94957126470971        3.27722346418962        4.23632851061630
N           12.76507983459318        3.51906235791351        2.49847307384260
C           11.69559758184110        4.33421240778879        2.26458215388077
H           11.20833786555351        4.33876311843798        1.31300761953447
78
 energy: -116.049953611659 gnorm: 0.019631173666 xtb: 6.7.1 (edcfbbe)
Fe          13.69170554676160        2.26392347436475        1.13498728459208
N           13.07496694591997        0.60577847163372        2.07352452080609
N           15.34454416407735        2.29990816521797        2.28110502665353
N           14.36313674197830        3.83697120336041        0.10561304060923
N           12.03864993175761        2.22924863803282       -0.01280978323608
C           11.96275070681289       -0.11956922209983        1.79400316178148
C           11.92846501603814       -1.32471947281551        2.58983439440314
C           13.03734503977994       -1.29356826402476        3.37987610519534
C           13.74954341181269       -0.08669251167864        3.03243836817409
C           15.67830929338096        1.41873489641428        3.25974097487966
C           16.88696962956572        1.82930589266269        3.92544782935878
C           17.27734358409028        3.00478763762569        3.33187007069212
C           16.30518534721696        3.25682966184041        2.28452745992616
C           15.50292513949462        4.53292880838631        0.34294927510816
C           15.69302529630627        5.56333198478500       -0.64749976120755
C           14.62359769166201        5.47859131560888       -1.49583749965245
C           13.78841435930865        4.41123768571531       -0.98296061017496
C           11.69372383075473        3.13812810868341       -0.96327552381361
C           10.34666050513986        2.89736379939747       -1.42730033508629
C            9.89802663299842        1.79446691353044       -0.75196645909922
C           10.98130214574804        1.38251739130464        0.11410991856795
C           10.96922984733493        0.24946174506963        0.90417310891867
H           10.10928676300149       -0.40102041376230        0.82792217604967
C           14.95117771147542        0.28787815554195        3.59828690582456
H           15.34976924534231       -0.34862636956864        4.37410294098761
C           16.37610544973636        4.30967626650602        1.39291653065417
H           17.19985389330500        5.00193532465713        1.49805741490482
C           12.52736880500296        4.12101768663571       -1.46655165168839
H           12.15358792086687        4.72032731958075       -2.28406518998607
C           13.46581691372522       -2.27357669471170        4.41658344510900
H           12.73676690275733       -3.07560832299712        4.50662910300501
H           13.55567989886176       -1.78581193226730        5.38788190202224
H           14.43459387588377       -2.71056519464386        4.17160733692761
C           10.86741291816057       -2.36939062061306        2.53931567620285
H           10.44226168357742       -2.44932475048567        1.54118890687810
H           10.06159757024736       -2.13057479070192        3.23529112033247
H           11.27473566756711       -3.34066063608088        2.81384262144729
C           17.57306362612063        1.07651869486140        5.00923257615875
H           17.39418250783848        0.00746434305060        4.91659217210823
H           17.21348042563679        1.39567776320066        5.99022545273733
H           18.64587486088029        1.25595726771714        4.96616641884598
C           18.42870339626895        3.82524644330093        3.61604277525490
H           18.80993188080829        4.39896762413873        2.77876303120697
C           19.03688424044328        3.93515020528163        4.79547917246479
H           18.67558166122718        3.44526621847517        5.68380628058289
H           19.91095132295761        4.55188544792951        4.92395685059811
C           16.88923584281752        6.44139580773550       -0.75290328346319
H           17.79259483192622        5.87847522739006       -0.52123521098402
H           16.82660802837398        7.28108436300223       -0.05883158542241
H           16.97185652128291        6.83924306602125       -1.76285332930720
C           14.35882824399049        6.23445336117057       -2.69983357177680
H           13.93435893950237        5.66364197446731       -3.52040748970954
C           14.60254978591797        7.53088886124326       -2.86329145498342
H           14.97388925878857        8.14930229347898       -2.06361294209000
H           14.41264860747712        8.02970825109163       -3.79886703948225
C            9.60594894591633        3.72941061512415       -2.41471555562252
H           10.01884314886316        3.60238367829892       -3.41471866495078
H            9.67489466289421        4.78197610932396       -2.14605634658791
H            8.55720362148496        3.44213377764285       -2.43739021206021
C            8.55549459075945        1.16075977250680       -0.85553281215363
H            8.41801357245742        0.70295286803975       -1.83521296475817
H            7.77672863812071        1.91188221526848       -0.72293641132275
H            8.42958662806446        0.40015844041607       -0.09236670854409
O           14.70301232957762        0.79578456166262       -0.25240187747778
H           14.42996566008324       -0.09483826463627       -0.04254190380166
H           15.02417927224772        0.85579969190458       -1.15573572799793
C           10.36716649495468        6.07537506157898        3.68096376448259