72
 energy: -105.980112324109 gnorm: 0.000126315239 xtb: 6.7.1 (edcfbbe)
Fe           3.42174131472778       -2.81513637434746       15.27521199128831
N            2.04533919394118       -2.99940587025795       16.72799825100410
N            4.12616749820386       -4.65322346068080       15.73692504970896
N            4.85273869539931       -2.61659041233653       13.89699218381365
N            2.76141826640051       -0.98735451473809       14.87698776326498
C            1.07078228161206       -2.10548865438458       17.03992947439870
C            0.24743236072166       -2.60264726720934       18.11838588619002
C            0.75391257336685       -3.81873046049250       18.45840051693251
C            1.87327932280631       -4.05287652176317       17.57494655179900
C            3.67396015465192       -5.48729640078206       16.71767568820616
C            4.40336036533706       -6.72678735050738       16.71033662725571
C            5.31186666179029       -6.63461235043514       15.68775729898345
C            5.12996960127407       -5.32105454297199       15.10669528049199
C            5.77046571779998       -3.55175577685495       13.52642143102057
C            6.62757953702212       -3.04350396668199       12.48518002645598
C            6.20585423768178       -1.76616124287190       12.23235081622352
C            5.09350154056364       -1.52587204308452       13.13056855116919
C            3.26761405339360       -0.12208662573348       13.96400058745467
C            2.50024508039773        1.10624385411498       13.94086661432416
C            1.51264347317855        0.95465142953795       14.86039995541676
C            1.69624028562818       -0.36083973791682       15.43784874670627
C            0.89256366679065       -0.87582263227957       16.43503534867204
H            0.07292301022580       -0.26599712894494       16.78156711380786
C            2.63346581389320       -5.20591181183967       17.58775226188662
H            2.37485605345999       -5.96123673852362       18.31314883096483
C            5.88487946791544       -4.82202655152074       14.06248543997596
H            6.63763098672951       -5.47020446218504       13.64200684117041
C            4.35645126041836       -0.35787807717991       13.14991509648501
H            4.64523108441627        0.42604875559128       12.46743601420778
C            0.29783228150183       -4.77330765766632       19.50750173008207
H           -0.55284470928363       -4.37088120631251       20.05148890029091
H            1.09796232213558       -4.97154982044446       20.22114048908416
H            0.00092665578489       -5.72248509286714       19.06038479156651
C           -0.91054218711857       -1.86629887875572       18.69760500857412
H           -1.65703850545310       -1.66225327317316       17.92990540806572
H           -0.58726677823844       -0.91292603949465       19.11596654198949
H           -1.38136343405611       -2.44532926951764       19.48813026741897
C            4.21595038536033       -7.83608887304251       17.68489677385588
H            3.37749878798222       -8.47228154483165       17.39604335097837
H            4.01399508267718       -7.44504704964427       18.68110271727673
H            5.11328814727026       -8.44998227283483       17.72686840686467
C            6.29959940349640       -7.59839549612199       15.25459504221318
H            7.22742448342246       -7.18280498280530       14.87925278730098
C            6.14677566734995       -8.91807825785148       15.27665069041311
H            5.23035698549048       -9.38434447008577       15.59399640690834
H            6.93072587550076       -9.58062247000317       14.94988281801167
C            7.78088989159245       -3.77392309225203       11.89196641371257
H            7.44617861898152       -4.46929614508273       11.12040567931387
H            8.30997646739780       -4.34472638372005       12.65371416120873
H            8.47571502571095       -3.06862983928883       11.44111118663841
C            6.73346580099112       -0.79562659840576       11.29828434771908
H            6.68822612287042        0.23723262984631       11.62293449974977
C            7.24662156070593       -1.07656230882260       10.10536168331478
H            7.27192983481241       -2.07866363853978        9.71404564644515
H            7.63561383551407       -0.30372476105605        9.46350511228092
C            2.79698750735614        2.26381061552761       13.05202209592604
H            2.74812878607161        1.96401973682983       12.00515965730570
H            3.79773423115165        2.64887913410781       13.24805461880530
H            2.08306804166071        3.06777829617574       13.21252392343225
C            0.43212191881901        1.90125080355063       15.25490446020796
H           -0.54808225588700        1.45538804111588       15.08528107962266
H            0.49467453433382        2.82030194599683       14.67785518779219
H            0.51126547466305        2.15397030575923       16.31244838177614
O            4.82118455232136       -2.04374611119175       16.85081442782865
H            5.48708558265201       -2.74025749246817       16.87044134910818
H            4.28423913414859       -2.13998869090000       17.64568530718942
C            0.94145634143347       -4.97925001253122       14.41716388768542
H            0.49597995263682       -5.60605782800636       13.65093029565373
H            0.17053087331818       -4.43018251150720       14.94730940875647
H            1.52243553198293       -5.56675690602640       15.11927892636256
S            2.01588344716622       -3.73348862608952       13.62118964028135
H            2.88529516403126       -4.62351697029145       13.12997025169463
