72
 energy: -105.894743407662 gnorm: 0.246815046740 xtb: 6.7.1 (edcfbbe)
Fe           3.33800000000000       -2.94900000000000       15.14800000000000
N            2.01900000000000       -3.05900000000000       16.73300000000000
N            4.21100000000000       -4.69000000000000       15.87000000000000
N            4.94800000000000       -2.58500000000000       13.94100000000000
N            2.73800000000000       -1.04000000000000       14.84000000000000
C            0.93100000000000       -2.21900000000000       16.89100000000000
C            0.10800000000000       -2.73700000000000       17.98000000000000
C            0.69400000000000       -3.86500000000000       18.41800000000000
C            1.89700000000000       -4.10600000000000       17.64600000000000
C            3.79200000000000       -5.49600000000000       16.91600000000000
C            4.60700000000000       -6.70300000000000       16.87700000000000
C            5.47300000000000       -6.58400000000000       15.83900000000000
C            5.22200000000000       -5.31700000000000       15.18800000000000
C            5.79300000000000       -3.58800000000000       13.51800000000000
C            6.52400000000000       -3.11300000000000       12.38300000000000
C            6.15800000000000       -1.84000000000000       12.15900000000000
C            5.16800000000000       -1.47900000000000       13.14200000000000
C            3.35900000000000       -0.10300000000000       14.02400000000000
C            2.57400000000000        1.10000000000000       14.08400000000000
C            1.51000000000000        0.91500000000000       14.87800000000000
C            1.58000000000000       -0.47200000000000       15.34000000000000
C            0.69500000000000       -1.05400000000000       16.19000000000000
H           -0.27000000000000       -0.56600000000000       16.32800000000000
C            2.77800000000000       -5.17900000000000       17.79900000000000
H            2.65700000000000       -5.81200000000000       18.67800000000000
C            5.89000000000000       -4.84900000000000       14.06900000000000
H            6.56200000000000       -5.54900000000000       13.57200000000000
C            4.51800000000000       -0.25900000000000       13.28100000000000
H            4.93900000000000        0.61400000000000       12.78300000000000
C            0.23300000000000       -4.80900000000000       19.55100000000000
H           -0.79200000000000       -4.52800000000000       19.87400000000000
H            0.92100000000000       -4.71900000000000       20.41800000000000
H            0.22000000000000       -5.85700000000000       19.18400000000000
C           -1.22600000000000       -2.12200000000000       18.48700000000000
H           -2.07600000000000       -2.56600000000000       17.92600000000000
H           -1.21900000000000       -1.02300000000000       18.32200000000000
H           -1.35400000000000       -2.34300000000000       19.56800000000000
C            4.44600000000000       -7.85600000000000       17.90400000000000
H            3.84500000000000       -8.67400000000000       17.45200000000000
H            3.92200000000000       -7.48200000000000       18.80900000000000
H            5.44500000000000       -8.25400000000000       18.18100000000000
C            6.54300000000000       -7.57200000000000       15.34100000000000
H            7.32800000000000       -7.21100000000000       14.66100000000000
C            6.58300000000000       -8.86700000000000       15.68700000000000
H            5.82500000000000       -9.28800000000000       16.36400000000000
H            7.37400000000000       -9.52500000000000       15.29800000000000
C            7.55600000000000       -3.95800000000000       11.60300000000000
H            7.04400000000000       -4.50400000000000       10.78200000000000
H            8.03000000000000       -4.69500000000000       12.28600000000000
H            8.33100000000000       -3.29300000000000       11.16400000000000
C            6.62200000000000       -0.85600000000000       11.06500000000000
H            6.35300000000000        0.20400000000000       11.17400000000000
C            7.33200000000000       -1.17400000000000        9.97700000000000
H            7.64000000000000       -2.21400000000000        9.79600000000000
H            7.61700000000000       -0.39900000000000        9.25000000000000
C            2.98600000000000        2.37600000000000       13.32300000000000
H            3.03100000000000        2.16000000000000       12.23400000000000
H            3.98900000000000        2.71000000000000       13.66500000000000
H            2.23800000000000        3.17700000000000       13.50100000000000
C            0.37700000000000        1.90000000000000       15.22000000000000
H           -0.44700000000000        1.78800000000000       14.48300000000000
H            0.76000000000000        2.94200000000000       15.17700000000000
H           -0.01600000000000        1.68200000000000       16.23600000000000
O            4.86200000000000       -2.03000000000000       16.93500000000000
H            5.42800000000000       -2.75600000000000       17.19700000000000
H            4.88000000000000       -1.20400000000000       17.26300000000000
C            0.56300000000000       -4.41600000000000       14.04400000000000
H            0.12400000000000       -5.32800000000000       13.58500000000000
H           -0.10900000000000       -3.56100000000000       13.81800000000000
H            0.59900000000000       -4.56900000000000       15.14400000000000
S            2.22700000000000       -4.09200000000000       13.40200000000000
H            2.78800000000000       -5.12800000000000       14.00700000000000
72
 energy: -105.948948284182 gnorm: 0.098910701682 xtb: 6.7.1 (edcfbbe)
Fe           3.42851638486807       -2.87714509187090       15.25602816607272
N            1.99320396955022       -3.08286162600326       16.71069202976999
N            4.19762846624984       -4.69831224164920       15.84511117958427
N            4.93398585970185       -2.59179508171441       13.92022600740890
N            2.73092817034805       -1.04090245196377       14.82201524260359
C            0.92509781310696       -2.24331409071828       16.89355792774550
C            0.09531325743922       -2.74687808616446       17.97886550375826
C            0.69719104071508       -3.87639834419181       18.43296244047273
C            1.89496868800814       -4.09415166121440       17.64186035764174
C            3.80539189472866       -5.49302341974448       16.89700837932781
C            4.61278760643638       -6.70622190641532       16.88808209700297
C            5.48159095786664       -6.60573842739472       15.83222590363967
C            5.21559267443201       -5.32913033963000       15.18873621366177
C            5.77610010982490       -3.58560878389385       13.49768720233037
C            6.54049671912504       -3.11336682983407       12.36850831782138
C            6.17472211529129       -1.81750984287580       12.14389691272768
C            5.16904876349269       -1.49180426616446       13.13949914679990
C            3.35415392932829       -0.10075587527392       14.03842734035488
C            2.58277185702556        1.12094640225641       14.07829359396716
C            1.49897248815569        0.91550642642248       14.86349443284731
C            1.59317753489448       -0.46678701818311       15.32695514478571
C            0.70133055733067       -1.06566495672537       16.19242032349795
H           -0.24795775815380       -0.56281329081590       16.35168044107673
C            2.78065879341109       -5.16514102839411       17.78042731985952
H            2.64198563148578       -5.80852621066347       18.64579568020593
C            5.88231467821007       -4.84734473824998       14.06834165659849
H            6.56523242385276       -5.53718054408111       13.58583908980289
C            4.51079409864085       -0.27547181519820       13.29231519990494
H            4.91498642337937        0.59007024540797       12.77664936275808
C            0.23684863488130       -4.79961051819192       19.54155660182215
H           -0.77361756505927       -4.53308541603453       19.86707467073703
H            0.91141240624655       -4.72348216854609       20.40190867167403
H            0.22394096587778       -5.83723881520934       19.19071687433087
C           -1.20406893147044       -2.13092352006016       18.47590317251266
H           -2.05621001214987       -2.55909147692882       17.93284417462064
H           -1.21204490575170       -1.04648657613802       18.32555360072278
H           -1.34345075699264       -2.33651676468598       19.54275492692443
C            4.44893653785378       -7.83680001211971       17.89013069470926
H            3.85429529556115       -8.65232002462497       17.45699666314171
H            3.93470547283750       -7.48537161341598       18.78970040684399
H            5.42646967546702       -8.23868121052200       18.17771891219863
C            6.52084857002848       -7.56749120564669       15.35904680467359
H            7.29041317086012       -7.19294598063319       14.68291564648883
C            6.57502485886628       -8.85574097202217       15.69075600202361
H            5.83635978863432       -9.29770083763231       16.34457853518400
H            7.35518911761805       -9.50654591223410       15.30561781516161
C            7.54817878705929       -3.95341262006272       11.61413854203197
H            7.05224927799231       -4.49368831851968       10.79748205678329
H            8.02055275448654       -4.68390729661898       12.27717448085681
H            8.32791438159905       -3.31486610068355       11.19048876327488
C            6.62492768585431       -0.87073141458764       11.08047740101362
H            6.34320360314383        0.17458741293481       11.20078169081904
C            7.32422766582036       -1.17667184545251        9.98925573157285
H            7.62582480066084       -2.19173637064660        9.77363017021014
H            7.60827634683447       -0.41362022787618        9.27035008776537
C            2.98297532225828        2.37106897817671       13.32931012661429
H            3.03054528103946        2.16378276478566       12.25400823458204
H            3.97089508245823        2.70919679579068       13.66154195802946
H            2.25319259443292        3.16725137177235       13.49829441952086
C            0.39033965905336        1.88448372768517       15.21442382588473
H           -0.43266865384333        1.78851686416186       14.49538819984234
H            0.75506419860082        2.91698178963772       15.18052222743360
H           -0.00268285435012        1.68556511328106       16.21698534561271
O            4.84405167769172       -2.05496226904382       16.90747981016350
H            5.42666457874530       -2.75375957509861       17.19706483013738
H            4.88202432992268       -1.18861738085962       17.27013802680145
C            0.54833598074369       -4.42196816560372       14.05330771726301
H            0.13376949565789       -5.31931177348665       13.57956877482599
H           -0.09304376391247       -3.56694674470580       13.82034605826329
H            0.59210200404365       -4.56104477206726       15.13686485925971
S            2.22325656805476       -4.06875428723930       13.44210086058002
H            2.77978572389801       -5.14807773608580       13.98849901305890
72
 energy: -105.964311740697 gnorm: 0.024808630386 xtb: 6.7.1 (edcfbbe)
Fe           3.45613377593457       -2.85591320816422       15.29755696225034
N            1.99979063820372       -3.08519161674036       16.70190791504598
N            4.20860478606450       -4.67971975492375       15.83943759352867
N            4.91905611076472       -2.60111270616916       13.91821002223163
N            2.75062930680700       -1.03970369154317       14.84432480110759
C            0.93206496370049       -2.26344746112495       16.88818654911097
C            0.09593574611107       -2.75757038408307       17.96758260839004
C            0.70932702531874       -3.88452313029484       18.43505815488366
C            1.90125934843366       -4.08118742334813       17.62744204488220
C            3.81977428504116       -5.47578375980821       16.87944790876380
C            4.60966759956962       -6.69423462413276       16.89395781502923
C            5.47955476206483       -6.61310699592521       15.82575675972303
C            5.21170570365362       -5.32925265668450       15.18953169663660
C            5.75690334338535       -3.58493085256824       13.48878314590074
C            6.54362718807213       -3.11820890266924       12.36486110163608
C            6.17963243696627       -1.80847031045305       12.14184541156925
C            5.16467760140141       -1.50980138269871       13.14865613770033
C            3.35645514008119       -0.10572191127117       14.06370557975141
C            2.59358457736751        1.12840219497944       14.07923939862215
C            1.49616868816140        0.90407300232515       14.85519746694852
C            1.61343312936010       -0.46934389679361       15.32460733627417
C            0.71573958280948       -1.07920678287147       16.19294868434759
H           -0.21313332309450       -0.55534356228059       16.38418472628552
C            2.77949224751908       -5.15367514120878       17.75227440827027
H            2.61703805670129       -5.81325876562068       18.59755520706767
C            5.87448819520558       -4.84440386834176       14.06798083145027
H            6.57546094895579       -5.52165426258590       13.60211491153411
C            4.49881795675572       -0.29952514554877       13.30081201643003
H            4.87811577113823        0.55578843331710       12.75531042981534
C            0.24954452100913       -4.78980452938226       19.52825847942227
H           -0.75296926526904       -4.52819425843732       19.85320573692017
H            0.91336160037240       -4.72671005709395       20.38917461179865
H            0.23339916588606       -5.82349425821996       19.19011236315410
C           -1.17653611153723       -2.14464240554190       18.45871683814091
H           -2.03422570234995       -2.55879073862760       17.92703429230976
H           -1.18707045982167       -1.06802212159353       18.31739462508098
H           -1.32030919595697       -2.34067668629760       19.51884965610035
C            4.45030283104535       -7.80585063338143       17.87745609546258
H            3.86174487665822       -8.62079876257613       17.45216035897772
H            3.94135757416592       -7.46975868706472       18.77565734495310
H            5.41743936307082       -8.21058721453404       18.16802589127279
C            6.48621348310473       -7.55303078449468       15.37648501776163
H            7.24501672859616       -7.15927646740481       14.70912425308440
C            6.55907321384933       -8.84286629171441       15.69345054839642
H            5.83704014299537       -9.31588632873146       16.32835180148604
H            7.34160509618237       -9.47878970577314       15.31357943633680
C            7.54014180049643       -3.94717195394282       11.63142876733628
H            7.05793001429539       -4.48238465125025       10.81273764619473
H            8.00393534084382       -4.67974109640617       12.28431212419407
H            8.32824191989899       -3.32603910813186       11.21921180378297
C            6.61907549869673       -0.89186176420369       11.11126310163136
H            6.33188777034139        0.14372850741519       11.24985175075868
C            7.30770333050768       -1.18225612749267       10.00828480195134
H            7.60751834646853       -2.17908431719559        9.75214626305790
H            7.58970316593916       -0.42011915208998        9.30072932623623
C            2.98049397611777        2.36150207741316       13.33800159869426
H            3.02924727068303        2.16224438318538       12.26929120731222
H            3.96007734579323        2.70917360995696       13.66003360826674
H            2.26059980153725        3.15612725910108       13.50135213865225
C            0.40412458044380        1.86152985502661       15.20459750478480
H           -0.42306871371761        1.77814723915936       14.49964200026480
H            0.76235538236076        2.88793139457686       15.17500399496699
H            0.01586236502652        1.67472379804253       16.20189672202090
O            4.81423538246044       -2.06986722611074       16.86849671779146
H            5.42021469560914       -2.73565809068441       17.19903276346203
H            4.87750499717070       -1.19586759505699       17.26164773426392
C            0.53431331945653       -4.42295033933338       14.06753447112151
H            0.14798459589208       -5.31107679763183       13.57680305708883
H           -0.08527934168255       -3.56821667095968       13.82407732679951
H            0.57831364098065       -4.55574762229375       15.14050563830884
S            2.20934451600109       -4.05622929370442       13.44949892081634
H            2.77454554392451       -5.15562781928719       13.96010403439510
72
 energy: -105.968335224627 gnorm: 0.020619931654 xtb: 6.7.1 (edcfbbe)
Fe           3.46569715669745       -2.85066052643359       15.30702869663133
N            2.00747690527616       -3.08718720050277       16.68833833071360
N            4.20889424049695       -4.66820405614943       15.83027371344163
N            4.91368395238654       -2.61187017856595       13.92344628091662
N            2.76292577744088       -1.04166507370120       14.86004909259238
C            0.94244662130429       -2.26695864035379       16.88180721075302
C            0.10599225211970       -2.76619345943781       17.95377919591372
C            0.71944235551371       -3.89085634755511       18.42223671933221
C            1.90726689440601       -4.07997537216727       17.61227884655470
C            3.81955731658947       -5.46196504775669       16.86838648312304
C            4.59701283679721       -6.67863486514980       16.89063047143170
C            5.46594698320382       -6.60720804092125       15.82259652814520
C            5.20812593432751       -5.32539159736996       15.18548075831736
C            5.74937739838709       -3.59294000255922       13.49074579359737
C            6.53791702677321       -3.12945851616790       12.37178634143483
C            6.17370427512531       -1.81980403081551       12.15080013624874
C            5.15788367956522       -1.52382417979537       13.15573460592417
C            3.36356627538006       -0.11196692491786       14.07556022227972
C            2.60139812584414        1.12162833298840       14.08126852527398
C            1.50317520327077        0.89301040971508       14.85420816845620
C            1.62635113625241       -0.47081241446813       15.33452472827457
C            0.73068486322474       -1.07590917857656       16.20440533847579
H           -0.18418779469064       -0.53873374327258       16.41943643570203
C            2.77511986950262       -5.15318203858045       17.73389300192344
H            2.58909204292437       -5.83398023671658       18.55610989719607
C            5.87564966410993       -4.84785290763232       14.06869779280120
H            6.59098284162085       -5.51719124383635       13.61427002099478
C            4.49203828258991       -0.31594060262044       13.29826018629787
H            4.84671880975489        0.52816194955019       12.71951822733841
C            0.26485569723105       -4.79096601550712       19.51846413401175
H           -0.73692080439597       -4.52219491326337       19.84243303658808
H            0.93054215252592       -4.72890105091991       20.37947170747971
H            0.24505483586245       -5.82675113604816       19.18352197109507
C           -1.15960822862959       -2.15099191385778       18.44435799371191
H           -2.01973656544294       -2.55947339772190       17.91089173395389
H           -1.15890842535434       -1.07350784386373       18.30412014174977
H           -1.29852128362779       -2.35064696170078       19.50488264790578
C            4.44535331654929       -7.78093672186197       17.87767157822714
H            3.85976737872012       -8.59774496319581       17.45094453933419
H            3.93820577036934       -7.44269978525535       18.77704258710203
H            5.41833215567192       -8.17844039258597       18.16139429311113
C            6.46822481157587       -7.54387016006516       15.38414285359417
H            7.22403544203483       -7.13658888457517       14.72298775269041
C            6.55026503006575       -8.83662751220196       15.69310281329004
H            5.82306001889044       -9.33487139021954       16.30732941930146
H            7.34371930786226       -9.45734053581187       15.31275056306603
C            7.54297918587725       -3.95424298443588       11.65123962572114
H            7.07172011351076       -4.47837955646103       10.81741104668472
H            7.98762110734296       -4.69715512891582       12.30820425206705
H            8.34635576219646       -3.33424969412258       11.26229229410130
C            6.61263333014855       -0.89759462142654       11.13544131132680
H            6.33304143014281        0.13676279415315       11.29946573154289
C            7.28797527742997       -1.17314420090466       10.01871485346392
H            7.56396188343521       -2.16902989348671        9.71908281457532
H            7.56766471220228       -0.39666536693551        9.32681981290352
C            2.98376577193920        2.35522025213239       13.34177462309053
H            3.02984547181424        2.15830165360826       12.27153685004386
H            3.96365531379632        2.70879210551293       13.66110923689233
H            2.26047142190252        3.14792545891957       13.50882270161387
C            0.41014868280742        1.84527133160760       15.19902826155610
H           -0.42043511270561        1.75846996941828       14.49757155417356
H            0.77236729971619        2.87050633784144       15.16349170276627
H            0.02860881118212        1.65956321460178       16.19993065048654
O            4.80834451125780       -2.06233394379834       16.85194449897981
H            5.42099428154449       -2.70878681576940       17.21476477046876
H            4.87542450876786       -1.19434501403395       17.25927624704084
C            0.52230914914218       -4.41886753202457       14.07783587670598
H            0.14890173925259       -5.30525840862245       13.57397114034044
H           -0.09403667893480       -3.56194683854215       13.83329371388188
H            0.55983966724825       -4.55726211722268       15.15069337589054
S            2.19877371160635       -4.03905323792866       13.46291984864668
H            2.76140711127391       -5.17237845073841       13.91530168873710
72
 energy: -105.970649705847 gnorm: 0.013522647351 xtb: 6.7.1 (edcfbbe)
Fe           3.46149446868415       -2.85931744833953       15.30121430591472
N            2.02193608779992       -3.08442070502683       16.67614280886382
N            4.20808423071298       -4.65498365125074       15.81893938092958
N            4.90307247506125       -2.62790774072379       13.93018086209015
N            2.77468984691256       -1.04874945493340       14.87425387104605
C            0.95665560381476       -2.26592054845369       16.87631768923566
C            0.11994406604329       -2.77208254555023       17.94074479941376
C            0.72977397807554       -3.89691205697922       18.40492351184124
C            1.91248241442286       -4.08146690797311       17.59355692676434
C            3.81505666143971       -5.44928809925890       16.85389031832350
C            4.58374895281673       -6.66193079974955       16.88524113831076
C            5.45239710444183       -6.59945163287133       15.82017527118837
C            5.20581180475360       -5.32081749610161       15.18133668027597
C            5.74512413644190       -3.60288967645667       13.49676815618164
C            6.53117574778974       -3.14078899227198       12.38159320871205
C            6.16219171283866       -1.83549567105973       12.16199677823198
C            5.14507196987876       -1.54160463629010       13.16148713601083
C            3.36919349475691       -0.12201656439788       14.08215928814244
C            2.60968709277685        1.11068345546547       14.08258912100334
C            1.51451190605072        0.88248799163285       14.85650010010961
C            1.64039925898109       -0.47217321294418       15.34766067448318
C            0.74836452186730       -1.06689336252569       16.22095825060259
H           -0.15221286696878       -0.51891585185000       16.45848529797280
C            2.76459741167383       -5.16021792406256       17.71056635529922
H            2.55854403915786       -5.85960692314565       18.50916327113853
C            5.88193207420036       -4.85360502844754       14.07102928158913
H            6.60668465513840       -5.51655899993865       13.62508330813877
C            4.48003415733385       -0.33594096413946       13.28752929880901
H            4.81119719938517        0.49518418382527       12.67964675763027
C            0.28257485267449       -4.79601792180768       19.50510162254507
H           -0.71670138082934       -4.52128400566948       19.83467828017162
H            0.95621845763636       -4.73233198000135       20.36096498393086
H            0.25802559794377       -5.83367039162453       19.17316086720520
C           -1.14360979616157       -2.15377553054526       18.42981305415468
H           -2.00379542418105       -2.55479254005419       17.89021212194528
H           -1.13196213579268       -1.07524740824889       18.29283505844425
H           -1.28307593719568       -2.35942465862371       19.48941705630332
C            4.44050645969504       -7.75581871659690       17.88155735045597
H            3.85583693116602       -8.57731966782679       17.46204527107658
H            3.93892975413066       -7.41101834356007       18.78228462090283
H            5.42036626919177       -8.14397118540079       18.15718895676332
C            6.45447746789205       -7.53807248468155       15.38783102701266
H            7.21890334632179       -7.11870665165629       14.74468422594548
C            6.53554580058877       -8.83347165430702       15.68440618589845
H            5.80944472980922       -9.34785454314551       16.28769630247869
H            7.34757277947043       -9.43676652649355       15.31343198342801
C            7.54860110216923       -3.95617105062171       11.66696831175087
H            7.09410673182481       -4.47116405169482       10.81730687002362
H            7.97824103420941       -4.70930115719201       12.32521787735013
H            8.35556900913485       -3.32639910569575       11.29801529611403
C            6.60258152340996       -0.90159566859774       11.15891941012858
H            6.35403307141762        0.13594715930372       11.35804179359101
C            7.25463560753088       -1.17054971157527       10.02786772366914
H            7.52742597130523       -2.16182337326378        9.71561376912542
H            7.54627781194455       -0.37805258235241        9.35728081082278
C            2.98816245077078        2.34599733002928       13.34266532029308
H            3.02939741925622        2.15308411687398       12.27048690335262
H            3.96908220818849        2.70207128461739       13.65962597059410
H            2.26205960555313        3.13668839834730       13.51648686935720
C            0.41572982835351        1.83004028878383       15.19447397657562
H           -0.41687235646638        1.73020460306941       14.49652428199457
H            0.77408905701980        2.85671688319452       15.14754275003922
H            0.04003772784692        1.64826685096204       16.19916361727174
O            4.81538801293661       -2.04205814638742       16.83219153684615
H            5.41890251431283       -2.67275509197143       17.24042322798237
H            4.87353251804526       -1.18797966006107       17.26836602190835
C            0.50767047837445       -4.41370377236705       14.08862707346129
H            0.14251535251949       -5.29796028533084       13.57599827276485
H           -0.11148366291478       -3.55661881316151       13.84921791176398
H            0.54035365555287       -4.56133831378677       15.16175015713231
S            2.18232303857007       -4.01955643314640       13.47140960862749
H            2.74273831049308       -5.17884422391306       13.86537182054383
72
 energy: -105.971470124606 gnorm: 0.013706015480 xtb: 6.7.1 (edcfbbe)
Fe           3.46436992633001       -2.86229182425902       15.30292070146101
N            2.02970120904292       -3.08167728872127       16.67049835734100
N            4.20359907899028       -4.65331161530092       15.80849772254201
N            4.89323104172384       -2.64192965887489       13.92844275819293
N            2.77681335242877       -1.05430534039376       14.87656657999987
C            0.96506157893979       -2.26120467780757       16.87612553300811
C            0.12689236381963       -2.77199658715045       17.93624500121168
C            0.73097836181315       -3.90129558032773       18.39234520988265
C            1.91069832990530       -4.08643805046997       17.58053939444560
C            3.80744505946409       -5.44875048960149       16.84215193475972
C            4.57712742435807       -6.65790159296240       16.88012829208118
C            5.44818801700474       -6.59762387542186       15.81956141860812
C            5.20333337291623       -5.32299609917481       15.17627461105809
C            5.74350383875733       -3.61226229631670       13.49743052255941
C            6.53050459778525       -3.14712142380175       12.38658253231501
C            6.15683174676911       -1.84571378185260       12.16711497023053
C            5.13244771704605       -1.55560914610351       13.15698805161502
C            3.36708324249588       -0.13044416327899       14.07603266397631
C            2.61218105729189        1.10310474651496       14.07947530206084