78
 energy: -115.996875546133 gnorm: 0.221091086169 xtb: 6.7.1 (edcfbbe)
Fe          11.64300000000000       -2.38300000000000        1.32900000000000
N           12.27000000000000       -0.68300000000000        2.26800000000000
N            9.96500000000000       -2.41900000000000        2.43500000000000
N           10.99700000000000       -3.99700000000000        0.30500000000000
N           13.31500000000000       -2.31100000000000        0.16100000000000
C           13.46200000000000        0.00400000000000        2.08000000000000
C           13.44900000000000        1.19400000000000        2.89000000000000
C           12.25400000000000        1.19600000000000        3.57900000000000
C           11.51200000000000        0.01100000000000        3.22300000000000
C            9.59900000000000       -1.52300000000000        3.42600000000000
C            8.39900000000000       -1.96800000000000        4.08400000000000
C            8.03700000000000       -3.15100000000000        3.51900000000000
C            9.00700000000000       -3.42700000000000        2.45200000000000
C            9.85600000000000       -4.70900000000000        0.56300000000000
C            9.67200000000000       -5.72700000000000       -0.44400000000000
C           10.74900000000000       -5.61000000000000       -1.30000000000000
C           11.59900000000000       -4.54800000000000       -0.82800000000000
C           13.66700000000000       -3.19200000000000       -0.82100000000000
C           15.00500000000000       -2.97400000000000       -1.25600000000000
C           15.52600000000000       -1.86900000000000       -0.51100000000000
C           14.43100000000000       -1.47600000000000        0.37600000000000
C           14.45800000000000       -0.40500000000000        1.22500000000000
H           15.37000000000000        0.19100000000000        1.22400000000000
C           10.29500000000000       -0.35800000000000        3.71500000000000
H            9.81900000000000        0.33500000000000        4.40800000000000
C            8.96600000000000       -4.50500000000000        1.61400000000000
H            8.18900000000000       -5.25100000000000        1.77800000000000
C           12.79600000000000       -4.17600000000000       -1.31200000000000
H           13.13400000000000       -4.70700000000000       -2.20100000000000
C           11.77500000000000        2.27600000000000        4.56700000000000
H           12.54600000000000        3.07200000000000        4.64900000000000
H           11.61700000000000        1.82400000000000        5.56900000000000
H           10.82800000000000        2.72700000000000        4.20000000000000
C           14.53900000000000        2.24700000000000        2.82600000000000
H           14.97200000000000        2.27100000000000        1.80300000000000
H           15.34300000000000        2.00000000000000        3.55200000000000
H           14.11100000000000        3.24500000000000        3.05900000000000
C            7.68800000000000       -1.19500000000000        5.18700000000000
H            7.85300000000000       -0.10600000000000        5.04200000000000
H            8.09600000000000       -1.49200000000000        6.17700000000000
H            6.59700000000000       -1.40300000000000        5.14800000000000
C            6.91000000000000       -4.05700000000000        3.82400000000000
H            6.54300000000000       -4.74200000000000        3.04600000000000
C            6.30000000000000       -4.09300000000000        5.01000000000000
H            6.62500000000000       -3.43000000000000        5.82500000000000
H            5.46500000000000       -4.78600000000000        5.18700000000000
C            8.48800000000000       -6.61700000000000       -0.53900000000000
H            7.56800000000000       -6.03500000000000       -0.31600000000000
H            8.58000000000000       -7.44300000000000        0.19800000000000
H            8.41200000000000       -7.03100000000000       -1.56700000000000
C           11.02800000000000       -6.34300000000000       -2.58600000000000
H           11.45000000000000       -5.79000000000000       -3.43800000000000
C           10.79400000000000       -7.63400000000000       -2.76000000000000
H           10.37300000000000       -8.24000000000000       -1.94400000000000
H           11.01800000000000       -8.11700000000000       -3.72300000000000
C           15.75500000000000       -3.81300000000000       -2.28100000000000
H           15.32100000000000       -3.64200000000000       -3.28900000000000
H           15.66100000000000       -4.89000000000000       -2.02600000000000
H           16.82600000000000       -3.51900000000000       -2.29600000000000
C           16.86200000000000       -1.25000000000000       -0.60000000000000
H           17.32800000000000       -1.51100000000000       -1.57400000000000
H           17.50700000000000       -1.63000000000000        0.22100000000000
H           16.76900000000000       -0.14500000000000       -0.53000000000000
O           10.61100000000000       -1.19500000000000        0.11900000000000
H           10.90600000000000       -0.30400000000000        0.30900000000000
H            9.99800000000000       -1.42900000000000       -0.48100000000000
C           14.90300000000000       -6.19400000000000        3.86200000000000
H           14.42500000000000       -7.15700000000000        4.14300000000000
H           15.51900000000000       -5.83500000000000        4.71400000000000
H           15.54600000000000       -6.35700000000000        2.97100000000000
N           12.89400000000000       -4.78800000000000        4.45000000000000
H           12.80400000000000       -5.14400000000000        5.38000000000000
C           13.85300000000000       -5.19400000000000        3.54600000000000
C           12.12300000000000       -3.86000000000000        3.88800000000000
H           11.28000000000000       -3.37600000000000        4.37900000000000
N           12.56000000000000       -3.64400000000000        2.66300000000000
C           13.60800000000000       -4.47000000000000        2.41600000000000
H           14.09700000000000       -4.47500000000000        1.45000000000000
78
 energy: -116.033859810132 gnorm: 0.087271721072 xtb: 6.7.1 (edcfbbe)
Fe          11.64866114091138       -2.39806594639952        1.34251627544764
N           12.26569534601613       -0.69779474992823        2.27672865268911
N            9.96804524605015       -2.42982142096428        2.45103556902261
N           10.99668335691875       -3.99121467131582        0.30978020446437
N           13.31834883646074       -2.31460713617157        0.17580875323734
C           13.43643125479218       -0.00561726386613        2.08108071957821
C           13.43804033299794        1.19615426043839        2.88076795700735
C           12.25982566512399        1.20653496556742        3.57539051472881
C           11.53011320578651        0.01483525650977        3.20513079015805
C            9.59927695414752       -1.52535505422282        3.41508995747326
C            8.39671544857447       -1.96329639157937        4.08093427287493
C            8.03557586133200       -3.15564637548098        3.51467224017605
C            9.01988070427489       -3.42327873354568        2.46737418385520
C            9.86838574719930       -4.70685593485732        0.55469398422597
C            9.68391788067243       -5.72216190100238       -0.45764946887893
C           10.74508524487488       -5.60445594251117       -1.31924476911372
C           11.58140511996777       -4.53605635460812       -0.81754970789042
C           13.66450046399777       -3.18573966403305       -0.80958456381048
C           15.00925237425782       -2.96497829560624       -1.24844577333577
C           15.49659959492958       -1.89110320775797       -0.51836121549091
C           14.41544730004719       -1.49253147741311        0.36494542767094
C           14.44623086727207       -0.41347618333425        1.22429789477074
H           15.35589784516377        0.18104806581485        1.22515539239602
C           10.30009448606631       -0.35936618300613        3.70609520716412
H            9.83804802467820        0.32160421734519        4.41421114686385
C            8.98296730253488       -4.50038356576929        1.61102941203212
H            8.19828537389781       -5.23388756902439        1.75788185903814
C           12.80216225680336       -4.16642474050018       -1.31339072440637
H           13.14851185503877       -4.70794052085735       -2.18899221018772
C           11.78368954782325        2.26057527823165        4.55150567441357
H           12.53124673453269        3.05331848681918        4.64661484491072
H           11.61807930503569        1.82776953017159        5.54394342239732
H           10.84556828487789        2.71124947181813        4.20799818904357
C           14.52387698460222        2.23528788075901        2.83043792762214
H           14.96091846979183        2.27307531398065        1.82723307000874
H           15.32598459675032        2.00584117488226        3.54193853270325
H           14.12328127427845        3.22672490161835        3.06238325004441
C            7.69735003406262       -1.19762810456089        5.17191343295307
H            7.85059088638737       -0.12172319518311        5.04572161177147
H            8.08605880556800       -1.48309038560011        6.15733066855625
H            6.62145868502075       -1.39650868699029        5.14637504721157
C            6.91625002237233       -4.04049382071845        3.82665008542237
H            6.57133706082899       -4.71910125340774        3.04810022983158
C            6.30114210342172       -4.08788483451320        5.00701219915798
H            6.61649352093588       -3.45990042206463        5.82850764564211
H            5.47909731713021       -4.77127743457985        5.18649045650643
C            8.49605560912412       -6.61387601628157       -0.54375050443893
H            7.58132120014051       -6.05194585808715       -0.32059462810775
H            8.57291666641194       -7.43573893425999        0.17893834819292
H            8.40846638594798       -7.03307418830790       -1.55032384529468
C           11.01907280348823       -6.33874477294553       -2.56927867248793
H           11.44719079018100       -5.77531640115103       -3.39803269689530
C           10.78591406914892       -7.63229214946220       -2.75271611926333
H           10.38501087121908       -8.24752650858120       -1.95731094130670
H           11.00696561695468       -8.11463267056595       -3.69937444761161
C           15.74356326758273       -3.79508239096663       -2.26872729029705
H           15.32588863676774       -3.64344486628838       -3.27145156399622
H           15.66289351921260       -4.86157067202369       -2.02910227233198
H           16.80329698027225       -3.52624331556731       -2.29493582126485
C           16.84159332558143       -1.26171155007432       -0.60177451238692
H           17.32396569655086       -1.50406453762608       -1.55496503261577
H           17.49502035035039       -1.61625457765850        0.20680807980993
H           16.77283503123815       -0.16998974221852       -0.52856529691113
O           10.63294290031267       -1.17398933102064        0.09729458989388
H           10.88561529956287       -0.26878798235336        0.28438415659564
H            9.96552942157248       -1.40812439769289       -0.52409312253336
C           14.89947015821806       -6.19990958812057        3.86643732135922
H           14.44211954447918       -7.15594189494108        4.14429325035331
H           15.51852059814981       -5.85334098435124        4.70143182789505
H           15.53547671116726       -6.35520079008808        2.99210265449427
N           12.90614754497477       -4.79867896176969        4.45899104774678
H           12.81319652175612       -5.15749978721745        5.39306685285455
C           13.85499095714434       -5.19668967260976        3.55059584851970
C           12.13626310129554       -3.85939023940500        3.88565282970071
H           11.30362756063301       -3.37991191833211        4.36928914881091
N           12.54998736033201       -3.63883512745260        2.65898598918176
C           13.60521724062820       -4.46163019515937        2.42665004800155
H           14.09241553539231       -4.46891136000310        1.46951650437634
78
 energy: -116.045424802734 gnorm: 0.030391038453 xtb: 6.7.1 (edcfbbe)
Fe          11.65554235197409       -2.40907427562032        1.35008012634971
N           12.26120944014762       -0.71232402428555        2.28498042389634
N            9.97373797217236       -2.43701424347911        2.46019316414238
N           11.00114482058135       -3.98554682249547        0.31245456960501
N           13.32387197370271       -2.32472286842903        0.19468827276413
C           13.41701664547550       -0.02253474595742        2.07926937029372
C           13.42946567382810        1.19142035077117        2.86652991762911
C           12.26145580099349        1.20870836408126        3.56775002986636
C           11.54438855042832        0.00721308359525        3.19486398252928
C            9.60862579922250       -1.52973597727021        3.40876339125161
C            8.40204958134772       -1.95620024143861        4.07782058597506
C            8.04568650857012       -3.15787744695686        3.51398380647919
C            9.03522260251265       -3.41854797879083        2.47842039177747
C            9.87673072104956       -4.70114379969862        0.54975880859975
C            9.69210255743065       -5.71676076044235       -0.46190910101985
C           10.74575906127512       -5.59704794419593       -1.32732355248230
C           11.57032404871277       -4.52082718411049       -0.80673625094781
C           13.65789399762995       -3.19068624831091       -0.79472397238131
C           15.00962316793191       -2.95873981838696       -1.24258357526863
C           15.47478990160734       -1.90573498810201       -0.52156939574629
C           14.40229108417002       -1.51116376726846        0.36617109157584
C           14.43765250162760       -0.42613661908642        1.22752270166217
H           15.34059919634567        0.17095215374820        1.22500240005579
C           10.31069467644770       -0.36724052187945        3.70686869213900
H            9.86196916981333        0.30468527327988        4.42662159790616
C            8.99697796922832       -4.49171558997718        1.60668462485650
H            8.20167804018728       -5.21162987109586        1.73528145651054
C           12.80784942143272       -4.16401255034790       -1.31059964704467
H           13.16151490451409       -4.71563551739704       -2.17234924453884
C           11.78689144070222        2.24278508040958        4.53413598473859
H           12.52433631764333        3.03337878562670        4.63600475286949
H           11.61971575684415        1.81186518377181        5.51968368234709
H           10.85074457419516        2.68995691191377        4.20250127325125
C           14.51149318647912        2.22096998001085        2.83041054737257
H           14.95290867704997        2.27042132995776        1.83817911994143
H           15.30594079407496        1.99200243050459        3.54003129502620
H           14.11957672825094        3.20564394344237        3.07164204180970
C            7.70589253232355       -1.19555293202925        5.15508705250916
H            7.85643085984193       -0.12633572741028        5.03728981109635
H            8.08460507775239       -1.47904598151217        6.13792777521924
H            6.63793572440666       -1.39521606425024        5.13258173657977
C            6.93419929145855       -4.02670668788952        3.83131866097822
H            6.60169798655794       -4.68987594209937        3.04248887395896
C            6.31094804333613       -4.08817708275984        5.00649196942322
H            6.61120817110942       -3.48479403229389        5.84081412367641
H            5.48664747352449       -4.75818542249846        5.17575089339239
C            8.50298734068143       -6.61161923825049       -0.54705390718629
H            7.59249302796213       -6.05795535517455       -0.32451245387334
H            8.57732050384573       -7.43102912071419        0.16798480147145
H            8.41550699661274       -7.03267714896626       -1.54407210771969
C           11.01844886663593       -6.33134029163688       -2.54702838023701
H           11.45071648094184       -5.75672379982265       -3.35821521292541
C           10.78269864819186       -7.62559737050378       -2.73951983515530
H           10.38832287824530       -8.25146415496195       -1.96095968366481
H           10.99501946823074       -8.10506408939848       -3.67952396831994
C           15.72995163240626       -3.78116622071939       -2.26005864668398
H           15.31351091993152       -3.63373194667156       -3.25604985858761
H           15.65267369762688       -4.84108305815780       -2.02213820982957
H           16.78349132904723       -3.52019906536196       -2.29000076863294
C           16.82365745671298       -1.26677786400854       -0.59971223038833
H           17.30887885136946       -1.50486191425030       -1.54316390719880
H           17.47155070306768       -1.61400731165824        0.20693862302711
H           16.75517433404142       -0.18362391533068       -0.52403547204155
O           10.67845944780201       -1.15057120916787        0.02711609863089
H           10.82558727440767       -0.21880679034803        0.24523396917016
H            9.92993764601269       -1.36669184555296       -0.54385472271662
C           14.89929774661122       -6.20580679525423        3.86780230235932
H           14.44970951768052       -7.15663994770110        4.14485473206541
H           15.52008064396647       -5.86715173347726        4.69517411695563
H           15.53010360459700       -6.35716143670521        3.00037465352264
N           12.91765073969784       -4.80478779897342        4.46861336301685
H           12.82251826080336       -5.16526462212860        5.40429397554063
C           13.85760386246582       -5.19745340924753        3.55440102902371
C           12.14810450464968       -3.85793662396033        3.88801268244915
H           11.32485972192099       -3.37853199815827        4.37065826257972
N           12.54335281789849       -3.63042086724546        2.65939398613986
C           13.60288065636619       -4.45544589170692        2.43562361572494
H           14.09440964365750       -4.46446635813243        1.48616889285840
78
 energy: -116.048397676571 gnorm: 0.057245218909 xtb: 6.7.1 (edcfbbe)
Fe          11.65911832675162       -2.41000391918288        1.34694625015567
N           12.26001521321101       -0.72513936883242        2.28789410109196
N            9.97944561050808       -2.43556743194518        2.45781111464111
N           11.00519824876434       -3.98093486798702        0.31449823673317
N           13.32835094658166       -2.34257015733644        0.21418388850985
C           13.40999221369804       -0.03701774924728        2.07500775986672
C           13.42548167878667        1.18266045046044        2.85432610993464
C           12.26136539879367        1.20256103864106        3.55890086813779
C           11.54932643632339       -0.00272575174061        3.19035765646825
C            9.61836855945313       -1.53012174044581        3.40558451981668
C            8.41312213127778       -1.95134184707468        4.07688544651007
C            8.05879129230783       -3.15616429581186        3.51607568011300
C            9.04537592334646       -3.41482729948994        2.48219161257070
C            9.87752089917347       -4.69497534400116        0.55006856361974
C            9.69401619407352       -5.71196394170675       -0.45770283289748
C           10.74767617072141       -5.59232215193025       -1.32259789746965
C           11.56857280587004       -4.51419626517269       -0.79738157368107
C           13.65345689257303       -3.20411019200632       -0.78118329278051
C           15.00617258835683       -2.96140415066941       -1.23879306252711
C           15.46614427802091       -1.91057756147216       -0.51802802062027
C           14.39609679327300       -1.52518412047891        0.37563625108815
C           14.43515461938328       -0.43607722274286        1.23044040580805
H           15.33269907142739        0.16451685944310        1.22387776140209
C           10.31927278020375       -0.37252728010724        3.71225098420545
H            9.88408396009146        0.29031087096326        4.44663898552018
C            9.00078002365105       -4.48366462006326        1.60367077871540
H            8.19541568389702       -5.19285447094938        1.71893949412147
C           12.81335668704318       -4.17176655836429       -1.30427552112352
H           13.17183392625745       -4.73035496500041       -2.15702135272378
C           11.78359843151185        2.22831262521565        4.52344135787900
H           12.51699339780977        3.02156963006297        4.62958969214946
H           11.61725043588877        1.79084819777593        5.50591422600067
H           10.84491401046638        2.67117646925676        4.19443806530418
C           14.50658637613581        2.20829519514487        2.82967528392162
H           14.95225415326265        2.27029130470302        1.84094034954861
H           15.29537000926073        1.96889509274309        3.54142031830396
H           14.11426430829427        3.18929299136460        3.08387404074123
C            7.71317916114580       -1.18924019391155        5.14428013202540
H            7.86323590494086       -0.12045108680287        5.02615913505204
H            8.08539071193812       -1.47124622297653        6.12970837888214
H            6.64645940236512       -1.39238414765409        5.11600404315185
C            6.94563593370678       -4.01479864455722        3.83175662275572
H            6.62102129547189       -4.66925776181951        3.03338628639140
C            6.31551293058691       -4.08707061811080        5.00248308571164
H            6.61944752921787       -3.51266246251782        5.85769340527591
H            5.48945891800413       -4.75692638536951        5.15907291214026
C            8.50789365236417       -6.61074559539341       -0.54754922841288
H            7.59592864381602       -6.06107837851158       -0.32676607545717
H            8.58452205369580       -7.43134579132257        0.16457497146150
H            8.42623436570905       -7.03102682224189       -1.54491528465643
C           11.02122429794411       -6.32612249212956       -2.53318012123086
H           11.46635830970083       -5.74706346410645       -3.33347373555808
C           10.77688993306669       -7.61828158408212       -2.73132057474977
H           10.38857766979024       -8.25216536423784       -1.95613758616072
H           10.99089024934126       -8.09722231289747       -3.66978361944299
C           15.71745235361710       -3.77632138663216       -2.26161082698577
H           15.29317206478243       -3.62531881681219       -3.25249233993986
H           15.64121695869610       -4.83509691793924       -2.02293949794723
H           16.77010879348381       -3.51436963102877       -2.29597127597451
C           16.81216926253734       -1.26418821499581       -0.59374249243733
H           17.29881143682268       -1.50340715991809       -1.53462300783579
H           17.45329727553136       -1.60941172050396        0.21706956528414
H           16.73441485704671       -0.18347845970330       -0.51894873430115
O           10.74227407089812       -1.12740355984781       -0.07430553216748
H           10.74425552248909       -0.17629774515075        0.22854488203890
H            9.88536957622759       -1.31954841064170       -0.54348298814454
C           14.89967148806822       -6.20984402630474        3.86595930906893
H           14.44943390429868       -7.15993103262974        4.14285804142372
H           15.52486155501506       -5.87715545173794        4.69208378744181
H           15.52789903989925       -6.36131724381729        2.99736817572574
N           12.92641614755588       -4.80281860319237        4.47718330439490
H           12.83166637428984       -5.16400330712649        5.41295226823343
C           13.86025954875044       -5.19535668074335        3.55734375439897
C           12.15655445338307       -3.85296340110339        3.89603381760294
H           11.34003725496116       -3.36934357800059        4.38421437666301
N           12.54057764721540       -3.62340092789215        2.66411085859642
C           13.60205453665200       -4.45100150903189        2.44144582658191
H           14.09872843852243       -4.46127033861932        1.49545973204471
78
 energy: -116.050890739919 gnorm: 0.025829226523 xtb: 6.7.1 (edcfbbe)
Fe          11.65574814415442       -2.40630357704730        1.34289593146852
N           12.25730714103220       -0.73419994243324        2.28678941213087
N            9.98178535952679       -2.43085199392707        2.45317800162470
N           11.00583140318125       -3.97558478513827        0.31549607993210
N           13.32583125936658       -2.35731666731069        0.22988343902745
C           13.40658319967533       -0.04730986535200        2.07053311351795
C           13.42252814435104        1.17413781689073        2.84566276284510
C           12.25971495791226        1.19439588319572        3.55189675388316
C           11.54875702975977       -0.01163057219352        3.18998392392151
C            9.62533799622000       -1.52968462621592        3.40729587123882
C            8.42360332988659       -1.94973690205084        4.07973722915703
C            8.06994091098050       -3.15457642545842        3.52095981082267
C            9.04923383436063       -3.41197648802524        2.48284272990919
C            9.87370077810473       -4.68892090920826        0.55164109187998
C            9.69251049720756       -5.70801436216374       -0.45162781364204
C           10.74947868188421       -5.58971301140490       -1.31347773829168
C           11.56893432199358       -4.51115090685439       -0.79066861931797
C           13.64798815617327       -3.21577833179575       -0.76987383949859
C           14.99885894275406       -2.96524089622837       -1.23525715139253
C           15.46006096477206       -1.91120517974888       -0.51281573891389
C           14.39017865908801       -1.53503838908785        0.38638592537371
C           14.43322816043081       -0.44363832570973        1.23299737668832
H           15.32726628767327        0.15978167924188        1.22252827305443
C           10.32544079577938       -0.37667093778176        3.72146500879208
H            9.90205543924230        0.27841712902493        4.46902748106891
C            8.99801656408764       -4.47670465838654        1.60132030181620
H            8.18617192342916       -5.17927326694839        1.70831015966562
C           12.81608989461900       -4.18117047329091       -1.29706071389003
H           13.17882704865368       -4.74508569343829       -2.14333177855205
C           11.77743947021972        2.21699740331276        4.51785254750569
H           12.50896074359534        3.01398414087384        4.62618211714653
H           11.61337449811381        1.77101400440388        5.49865730686880
H           10.83516644092481        2.65491320815640        4.18747154177938
C           14.50470770610939        2.19778877409707        2.82976599892984
H           14.95253246481931        2.27130750975712        1.84124980982341
H           15.29022196699331        1.94484386260363        3.54293339383010
H           14.11010377815367        3.17639734522586        3.09739440659921
C            7.71799839278498       -1.18357997159406        5.13986131012966
H            7.86851751659790       -0.11353861252857        5.01669585510832
H            8.08595066653239       -1.46293838555401        6.12914685181126
H            6.65047430179666       -1.39081843355614        5.10347762474676
C            6.95506641549242       -4.01035187946111        3.83384649999582
H            6.62863312620656       -4.65260109205576        3.02493240689058
C            6.32360144414291       -4.09368136596640        5.00279297352496
H            6.62795974051167       -3.53493773430070        5.87183918925763
H            5.48864968537550       -4.75912548846176        5.14422370360842
C            8.51125636907034       -6.61124026230826       -0.54694374478734
H            7.59543291669725       -6.06491820883790       -0.32786737064253
H            8.59187435560477       -7.43417372289879        0.16393219588707
H            8.43662047855402       -7.02954934659727       -1.54779125260705
C           11.02758727639937       -6.32405308129789       -2.52296580653269
H           11.48126696096271       -5.74259267089729       -3.31787571864473
C           10.77620827606768       -7.61389180122199       -2.72377822599783
H           10.38228621820729       -8.25035603525109       -1.95060638537469
H           10.98814040667461       -8.09143791437989       -3.66500460503682
C           15.70456189044695       -3.77318183311011       -2.26647474784355
H           15.26995150125793       -3.61613640590513       -3.25316801054238
H           15.62994938480513       -4.83332494792067       -2.02842262251194
H           16.75775981649218       -3.50688606850095       -2.30636252046289
C           16.80107400103759       -1.25937882918945       -0.58778811566439
H           17.28984740662275       -1.50130461604004       -1.52810687470095
H           17.43713467526488       -1.60244931544142        0.22881305833008
H           16.71281007414421       -0.17848817292446       -0.51616399711614
O           10.71696053393869       -1.09157388665954       -0.08746205966592
H           10.77273005585537       -0.16624704212492        0.14017661860984
H            9.89911888160944       -1.27390157876825       -0.57729437818104
C           14.90121378292078       -6.21240315407099        3.86211669187527