87
 energy: -128.238369009970 gnorm: 0.267108390659 xtb: 6.7.1 (edcfbbe)
Fe           8.78000000000000       -1.10300000000000       12.42700000000000
N            7.68500000000000       -2.35600000000000       13.50400000000000
N           10.47100000000000       -1.81600000000000       13.19200000000000
N            9.85800000000000        0.23100000000000       11.38100000000000
N            7.09700000000000       -0.32100000000000       11.66200000000000
C            6.29300000000000       -2.47300000000000       13.54600000000000
C            5.89100000000000       -3.36100000000000       14.59900000000000
C            7.04400000000000       -3.82500000000000       15.13200000000000
C            8.17500000000000       -3.20000000000000       14.44400000000000
C           10.54600000000000       -2.78900000000000       14.13300000000000
C           11.91800000000000       -3.05400000000000       14.47400000000000
C           12.67300000000000       -2.15200000000000       13.67500000000000
C           11.76000000000000       -1.43000000000000       12.89500000000000
C           11.24000000000000        0.35800000000000       11.33400000000000
C           11.60300000000000        1.49700000000000       10.53100000000000
C           10.46400000000000        2.06500000000000       10.13600000000000
C            9.35100000000000        1.27000000000000       10.64400000000000
C            6.95500000000000        0.77500000000000       10.85200000000000
C            5.57500000000000        0.98200000000000       10.53300000000000
C            4.84100000000000        0.06200000000000       11.18800000000000
C            5.78800000000000       -0.76800000000000       11.87800000000000
C            5.43900000000000       -1.77700000000000       12.74400000000000
H            4.38400000000000       -2.04500000000000       12.79400000000000
C            9.49500000000000       -3.42100000000000       14.73700000000000
H            9.72400000000000       -4.15500000000000       15.50900000000000
C           12.08500000000000       -0.43600000000000       12.03300000000000
H           13.14900000000000       -0.25500000000000       11.88500000000000
C            8.02600000000000        1.47800000000000       10.41900000000000
H            7.79200000000000        2.34100000000000        9.79600000000000
C            4.41700000000000       -3.66300000000000       14.93200000000000
H            4.10300000000000       -3.97500000000000       13.91300000000000
H            4.09100000000000       -2.61500000000000       15.10400000000000
H            3.94200000000000       -4.33600000000000       15.67800000000000
C            7.20300000000000       -4.82600000000000       16.28200000000000
H            7.85800000000000       -4.18000000000000       16.90400000000000
H            7.83400000000000       -5.55600000000000       15.73200000000000
H            6.49200000000000       -5.36300000000000       16.94600000000000
C            3.35100000000000       -0.13100000000000       11.22200000000000
H            2.54800000000000       -0.73600000000000       11.69500000000000
H            3.30200000000000       -0.26600000000000       10.12000000000000
H            3.19600000000000        0.93800000000000       11.48100000000000
C            5.10400000000000        2.12900000000000        9.72500000000000
H            5.16600000000000        3.13000000000000       10.06300000000000
C            4.01400000000000        2.15200000000000        8.98100000000000
H            3.66600000000000        1.24100000000000        8.47200000000000
H            3.44000000000000        3.08300000000000        8.86000000000000
C           10.29200000000000        3.33700000000000        9.30800000000000
H            9.68200000000000        3.90700000000000       10.04100000000000
H            9.61600000000000        2.87900000000000        8.55500000000000
H           10.99900000000000        4.03300000000000        8.80900000000000
C           12.98000000000000        2.00000000000000       10.18900000000000
H           13.31100000000000        2.99800000000000       10.39400000000000
C           14.08600000000000        1.29500000000000       10.07900000000000
H           14.04200000000000        0.21700000000000        9.86500000000000
H           15.06800000000000        1.77500000000000       10.19900000000000
C           14.18600000000000       -2.03500000000000       13.62400000000000
H           14.25000000000000       -1.90700000000000       14.72600000000000
H           14.98800000000000       -1.43500000000000       13.14400000000000
H           14.31700000000000       -3.11000000000000       13.37800000000000
C           12.48100000000000       -4.03200000000000       15.47100000000000
H           13.10400000000000       -3.24600000000000       15.94900000000000
H           13.09400000000000       -4.56600000000000       14.71400000000000
H           12.13700000000000       -4.74300000000000       16.25200000000000
C            9.32700000000000       -5.84300000000000        9.54600000000000
H           10.22300000000000       -5.96000000000000        8.90000000000000
H            8.43200000000000       -6.18700000000000        8.98600000000000
H            9.46000000000000       -6.45700000000000       10.46200000000000
N            8.99300000000000       -3.39800000000000        9.00700000000000
H            8.99000000000000       -3.52000000000000        8.01500000000000
C            9.16700000000000       -4.40900000000000        9.91900000000000
C            8.83300000000000       -2.25300000000000        9.65800000000000
H            8.65800000000000       -1.29400000000000        9.17200000000000
N            8.91900000000000       -2.47000000000000       10.94600000000000
C            9.12000000000000       -3.81100000000000       11.12800000000000
H            9.21300000000000       -4.22500000000000       12.12400000000000
C            9.88000000000000        2.74400000000000       16.27000000000000
H            9.70900000000000        2.44400000000000       17.32600000000000
H            9.46600000000000        3.76300000000000       16.11400000000000
H           10.97200000000000        2.74300000000000       16.06800000000000
N            7.84300000000000        1.54700000000000       15.37800000000000
H            7.19200000000000        2.01400000000000       15.97600000000000
C            9.19900000000000        1.77800000000000       15.36100000000000
C            7.55400000000000        0.60700000000000       14.47200000000000
H            6.54900000000000        0.23600000000000       14.27300000000000
N            8.66600000000000        0.22300000000000       13.88300000000000
C            9.71200000000000        0.90700000000000       14.45500000000000
H           10.73500000000000        0.70800000000000       14.16100000000000
87
 energy: -128.350325897826 gnorm: 0.147512678291 xtb: 6.7.1 (edcfbbe)
Fe           8.77457904023268       -1.09498602925619       12.42045853916204
N            7.67490513903045       -2.35720795754341       13.51085953334872
N           10.45202168266906       -1.81346088977714       13.18601547448233
N            9.86918495522014        0.23987048839228       11.37601789613051
N            7.09020794305384       -0.33039629192265       11.66318721312951
C            6.30012377065758       -2.47445887345644       13.55593998622256
C            5.89080321483492       -3.37920289363291       14.60333716917531
C            7.03130565864471       -3.84050575765345       15.14784680194149
C            8.15172496080603       -3.20481269640545       14.45664543703579
C           10.53997691438944       -2.78157970507847       14.12935506259896
C           11.90884246254942       -3.03614452628996       14.46263317599395
C           12.65536487085510       -2.16223311993379       13.67560697903978
C           11.73597894962474       -1.43429647129128       12.89685394452603
C           11.23796900674428        0.35802909763349       11.32104216728857
C           11.62391304645246        1.49720066720485       10.51999266242998
C           10.47337502114386        2.07729375009457       10.12593950983625
C            9.37104927961775        1.27668504182888       10.64131850894157
C            6.96111120194708        0.75955804905232       10.85137871349004
C            5.58026762185189        0.98579425802125       10.52854576322650
C            4.85812960218872        0.03744315224446       11.19055594217299
C            5.80528369701302       -0.77315133291314       11.88384482949325
C            5.44036903265526       -1.78251021071745       12.74546983606357
H            4.38623594513913       -2.03592002123228       12.79705819366442
C            9.48311100508220       -3.42551680735462       14.74183938910621
H            9.72373451509832       -4.15408552390174       15.50735586282536
C           12.09236813142480       -0.43771354697676       12.02423380783756
H           13.15273168992902       -0.25328622019546       11.89208648497221
C            8.03298824281495        1.49377807222382       10.40728415708549
H            7.78972117335726        2.35117572536746        9.78867427351235
C            4.42352361502487       -3.63797625384205       14.89896333011048
H            4.06216281667500       -3.97206210383476       13.91862245755508
H            4.05260043825083       -2.62472918376854       15.10110483878967
H            4.01511714685148       -4.31973488280274       15.66325578122975
C            7.24829472155867       -4.81852669483240       16.27716644330964
H            7.88013888481390       -4.21491754781380       16.93848464973825
H            7.85181791285382       -5.58134582422044       15.77111946989268
H            6.48028085894262       -5.31820977814765       16.88962875836965
C            3.35824792599483       -0.09229546068872       11.18682036389696
H            2.63381738127409       -0.74217442892553       11.70806026844623
H            3.23486443120099       -0.24955124114771       10.10903299996048
H            3.12979313998480        0.94890365051961       11.45249472106157
C            5.06006229283915        2.13169069551764        9.77256794079932
H            5.22193738155391        3.14582578307036       10.09640204102216
C            3.99362043118282        2.14036427994463        8.97532762158531
H            3.64846128956917        1.24453738747406        8.47149793156121
H            3.45022509542444        3.06785984526847        8.81538857190693
C           10.24644995370396        3.32704105624283        9.31281975726855
H            9.66234270684975        3.93660346196718       10.01333019105708
H            9.59374792699930        2.92509651803987        8.52961387278089
H           11.01014837574777        3.97126081718405        8.84739540483032
C           12.98782489950604        1.99127931408677       10.24678553125167
H           13.26109774634456        3.02752467114074       10.39519102913795
C           14.09302329402194        1.27399858405621       10.08433131825000
H           14.05580029909244        0.21243656994961        9.86872569595667
H           15.06485494370148        1.75413630938066       10.16660383923892
C           14.16849647507849       -2.07904702785409       13.66594742208468
H           14.31515404633142       -1.92792069209085       14.74368675029228
H           14.89535073197466       -1.43383722153469       13.13620425062883
H           14.37884733643316       -3.12278850009808       13.39862144719688
C           12.52097566465516       -4.00246748191141       15.44503521429683
H           13.15410494579644       -3.28245334300310       15.98102333168254
H           13.13556768830464       -4.59096302779082       14.74945760581010
H           12.09221193916436       -4.69244202904924       16.19475432745898
C            9.32944364546119       -5.84154602065285        9.54172532078761
H           10.21375592647843       -5.96649937704031        8.90382162293987
H            8.44534803686659       -6.19015913890622        8.99207288694563
H            9.45650902360331       -6.44763565801645       10.44556077976698
N            8.99135840472609       -3.40786165224807        8.99925600793570
H            8.98887142945752       -3.52760502368843        8.00315793207377
C            9.16640038075175       -4.41240788384955        9.91687223089824
C            8.83496521685299       -2.25253201309373        9.66337124338425
H            8.66238776569655       -1.30234520940700        9.18314451739636
N            8.91310811157989       -2.46155539991526       10.95412592030962
C            9.11800247024259       -3.80158201158748       11.13055887857648
H            9.21205985539876       -4.21711035613883       12.11726329674764
C            9.87682878962253        2.74318093181388       16.27334350254411
H            9.71395112571023        2.45374848803795       17.31967699847741
H            9.47535772434502        3.75362793808728       16.12030110589002
H           10.95347196132045        2.74544586467379       16.07108452084096
N            7.84560149059704        1.55661950665375       15.38367021319244
H            7.18935745652445        2.02433629273887       15.98183138002909
C            9.20098458063876        1.77362105503986       15.37118828876524
C            7.56175837112802        0.60845274594502       14.47171031074343
H            6.56669566987619        0.24125932591975       14.27222959678322
N            8.66672430473692        0.20973661219615       13.88605306737477
C            9.70276899724978        0.90627617700516       14.44887025029619
H           10.71994674840588        0.71405915941586       14.15626763410905
87
 energy: -128.413381260986 gnorm: 0.066757053033 xtb: 6.7.1 (edcfbbe)
Fe           8.77363905886877       -1.09285925499174       12.41797887062274
N            7.66514374104318       -2.36104090006173       13.52012116150223
N           10.44151384476789       -1.81352725363341       13.18315650579267
N            9.87807596957345        0.24635155392595       11.36813409737795
N            7.08620707196586       -0.33723379092714       11.66080398501749
C            6.30822213509984       -2.47463813802671       13.56305753986692
C            5.88736248892582       -3.39385744764233       14.60634109320373
C            7.02300929055253       -3.85484208281964       15.16488093385440
C            8.13417083645627       -3.20937275591693       14.46964177764518
C           10.53638678011291       -2.77903814299736       14.13177409989583
C           11.90850700060103       -3.02610977073704       14.45775459689950
C           12.64882670411988       -2.17315514373050       13.67766715246723
C           11.71833533231761       -1.43537621291677       12.89651771030819
C           11.23300122386636        0.35830767171681       11.31086786488057
C           11.63932143518494        1.50224156626099       10.51059986195686
C           10.47573777859564        2.09134938944903       10.11957417269703
C            9.38503093979953        1.27988295248624       10.63666904406639
C            6.97049982258068        0.74991196160880       10.85183812827587
C            5.58465595500340        0.99559634561742       10.52375032206829
C            4.86871702437264        0.02145044237777       11.18682787425422
C            5.81937778076606       -0.77577104770026       11.88353536936607
C            5.44052895472361       -1.78839701004182       12.74542678583797
H            4.38795009526074       -2.02562779173555       12.80027826998785
C            9.47312514525431       -3.42884117818766       14.74644408533219
H            9.72434171317122       -4.15328503519142       15.50600056958142
C           12.10094970722654       -0.43934956908389       12.01628292871955
H           13.15686681493146       -0.25201606689856       11.89981087587886
C            8.03784882148702        1.50828645634651       10.39579383011153
H            7.78481652545561        2.35963756544830        9.78239842650214
C            4.43000549825853       -3.61709775257182       14.86854813128199
H            4.02081839467969       -3.96966131270814       13.92215036538122
H            4.01778858531733       -2.63335203228683       15.09775181191126
H            4.09842062845616       -4.31048511005851       15.65417097516208
C            7.28895306087015       -4.81267700169479       16.27220566526848
H            7.90296020956199       -4.25225600671863       16.97395089345522
H            7.87260879352136       -5.60899767235556       15.81295318586001
H            6.45957727029970       -5.26990060958634       16.83027368023232
C            3.36936391678830       -0.05273453261463       11.14892426000379
H            2.73936296132559       -0.75409082644759       11.72785210079095
H            3.16978083287963       -0.23396871176419       10.09566340319950
H            3.07151677169791        0.95984968110785       11.42341636481232
C            5.01819158454337        2.13418199164564        9.81357948285912
H            5.27926502107718        3.14579099384794       10.13212670465974
C            3.98437205470159        2.13055343640597        8.97249852758900
H            3.63139375880505        1.24317111997334        8.48300732765991
H            3.46925864780092        3.05718581138952        8.77005653026861
C           10.20507123578461        3.31732977975793        9.31825148010137
H            9.63963579511866        3.96810521505187        9.98398532129139
H            9.57106869403741        2.97254507886443        8.50374372335651
H           11.03036137153904        3.90420210427090        8.88888011347367
C           12.99387999710708        1.98075904646573       10.29146492854911
H           13.20323412061540        3.04570379394386       10.40102065455854
C           14.09266951142730        1.25721258972950       10.08730734448812
H           14.06286317057890        0.20468609877283        9.88080057242940
H           15.05873087789736        1.73742653093255       10.13318622500447
C           14.15020248133096       -2.12154419617311       13.70438489959590
H           14.37334998708266       -1.94850768792417       14.75812894867711
H           14.78584405426917       -1.42543149547361       13.12097100829511
H           14.43654416386026       -3.13594140217559       13.42113463292240
C           12.55868594382001       -3.97624310659993       15.42105759581754
H           13.19945773811580       -3.31746297001485       16.00969029226732
H           13.17387986952890       -4.61280719797908       14.78154931698854
H           12.02957160625565       -4.63658212146852       16.13283994135693
C            9.33157913298031       -5.83961599340999        9.53972959989493
H           10.20799965587531       -5.96970681078631        8.90585690666678
H            8.45471677330407       -6.19183107384543        8.99561530393590
H            9.45454229269108       -6.44110106135299       10.43572492782888
N            8.98921039694350       -3.41470929938446        8.99368324322462
H            8.98724598614968       -3.53183950852843        7.99493841508757
C            9.16502811726661       -4.41283127174913        9.91696505202003
C            8.83530897588600       -2.25165267658936        9.66683537857647
H            8.66610876924522       -1.30715978077312        9.19128314175977
N            8.90827279219685       -2.45322047605992       10.95868578002453
C            9.11454280970630       -3.79182343644222       11.13173506161396
H            9.21074558179287       -4.21187548120883       12.11133242270182
C            9.87542264532301        2.74250532880559       16.27630156038062
H            9.71737367209141        2.46184024356768       17.31733870672835
H            9.48046869766930        3.74684169878023       16.12355207720655
H           10.94217615374379        2.74687504708057       16.07277593168048
N            7.84772789812131        1.56462507956516       15.38908335505663
H            7.18691932704035        2.03200686812860       15.98613460634033
C            9.20307456015591        1.76882956084393       15.37960432992145
C            7.56739826324494        0.61112235150823       14.47223902316337
H            6.57976144848448        0.24631891106228       14.27246314603080
N            8.66528417572337        0.20443386775763       13.88386354791512
C            9.69392732155966        0.90431906334488       14.44461788421638
H           10.70830595176623        0.72201001214398       14.15218625448469
87
 energy: -128.439985589028 gnorm: 0.047464108585 xtb: 6.7.1 (edcfbbe)
Fe           8.77558401805410       -1.09287352889751       12.41732315166787
N            7.66522188757915       -2.36166985561523       13.52577604745052
N           10.44062877716755       -1.81630545752115       13.18442273403836
N            9.87939246280184        0.24607971753366       11.35876174993488
N            7.08700897901092       -0.33924468513645       11.65201960529888
C            6.31567478678336       -2.47195301053341       13.56152044265315
C            5.88996948164464       -3.39798141732775       14.60073819032277
C            7.02706098605316       -3.85966669529858       15.16986753790784
C            8.13205387284791       -3.20839429371940       14.47625118341956
C           10.53577669227772       -2.78066650822732       14.13827698132263
C           11.91346352340218       -3.02646281600983       14.45949985604128
C           12.65085664262913       -2.18173465419385       13.67842684103159
C           11.71336044824458       -1.43677444787762       12.89298246018518
C           11.22791200686581        0.35412716350101       11.30304818203432
C           11.63598956317936        1.50557051333274       10.50744011442100
C           10.46615565979411        2.09650915999919       10.11640350427446
C            9.38575958481059        1.27903764380999       10.63102320199803
C            6.97850784843353        0.75015858380955       10.84884259634849
C            5.59053864904686        1.00450923800112       10.51961177740751
C            4.87170128596502        0.02138004491689       11.17002484973877
C            5.82255681697557       -0.77652609383726       11.87456673083707
C            5.44224377749369       -1.78905312829045       12.74228793947682
H            4.38961068185413       -2.01422501453157       12.80490051565437
C            9.47047171478313       -3.42793124183171       14.75075722536833
H            9.72495196696146       -4.15353391454532       15.50730838096037
C           12.10367317005020       -0.44312081737315       12.01035933829658
H           13.15856477074237       -0.24963669096640       11.90794874230353
C            8.03886656466103        1.51654420618477       10.38718574084911
H            7.78041381606512        2.36734024398803        9.77685240641818
C            4.43769784097632       -3.61052800848397       14.85294461424308
H            3.98099721367343       -3.97379878556072       13.92967976506651
H            3.98639174552414       -2.64603818063605       15.09838462758542
H            4.18130713238395       -4.31436342217988       15.65587726764713
C            7.30790523612756       -4.81211394395309       16.27152178388971
H            7.91883009703145       -4.29325860785959       17.01203192148013
H            7.88820579822164       -5.63932525282611       15.85829214900601
H            6.43000214049983       -5.23010023841459       16.78170999966343
C            3.38037546673035       -0.03328822242480       11.12482064025057
H            2.84033751716823       -0.76927091799972       11.75132128308790
H            3.10431335155087       -0.22861503929343       10.08704813069664
H            3.01836353864149        0.96261616271776       11.39380321935569
C            5.00232590244456        2.14291611795667        9.83985989154315
H            5.32052065883187        3.13675444620951       10.16789753922843
C            3.98759474851631        2.13039910510219        8.97869422483485
H            3.61708981280515        1.23711763196592        8.51020877614635
H            3.50233484488864        3.06086390876521        8.70845672654618
C           10.18238594497477        3.31443527191898        9.31863035910075
H            9.61936971990437        4.00390931026383        9.95050756854697
H            9.55385509197254        3.02303885022941        8.47480595511204
H           11.05866024692684        3.84811398874297        8.92452534945725
C           12.99211331446063        1.97747132423581       10.31907547037820
H           13.15345893865187        3.05283284911941       10.41426024823832
C           14.08490717662159        1.25018941803052       10.09737817913876
H           14.05888656372619        0.19451824691127        9.90093489321109
H           15.05551868995385        1.72793643915019       10.08708692114950
C           14.13936770768472       -2.14581894322731       13.72339909663753
H           14.42839767660274       -1.96530305290604       14.76324908167829
H           14.68643502459912       -1.41285613012322       13.10123424701247
H           14.49297360654877       -3.14284572218944       13.44192238158261
C           12.57560240095123       -3.96520536840638       15.41025939188474
H           13.23474888491525       -3.35868636828688       16.03955558203527
H           13.20425097995438       -4.63636271787252       14.81767479295813
H           11.96009383203021       -4.58983139104112       16.08114986629019
C            9.33274824570461       -5.83667440605103        9.53911435881679
H           10.20797290404721       -5.96983373402086        8.90509385644548
H            8.45838681525210       -6.19370453712462        8.99546198914758
H            9.45476739569438       -6.43790952678618       10.43401495391548
N            8.98598615536620       -3.41584029396584        8.99102595763133
H            8.98397214621739       -3.53250343174927        7.99137336594459
C            9.16255099594248       -4.41028001101898        9.91750890642635
C            8.83382677174994       -2.25045634064009        9.66635846774005
H            8.66920252026844       -1.30534883222971        9.19339501443672
N            8.90467025141609       -2.44808564726506       10.95828488947394
C            9.11045151708501       -3.78564369944816       11.13103244867172
H            9.20863449275296       -4.20882701982354       12.10860251664013
C            9.87547445433537        2.74184878212466       16.27983432328407
H            9.72092294880086        2.46884479317650       17.32290935182324
H            9.48141033475973        3.74520360824641       16.12470483157959
H           10.94051423359902        2.74801210503984       16.07363472623006
N            7.84826401013324        1.56845968330411       15.39449632844889
H            7.18559960482558        2.03752737386138       15.98908590862146
C            9.20406127593659        1.76561813716187       15.38581906964521
C            7.56810116073747        0.61558833282262       14.47481640031563
H            6.58230912182567        0.25280640971118       14.27238845398304
N            8.66263063340567        0.20498163626601       13.88370972771247
C            9.68914569250618        0.90526366579628       14.44345349691653
H           10.70280703496468        0.73394795163455       14.14525068380458
87
 energy: -128.450445685934 gnorm: 0.037859848497 xtb: 6.7.1 (edcfbbe)
Fe           8.77712371596919       -1.09247511607545       12.41627314635297
N            7.67299041083307       -2.35930091983362       13.52702014093104
N           10.44538711518300       -1.82100755215761       13.18812911939112
N            9.87430475546546        0.24205975946316       11.35125390847344
N            7.08566064984002       -0.33987870789667       11.64213174581459
C            6.32446220684987       -2.46832539994917       13.55670510898290
C            5.89927240563610       -3.39785704820354       14.59188023035616
C            7.03810011530242       -3.85996261854878       15.16840543446795
C            8.13835855382717       -3.20452794323381       14.47867749974717
C           10.54100416283104       -2.78410571555886       14.14545594376130
C           11.92289970366453       -3.03204891567704       14.46302793359971
C           12.65837687112624       -2.19114406269264       13.67905266967284
C           11.71655184531219       -1.44062729963518       12.89124692756613
C           11.22156261084273        0.35069723394845       11.29982005342382
C           11.62283962477663        1.50883294937001       10.51022441034279
C           10.45106948129101        2.09864212581866       10.11557474206752
C            9.37919046416187        1.27615782857743       10.62563244928476
C            6.98053603707407        0.75344119437269       10.84457473394357
C            5.59323156799862        1.01251919270282       10.51795592300373
C            4.86879894371044        0.02630797038524       11.14981226730346
C            5.81856618215369       -0.77806742866551       11.86142441375051
C            5.44669526727018       -1.78714156502752       12.73747750149982
H            4.39363517289132       -2.00539382946248       12.81235616013928
C            9.47468457151500       -3.42579294899103       14.75575927314590
H            9.72527336386711       -4.15332394984404       15.51249067428810
C           12.10146684820849       -0.44613869674883       12.00855643896897
H           13.15596668042040       -0.24427217113678       11.91527049786002
C            8.03554299631765        1.52049576028665       10.38033571872510
H            7.77657264966754        2.37394493813787        9.77240388315249
C            4.45163100464250       -3.62066901397865       14.85365326608161
H            3.96239570989503       -3.99374720825701       13.94915188391052