87
 energy: -128.467480137878 gnorm: 0.000062780083 xtb: 6.7.1 (edcfbbe)
Fe           8.77627356162061       -0.99968909221219       12.53391019532985
N            7.69895298432830       -2.31538344380579       13.59036745313795
N           10.45458042832247       -1.73799240731290       13.33213604756829
N            9.86125513190750        0.28460332512154       11.44364731706631
N            7.08808350213114       -0.22961020021287       11.76858504654669
C            6.35189743454046       -2.49064896170800       13.54371791391557
C            5.94757979707112       -3.57368720394465       14.41438964256496
C            7.08436618346725       -4.03606029796415       14.99977815219566
C            8.16770331858887       -3.23660924533476       14.46999664510180
C           10.55205391384290       -2.69142168594433       14.29379798588001
C           11.93418517120627       -2.90037379391325       14.66866826999050
C           12.66917095920546       -2.05201257445113       13.90159830969860
C           11.72516515262864       -1.33734013092802       13.06917631593420
C           11.21360219183462        0.33207991825791       11.34587874654430
C           11.62054020579202        1.34942679728637       10.39598986562983
C           10.46440189325000        1.94362927711084        9.96410790526659
C            9.38369487981402        1.25077901049186       10.61431037230755
C            6.98396118289183        0.83875266354163       10.93771181717499
C            5.59362389936507        1.11466166029594       10.63031387193479
C            4.86433366655930        0.17190426276517       11.30770247365159
C            5.81673024763464       -0.65030067184694       12.00755182926412
C            5.46709708046067       -1.72393051020238       12.81132960405223
H            4.41892247668145       -1.97406370179563       12.88042495087577
C            9.49360879623380       -3.40340604029201       14.82731125011703
H            9.72018729351278       -4.15563992130282       15.56806198413789
C           12.09349531424619       -0.39147226219097       12.13118092882911
H           13.14590816075114       -0.18015293922571       12.02060003904571
C            8.04640074714663        1.53356608813329       10.39157962644297
H            7.82023147049439        2.34689227539820        9.71821767828421
C            4.54007563189190       -4.03313530933998       14.59009235613822
H            4.11236535682546       -4.33139376312272       13.63269970943763
H            3.92173038329223       -3.23406551896083       15.00118442340818
H            4.49179845622289       -4.88333110944478       15.26630676166577
C            7.25701410983923       -5.13853473978791       15.98839047115041
H            7.70418280058456       -4.76173395881449       16.90875094982529
H            7.91147497100869       -5.91367238473418       15.58863594098777
H            6.29991302723856       -5.59239244019675       16.23430393736258
C            3.38324045237748        0.03863952040787       11.39694830115783
H            3.08095351882510       -0.25306624369420       12.40177372554652
H            3.01698475499477       -0.71948584924724       10.70236381544221
H            2.90745256051058        0.98629446667482       11.15175962469735
C            5.13540562002625        2.19956106733913        9.79262717277233
H            5.74826689778460        3.09377267360281        9.81133244354264
C            4.05501670904539        2.17936043191264        9.01770111625093
H            3.43522167924680        1.30526488914322        8.92012191981070
H            3.76701067226861        3.03572086208415        8.43034312416037
C           10.30308417995119        3.04596262616150        8.97422427191037
H            9.72414835859862        3.86469482393660        9.40270803406018
H            9.77832875488241        2.69329519325294        8.08519363620749
H           11.27262332938364        3.42946038717614        8.66601803781747
C           12.96914016799042        1.66982560194617        9.97839571437131
H           13.16085209505307        2.72233817671463        9.79633901289163
C           13.94475351442050        0.79319027045277        9.76640111939995
H           13.79364808529895       -0.26696783877704        9.87924030538000
H           14.92580404777398        1.10644539207246        9.44885288809387
C           14.14516593564478       -1.84689659845728       13.86542082480909
H           14.64319334118917       -2.48325187877084       14.59313212609271
H           14.39413622350869       -0.80914485567712       14.08871516340772
H           14.54071822205283       -2.08190205128198       12.87687092486301
C           12.38821037453031       -3.87457819344058       15.70185718060863
H           13.46823403076239       -3.83607736701981       15.82222516273038
H           12.11140435646429       -4.89112121414039       15.42013985410327
H           11.92716057199370       -3.65427302145092       16.66503305800538
C            9.42869022213384       -5.58101622569477        9.39668915799533
H           10.24928698121434       -5.59651926530702        8.67928919115767
H            8.54587969661676       -5.99986268375298        8.91342919003155
H            9.69349825757357       -6.20880034794053       10.24175021826221
N            8.81017922504478       -3.18396258796155        9.01726802661254
H            8.69415812331075       -3.26524169818075        8.02055756117817
C            9.16612837399937       -4.19761360923791        9.86860437759874
C            8.64742684435610       -2.06515246079011        9.75926884646096
H            8.36705684168683       -1.11377947046492        9.35645235631855
N            8.87811690066857       -2.30847847681139       11.02563487057488
C            9.20180428364221       -3.63011195824625       11.10985926750336
H            9.43687209963896       -4.07968493008275       12.05209086888571
C            9.85327541040682        2.93059962724753       16.36255715820006
H            9.81951717282352        2.64704109363884       17.41461080520986
H            9.35755889807950        3.89533377812878       16.25373923174418
H           10.89151207884593        3.03723761011348       16.06416212068823
N            7.87812022986856        1.55790933447168       15.66454170933984
H            7.23865317410869        1.95221664281230       16.33468636375974
C            9.19695902164312        1.90141035741074       15.51681411641039
C            7.59987733918801        0.60212487496431       14.74906179665716
H            6.63975974804606        0.14344565522784       14.63271503688532
N            8.65979920664873        0.32035270447133       14.03276046360102
C            9.66129793339994        1.11996225277928       14.49811329003062
H           10.64185170005553        1.07928754285928       14.07119862826043
