72
 energy: -105.887023792595 gnorm: 0.248023185999 xtb: 6.7.1 (edcfbbe)
Fe          42.44400000000000       84.94400000000000      122.91399999999999
N           42.68699999999999       83.49399999999999      124.40300000000001
N           44.12100000000000       84.18599999999999      121.94099999999999
N           42.68599999999999       86.60800000000000      121.76200000000000
N           41.17700000000000       85.87999999999998      124.24700000000000
C           41.89500000000000       83.31100000000001      125.52900000000000
C           42.28099999999999       82.05399999999999      126.15000000000001
C           43.26499999999999       81.51500000000000      125.42199999999998
C           43.54600000000000       82.40400000000000      124.29900000000001
C           44.77199999999999       83.00000000000000      122.23500000000000
C           45.75899999999999       82.75500000000000      121.19700000000000
C           45.70300000000000       83.78700000000001      120.33700000000000
C           44.66900000000000       84.68599999999999      120.77600000000000
C           43.34300000000000       86.71999999999998      120.55400000000000
C           42.87300000000000       87.91700000000000      119.87099999999998
C           41.94100000000000       88.47699999999999      120.66800000000001
C           41.80700000000000       87.66800000000001      121.86499999999999
C           40.66499999999999       87.13099999999999      124.00300000000000
C           39.76100000000000       87.45600000000000      125.08700000000000
C           39.74700000000000       86.42900000000000      125.94199999999999
C           40.63600000000000       85.40299999999999      125.42599999999999
C           40.92200000000000       84.17100000000001      125.98899999999999
H           40.33799999999999       83.86000000000000      126.85500000000000
C           44.50000000000000       82.19000000000000      123.32399999999998
H           45.10300000000000       81.28700000000001      123.42200000000000
C           44.30500000000000       85.84499999999998      120.12399999999998
H           44.82300000000000       86.08300000000000      119.19499999999999
C           40.95200000000000       87.92900000000000      122.91799999999999
H           40.43900000000000       88.89000000000000      122.88599999999998
C           43.99600000000000       80.17900000000000      125.70199999999998
H           43.46500000000000       79.62700000000000      126.50700000000001
H           45.03699999999999       80.38300000000000      126.03200000000000
H           44.00399999999999       79.55600000000000      124.78200000000000
C           41.66600000000000       81.47400000000000      127.44199999999999
H           40.91799999999999       80.69600000000000      127.17999999999999
H           41.16000000000000       82.28200000000000      128.01200000000000
H           42.46300000000000       81.01300000000001      128.06299999999999
C           46.72500000000000       81.53900000000000      121.14800000000000
H           46.32800000000000       80.77800000000001      120.44299999999998
H           46.80799999999999       81.08499999999998      122.15799999999999
H           47.72600000000000       81.86900000000000      120.79600000000001
C           46.51300000000000       84.03600000000000      119.04500000000000
H           46.65500000000000       85.06299999999999      118.67700000000001
C           47.05799999999999       83.04000000000001      118.34299999999999
H           46.94300000000000       81.99700000000000      118.67200000000000
H           47.62900000000000       83.25000000000000      117.42699999999999
C           43.38500000000000       88.39700000000001      118.47900000000000
H           43.85800000000000       87.54600000000001      117.94400000000000
H           44.13900000000000       89.20200000000000      118.61400000000000
H           42.53199999999999       88.77300000000000      117.87500000000000
C           41.09300000000000       89.75500000000000      120.46499999999999
H           40.28899999999999       89.97600000000000      121.18200000000000
C           41.26600000000000       90.62700000000000      119.46699999999998
H           42.05300000000000       90.46599999999999      118.71499999999999
H           40.62400000000000       91.51599999999999      119.38500000000001
C           38.97000000000000       88.78100000000001      125.20199999999998
H           38.30600000000000       88.89400000000001      124.31899999999999
H           39.67600000000000       89.63799999999999      125.23399999999998
H           38.34699999999999       88.76800000000000      126.12200000000000
C           38.91800000000000       86.32899999999999      127.24199999999999
H           37.84200000000000       86.22099999999999      126.98799999999999
H           39.05500000000000       87.25099999999999      127.84600000000000
H           39.24099999999999       85.44100000000000      127.82599999999999
O           44.86200000000000       85.82299999999999      124.28000000000000
H           45.59300000000000       85.52899999999998      123.73699999999999
H           44.92200000000000       86.27300000000000      125.04499999999999
C           40.20800000000000       82.62800000000000      122.32899999999999
H           39.72699999999999       81.86399999999999      121.68100000000000
H           39.44000000000000       83.01400000000000      123.03200000000000
H           41.01300000000000       82.12800000000000      122.90899999999999
S           40.88600000000000       83.96599999999998      121.36100000000000
H           41.86500000000000       83.24399999999999      120.83600000000000
72
 energy: -105.942441080933 gnorm: 0.104302552258 xtb: 6.7.1 (edcfbbe)
Fe          42.58248688779717       85.01131274336122      123.00622345482830
N           42.66768589532226       83.47008171548539      124.38743962083895
N           44.11297005226252       84.17272793926898      121.91810397219231
N           42.64857762646454       86.60397548000192      121.74540171666065
N           41.17672243778217       85.87713153228415      124.23534280799299
C           41.89867304980997       83.29696660055612      125.51347448340928
C           42.27804442440804       82.05044967530308      126.15928114756014
C           43.27395635873084       81.50390152724123      125.42191233749577
C           43.53232718735373       82.40204272646304      124.30287203568042
C           44.76728820123206       83.00238919345830      122.21664733305479
C           45.77250714377229       82.74812603385358      121.19574173696813
C           45.71497766005516       83.78772568333353      120.31297106172448
C           44.67341447047816       84.67994212419499      120.77476120947686
C           43.32381788837287       86.73311527087419      120.55937984234399
C           42.87095599429625       87.92994796577612      119.86543067506777
C           41.92960456930041       88.50909313807975      120.66804973994935
C           41.79942259065292       87.67072483098028      121.85199176091827
C           40.66506062083093       87.12414769785093      124.00820568144619
C           39.75649262356133       87.46888685211280      125.08712737331055
C           39.73753181340266       86.42255400561505      125.94653000131082
C           40.63395203339697       85.41091907637993      125.40684251363464
C           40.92809950248043       84.17544848420425      125.97050945880545
H           40.35694015796346       83.87437532027865      126.84436613842354
C           44.49072406879947       82.19651957856027      123.31928294402182
H           45.09248067029091       81.29823309248798      123.42166833942298
C           44.29770694653681       85.84880892145067      120.13025757378753
H           44.81303848023320       86.08237875198738      119.20527811420156
C           40.95067360901805       87.92814132825845      122.91785730440893
H           40.43521635700046       88.88111689784660      122.88958346249386
C           43.98940564480265       80.19502276215754      125.69485437577951
H           43.47410174515360       79.64189996971157      126.48711243535385
H           45.01976189714606       80.38139106038764      126.01896208657524
H           44.00668766574620       79.57013340275327      124.79543775849862
C           41.67006813378936       81.48327966007038      127.42641983898751
H           40.93004664617952       80.71116628117201      127.18164030834694
H           41.17200499292880       82.26720084547328      128.00362050833590
H           42.44652632827047       81.02742783820599      128.04990335961298
C           46.71004699731297       81.55383892423301      121.15538259649999
H           46.32899615320770       80.79269705285674      120.46251249118406
H           46.80656799295808       81.09622606655084      122.14394736865644
H           47.70155032446383       81.86663866560293      120.80882893421713
C           46.50792098855688       84.01839419780245      119.06658322343335
H           46.63359405938204       85.04250861006842      118.71425866140322
C           47.05541749085384       83.04015418190750      118.35320381014888
H           46.94494242711857       82.00604407074439      118.64839565740343
H           47.61618427144909       83.24622126234279      117.44636248280887
C           43.37908446473963       88.38074835785223      118.50240537227609
H           43.85007260919973       87.55405423626706      117.96175098419403
H           44.12008363292289       89.18249525590447      118.61754803090417
H           42.55020242107913       88.75101469628198      117.89022731845142
C           41.11237007541567       89.74182049302200      120.45794495441532
H           40.31807647243330       89.94340772818744      121.17605703214424
C           41.27239828179658       90.61936618485210      119.47164650802782
H           42.04297976550469       90.49307393636160      118.72573737768235
H           40.63660761520116       91.49560534049338      119.38858703779714
C           38.98100329732290       88.76673705394123      125.19779594817719
H           38.32064664566138       88.89006134418993      124.33177813053308
H           39.66609681688457       89.62112062461547      125.23435535279361
H           38.36494461452656       88.76649388843853      126.10247168064355
C           38.92934423652702       86.32412045596591      127.22621665497022
H           37.86294996436690       86.22163414449824      126.99062133673361
H           39.05790476878234       87.22843713524645      127.83212958888822
H           39.23750690362115       85.45793100734647      127.81777123664010
O           44.81801313061720       85.80536698638963      124.24433450885735
H           45.57648599193953       85.52651723890341      123.73574060466541
H           44.91513046263471       86.27658709363062      125.05314917967559
C           40.20450277471605       82.61024915945481      122.33858965661176
H           39.72699184842153       81.87488520239133      121.67936912804500
H           39.45351464695693       83.01349753997246      123.02453524913595
H           40.99928992331861       82.12877009580552      122.91546620946970
S           40.91074716408730       83.97775404442035      121.40272639590845
H           41.86187839039696       83.24382171597760      120.82608478368201
72
 energy: -105.961251076378 gnorm: 0.026991909820 xtb: 6.7.1 (edcfbbe)
Fe          42.68247379985147       85.04566495910208      123.06904731741443
N           42.67670748864823       83.47485417103550      124.38030051471709
N           44.12137732587998       84.18401227852532      121.92274557568399
N           42.63337552485282       86.60272019161080      121.75344400154333
N           41.21957573476190       85.89107035069020      124.23943013058594
C           41.90899114195619       83.29450089540623      125.49134486273928
C           42.27522549520284       82.05468830092126      126.15377446720743
C           43.27804767407343       81.50224958770063      125.41089779024821
C           43.52182244257894       82.40831061786716      124.29897303137251
C           44.76189589216008       83.01303517924264      122.20876782670976
C           45.77010477403220       82.74358663402640      121.19903920202117
C           45.71432438110973       83.78643946374244      120.29948829007381
C           44.67351253249483       84.67885107804285      120.78223585178837
C           43.30671524591983       86.73537141536455      120.57520861450527
C           42.87221231639740       87.92814474510870      119.87054353617195
C           41.92456769785506       88.52546417416232      120.67290842240935
C           41.79834508279895       87.66779551625373      121.84911041219553
C           40.68331119610525       87.12058325724212      124.01433193910215
C           39.76245584630516       87.47227527746526      125.08113927886008
C           39.74015738102638       86.41225210282096      125.94048216961843
C           40.65268430642236       85.42171155339567      125.38817790404502
C           40.94234339052796       84.18356432065745      125.94777296885584
H           40.38357616545481       83.89266707839320      126.82913576160546
C           44.47889509368385       82.20365384309144      123.31055273710489
H           45.07741324994509       81.30793114373530      123.41542981885183
C           44.28373480100082       85.84752722353370      120.13999453394393
H           44.79686486888340       86.08231831100052      119.21876209411886
C           40.95130927130608       87.92693147831568      122.91779808088771
H           40.42625228268407       88.87058076779599      122.89187808586679
C           43.98298383009834       80.21516118137114      125.68115792074084
H           43.47596038239919       79.66239729908033      126.46736225151358
H           45.00942635287370       80.38874932967757      126.00134463866654
H           44.00781758824275       79.58719924813434      124.79376963161593
C           41.67501822846378       81.49735232294012      127.40394760057838
H           40.93788563727082       80.72807438552546      127.17137155125620
H           41.18178967137663       82.26693011814120      127.98812625411446
H           42.43969203237499       81.04220167333408      128.02976031430279
C           46.68966824412222       81.57034913530528      121.16534768336039
H           46.31798756415065       80.80562938854321      120.48193928701482
H           46.79607332624556       81.11331177477533      122.14386806575111
H           47.67627541381292       81.87225792557958      120.81805414955284
C           46.49038287195203       83.99881275391400      119.09534519173187
H           46.60537114639565       85.02438505045666      118.76283268308957
C           47.04678889423947       83.03769248855298      118.36398141356763
H           46.94476887525430       82.00258254107374      118.62298620166840
H           47.60641429266670       83.25076904834991      117.46882429154341
C           43.37204670620363       88.36132087084582      118.53191550054609
H           43.84573157909939       87.54525745461748      117.99500778945222
H           44.10339507392526       89.16539900465203      118.63152530670055
H           42.55528704543461       88.72611986996937      117.91328020139018
C           41.14115359678408       89.71982043590270      120.45739428880462
H           40.35011257975579       89.90090724651695      121.17521087897985
C           41.28700409368413       90.61152053533965      119.47996699585508
H           42.04635759886637       90.52364326071513      118.73101531670169
H           40.64420323660342       91.47211726882044      119.39829536102661
C           38.99768492548371       88.74854481149966      125.19055266053530
H           38.33849860382721       88.88069022153047      124.33430107252894
H           39.66894258079742       89.60459192845262      125.23072227687928
H           38.38586260762354       88.75487238096854      126.08788253180229
C           38.94537414018326       86.31409653597970      127.20323564940507
H           37.88226565632645       86.21626724944062      126.98257392725576
H           39.07052978109586       87.21073395885143      127.80887472907024
H           39.24522994280533       85.46230085902870      127.80340521146512
O           44.72356631190406       85.80036498037012      124.19133412755743
H           45.52125575863379       85.51719883915645      123.73763362251367
H           44.87631134087684       86.25233329411031      125.02887421258262
C           40.20178043844288       82.59632413722960      122.35642773292663
H           39.73130102819537       81.89168994169343      121.67597802249540
H           39.45819308297455       83.01513329952610      123.02467376488491
H           40.98597849373598       82.12091108664870      122.93113468696913
S           40.92168444463090       83.98638978139800      121.43129368713160
H           41.86167259624850       83.25583916573075      120.81975609422238
72
 energy: -105.966839554672 gnorm: 0.026579998476 xtb: 6.7.1 (edcfbbe)
Fe          42.71227119867533       85.05719466680803      123.08623215777483
N           42.69125622826571       83.48491340781703      124.36927537792504
N           44.11945298277412       84.18822467174340      121.93384319587554
N           42.64139853697027       86.60859550707048      121.77352698541131
N           41.26327101676568       85.91011948286177      124.24649862627651
C           41.92575857486181       83.30552702315772      125.47927168515122
C           42.27687655601476       82.06322489596629      126.13749703548611
C           43.27748951644399       81.50664376016800      125.39524467927323
C           43.52608570885278       82.41366739038206      124.29190308846042
C           44.75779528747309       83.01636560106589      122.21343685873747
C           45.75327741232188       82.73754743263409      121.20407101648786
C           45.69832228475019       83.77790076305359      120.30235701344550
C           44.66950273597859       84.67875277180525      120.79338013364926
C           43.30963935766836       86.73296898146704      120.59451533018186
C           42.88079296781176       87.91702079909939      119.88449551831300
C           41.93434429380780       88.52326718539868      120.68124962176354
C           41.80916890944442       87.67315604952789      121.86051441557125
C           40.71260896147784       87.13056990135168      124.02064732402179
C           39.77903751633218       87.47036332652195      125.07528977432824
C           39.75774109077118       86.40766124603969      125.93013876811450
C           40.68659014871459       85.43396860093408      125.38423639205052
C           40.96808916644586       84.19716405672773      125.94093672513742
H           40.41059045516176       83.90917192529577      126.82119508921137
C           44.47913941541661       82.20269463926419      123.30712183736775
H           45.06697086976848       81.30105431874672      123.40417226826219
C           44.28041581310819       85.84507617003565      120.15251004276936
H           44.78327759127882       86.07749547975467      119.22610254304601
C           40.96138087267443       87.93772479749865      122.92356829308109
H           40.41433131899898       88.86853558190691      122.89086224279846
C           43.98365187421145       80.22356554622529      125.66181346181493
H           43.47625885904954       79.67293573751419      126.44941969328633
H           45.01124165829815       80.40018995799124      125.97927287686923
H           44.00957122591991       79.59653620380099      124.77301784374454
C           41.67466686507999       81.51109350173017      127.38506212070268
H           40.93441422575309       80.74417295910960      127.15247258647264
H           41.18580205944220       82.28316371050575      127.97085233575359
H           42.44053362378689       81.05388399545447      128.00871540787273
C           46.67356867442584       81.57046020272256      121.17809466364355
H           46.30010337975524       80.79951719119252      120.50233107257360
H           46.78537582812444       81.12482802995410      122.16220777960424
H           47.65639999436704       81.87700329284296      120.82289500878794
C           46.47710760131385       83.98843599858543      119.10809369996313
H           46.58734540302678       85.01882975156740      118.79097800787518
C           47.04294487353900       83.03784766509972      118.36780558209426
H           46.93356225483827       81.99355879325104      118.59650509118721
H           47.60680243735543       83.26767154128827      117.48042633670080
C           43.37442030223109       88.33692615257313      118.54602941279062
H           43.85794062397423       87.51704220444748      118.02322785634716
H           44.09480874002900       89.15213470226456      118.64103458150092
H           42.55088044893507       88.68460913838121      117.92576390021668
C           41.15399674638899       89.71072849012290      120.45846302132074
H           40.35955656900553       89.87671196684191      121.17540189706764
C           41.29489713545767       90.61514460934107      119.48975322468989
H           42.06964858002080       90.56641654618494      118.74838447672532
H           40.63822766820266       91.46512204597502      119.41746565684190
C           39.01153240199221       88.74089581860009      125.18165358347170
H           38.35346659398027       88.87186755349713      124.32375987163354
H           39.68273050311610       89.59786422119761      125.22328475206760
H           38.40053296254401       88.74254965675985      126.07995769274464
C           38.96106558137622       86.29991288620759      127.18651788656831
H           37.89795738323648       86.20073932133573      126.96488840370637
H           39.08681755646808       87.19833883035241      127.79018043260649
H           39.26343604870247       85.44906864540118      127.78790530508041
O           44.61521993792091       85.84600704459457      124.12963988989358
H           45.43130479787550       85.49014225187172      123.74389753829735
H           44.79682762994445       86.21769259659112      125.01124042542969
C           40.19910181979485       82.59089952721220      122.37417536957545
H           39.73101759930804       81.90258017359280      121.67595818731938
H           39.45366908778867       83.01532871825846      123.03646711077992
H           40.97488874983621       82.10594813166259      122.95256223255272
S           40.92575619795944       83.99237791311852      121.45903739068278
H           41.85807070659729       83.26968634067399      120.82429229117002
72
 energy: -105.970105054733 gnorm: 0.019473027492 xtb: 6.7.1 (edcfbbe)
Fe          42.69601505860744       85.04564215949353      123.07177640694346
N           42.71224395482086       83.50015902376738      124.35590726277343
N           44.10916440500752       84.18786193377284      121.94693017011785
N           42.64285287517672       86.60699869209753      121.79349209617823
N           41.30746582396245       85.92928114787870      124.24793618410676
C           41.94609983286376       83.32012298453098      125.46601300400360
C           42.28249314185093       82.07476780963222      126.11881729299394
C           43.27735586962150       81.51219076236029      125.37792215922268
C           43.53243529633014       82.41679580834818      124.28125353377931
C           44.74972969924449       83.01428899923417      122.21755416035171
C           45.73404712047673       82.73117162806398      121.20886087879934
C           45.67799753581945       83.76807394571782      120.30862418014659
C           44.65889593497386       84.67417320194095      120.80410995697260
C           43.31245250369393       86.72606732713402      120.61567314281271
C           42.89275298864568       87.90540006527343      119.90282573225107
C           41.95143780442218       88.52057968416472      120.69309533261301
C           41.82076161744984       87.67971165030961      121.87429821881564
C           40.74549854711078       87.14383479027705      124.02544153344191
C           39.80257086030606       87.46945896694693      125.07079160533537
C           39.78470996595862       86.40590270931790      125.91964366266409
C           40.72702940543221       85.44753394540692      125.37990891821860
C           40.99885125232522       84.21265995246475      125.93462962900045
H           40.44309025235517       83.92808037494612      126.81497839644108
C           44.47891556040604       82.19357442045022      123.30051163182632
H           45.05689072200606       81.28614524331081      123.38922231510756
C           44.27424734827034       85.83809250895978      120.16521901509380
H           44.76924161873158       86.07050423466042      119.23518983833677
C           40.97295905226433       87.95290107635282      122.92988231950584
H           40.40783103717953       88.87241127950647      122.89365194922914
C           43.98589668418266       80.22849421373066      125.63736528358419
H           43.48166181071266       79.67679100926557      126.42692075704123
H           45.01552046610967       80.41037464996072      125.94911264392979
H           44.00959984551406       79.60486036501169      124.74498063783388
C           41.67349694857126       81.52686886132778      127.36485583131288
H           40.92772195675631       80.76539907367753      127.12907750171571
H           41.18985633162944       82.30438008987636      127.94959091521199
H           42.43848304720288       81.06477015493735      127.98745366602316
C           46.65799473531347       81.56624534594893      121.19078871537737
H           46.28115798042084       80.78458544017411      120.52852455288688
H           46.77770730793241       81.13764319096518      122.18314168808261
H           47.63613776856904       81.87622329763575      120.82385286085822
C           46.46043289423905       83.98127410574490      119.11604041340019
H           46.57631984040993       85.01707742282389      118.81892767865281
C           47.02934528384387       83.03965126054455      118.36693441039704
H           46.92516823438380       81.98926338677661      118.57633257964568
H           47.60998052593123       83.28928760867929      117.49454684582611
C           43.37851392524657       88.31502943984309      118.55889031879842
H           43.87105593918531       87.49132690450476      118.04863194013716
H           44.08905043112199       89.14003907753883      118.64519479972128
H           42.54497165371731       88.64654099365376      117.94150334827258
C           41.17062926112592       89.70827394761574      120.46318163729785
H           40.35728370886670       89.85268693849230      121.16455209218775
C           41.31835322379607       90.62454557784329      119.50716266026959
H           42.09670535103694       90.59621344887400      118.76662763427228
H           40.63870218880622       91.45801726202787      119.43475669318566
C           39.02681035321593       88.73580485391639      125.17213836784877
H           38.37019038282224       88.86102299620346      124.31131189346284
H           39.69742112297228       89.59448814299233      125.21269732349188
H           38.41489699734435       88.73356823286036      126.07069462336474
C           38.98103336115060       86.28293484460684      127.17015080949992
H           37.91945242587573       86.17829822036616      126.94164400134156
H           39.10185879137603       87.18055193136915      127.77749769366683
H           39.28722238396907       85.42939341117675      127.76740279385488
O           44.51579819728494       85.88698424109784      124.11354192734832
H           45.32461531989266       85.49195770638529      123.75722745729412
H           44.72197336840092       86.21649977716099      125.00460923610515
C           40.19305332344112       82.58578808422817      122.39293154227323
H           39.72972143016586       81.90598977994189      121.68423435988267
H           39.44476479268184       83.01022266417817      123.05305165060753
H           40.96327979092016       82.09309323280678      122.97472848198582
S           40.91587120694339       83.99515921982193      121.48142586081330
H           41.84825232160899       83.28499326709280      120.83660334415381
72
 energy: -105.971242010060 gnorm: 0.016118883769 xtb: 6.7.1 (edcfbbe)
Fe          42.69524075337350       85.05422664460467      123.07599239794921
N           42.72159678827921       83.50263125374923      124.34388293702735
N           44.09869795683544       84.17961833002771      121.95195273835007
N           42.64249329937071       86.60616311246520      121.80317896125716
N           41.32161909950182       85.93804672109862      124.24131190957313
C           41.95722978358681       83.32667442207961      125.45781981442549
C           42.28683511909552       82.07958080125903      126.10726993352968
C           43.27488942814066       81.51075654520909      125.36606215737048
C           43.53381938136373       82.41057279432189      124.26999761214999
C           44.74125544030874       83.00361538760951      122.21554978791102
C           45.72206727558487       82.72316979644751      121.20698178360959
C           45.66458614347130       83.75901916823423      120.31051808094774
C           44.64632152145102       84.66317069534418      120.80453285037422
C           43.31215278350886       86.71709960244358      120.62412970798590
C           42.90245063727557       87.89912372566673      119.91245236211499
C           41.96553855947654       88.51981681577922      120.69845771160020
C           41.82715248203093       87.68591517531149      121.88075972762449
C           40.76116318430616       87.15386179508133      124.02481841993811
C           39.82005453406975       87.47212284869930      125.07096370652778