72
 energy: -105.877415244673 gnorm: 0.265958087267 xtb: 6.7.1 (edcfbbe)
Fe          42.42300000000000       -8.45500000000000        0.47000000000000
N           40.47300000000000       -8.23900000000000       -0.22200000000000
N           41.72300000000000       -8.56800000000000        2.42300000000000
N           44.35500000000000       -8.68000000000000        1.17400000000000
N           43.15899999999999       -8.29500000000000       -1.51100000000000
C           40.09100000000000       -8.11900000000000       -1.54500000000000
C           38.65100000000000       -7.99900000000000       -1.58700000000000
C           38.20799999999999       -8.08500000000000       -0.32000000000000
C           39.34700000000000       -8.20800000000000        0.56200000000000
C           40.41800000000000       -8.30500000000000        2.78700000000000
C           40.39800000000000       -8.13300000000000        4.22900000000000
C           41.64300000000000       -8.29500000000000        4.68800000000000
C           42.50900000000000       -8.57400000000000        3.55800000000000
C           44.69299999999999       -8.91100000000000        2.49700000000000
C           46.11600000000000       -9.17100000000000        2.54200000000000
C           46.58200000000000       -9.08300000000000        1.29500000000000
C           45.48700000000000       -8.75500000000000        0.39100000000000
C           44.50700000000000       -8.24700000000000       -1.84900000000000
C           44.61499999999999       -7.98500000000000       -3.27400000000000
C           43.16400000000000       -7.88200000000000       -3.76500000000000
C           42.33100000000000       -8.07400000000000       -2.60200000000000
C           40.95000000000000       -8.09200000000000       -2.61800000000000
H           40.48400000000000       -8.08400000000000       -3.60300000000000
C           39.33400000000000       -8.26200000000000        1.93300000000000
H           38.35100000000000       -8.27200000000000        2.40400000000000
C           43.85500000000000       -8.84700000000000        3.58700000000000
H           44.30099999999999       -9.03000000000000        4.56500000000000
C           45.54300000000000       -8.47800000000000       -0.96500000000000
H           46.54299999999999       -8.43700000000000       -1.39400000000000
C           36.74500000000000       -8.02400000000000        0.17200000000000
H           36.06600000000000       -7.89300000000000       -0.69800000000000
H           36.61700000000000       -7.16300000000000        0.86200000000000
H           36.48399999999999       -8.97000000000000        0.69300000000000
C           37.81100000000000       -7.83400000000000       -2.87200000000000
H           37.52500000000000       -8.83500000000000       -3.25900000000000
H           38.40799999999999       -7.30600000000000       -3.64600000000000
H           36.88800000000000       -7.25800000000000       -2.64600000000000
C           39.14000000000000       -7.85600000000000        5.08400000000000
H           38.69400000000000       -8.82000000000000        5.41000000000000
H           38.39200000000000       -7.29800000000000        4.48100000000000
H           39.42000000000000       -7.26600000000000        5.98300000000000
C           42.09400000000000       -8.20500000000000        6.16300000000000
H           41.57599999999999       -8.74500000000000        6.96800000000000
C           43.14900000000000       -7.44000000000000        6.44100000000000
H           43.67200000000000       -6.89700000000000        5.64000000000000
H           43.51100000000000       -7.34200000000000        7.47500000000000
C           46.97600000000000       -9.50800000000000        3.78300000000000
H           46.31200000000000       -9.70500000000000        4.65200000000000
H           47.63900000000000       -8.65000000000000        4.02400000000000
H           47.58600000000000      -10.41500000000000        3.58200000000000
C           48.07699999999999       -9.31300000000000        1.00300000000000
H           48.83300000000000       -9.16000000000000        1.78800000000000
C           48.47700000000000       -9.69900000000000       -0.20000000000000
H           47.74600000000000       -9.86000000000000       -1.00600000000000
H           49.54500000000000       -9.86300000000000       -0.40700000000000
C           45.87900000000000       -7.82000000000000       -4.13800000000000
H           46.39300000000000       -8.80000000000000       -4.23400000000000
H           46.57099999999999       -7.09600000000000       -3.65700000000000
H           45.59700000000000       -7.46000000000000       -5.15100000000000
C           42.65900000000000       -7.63800000000000       -5.19400000000000
H           43.50800000000000       -7.71700000000000       -5.90600000000000
H           42.22000000000000       -6.62000000000000       -5.26800000000000
H           41.89500000000000       -8.40100000000000       -5.45800000000000
O           42.43300000000000       -5.89200000000000        0.52800000000000
H           41.52699999999999       -5.62100000000000        0.38000000000000
H           43.12800000000000       -5.35300000000000        0.65800000000000
C           41.08400000000000      -11.42800000000000       -0.41200000000000
H           40.13700000000000      -10.91000000000000       -0.14700000000000
H           40.98200000000000      -12.49700000000000       -0.12600000000000
H           41.21700000000000      -11.35700000000000       -1.51300000000000
S           42.50900000000000      -10.68100000000000        0.44300000000000
H           41.95099999999999      -10.71000000000000        1.64400000000000
72
 energy: -105.936946856038 gnorm: 0.113935628675 xtb: 6.7.1 (edcfbbe)
Fe          42.43738537948708       -8.40596537844208        0.47259383889343
N           40.49084878191582       -8.23436091807612       -0.22062504408436
N           41.72788736395716       -8.52162256621567        2.41674216131247
N           44.35449531478283       -8.66809595741918        1.17339883360998
N           43.14940470145430       -8.28134902897965       -1.48651483983468
C           40.10226753028933       -8.11952725688245       -1.53405886279535
C           38.65277393300801       -8.00731995900839       -1.59392602276847
C           38.19986167500402       -8.08407203181708       -0.31635161054394
C           39.35859363856267       -8.21505098390001        0.54930374485854
C           40.42764909809827       -8.30444403194040        2.79534632439455
C           40.38057624928582       -8.15130087430746        4.23931578206965
C           41.64448030065189       -8.31518933508088        4.70622027155309
C           42.49501534725244       -8.56699793617325        3.55370098147565
C           44.69922152668098       -8.91233028613308        2.48194660856602
C           46.12340724409557       -9.17204469693592        2.54795756180615
C           46.60713712647269       -9.07271514090709        1.28314166374394
C           45.48542098984311       -8.74584609561849        0.39843679504951
C           44.47188733122511       -8.24305023258255       -1.85822450379783
C           44.56461900832286       -7.97862059608969       -3.28405575204185
C           43.20947487434168       -7.89314168436073       -3.75265107918954
C           42.36735602402438       -8.08756114844978       -2.59632391605524
C           40.96964094148601       -8.09231953298560       -2.61374377643828
H           40.50067050015186       -8.06710646919340       -3.59402150494174
C           39.33866316539252       -8.26445795380426        1.93342377968100
H           38.35808981850366       -8.25868277492078        2.40039534383714
C           43.85087240121694       -8.84860345292313        3.57660871003571
H           44.29549422836109       -9.01892295128206        4.55311538630785
C           45.52815325288113       -8.47275259495997       -0.96866942094366
H           46.52253526732274       -8.42720349634360       -1.40084127460508
C           36.76303655744454       -8.02390206850188        0.16573634153990
H           36.08107550967618       -7.89707012658923       -0.68156229315360
H           36.62224639613669       -7.18117360962560        0.85256795621678
H           36.49340442331685       -8.95094589737085        0.68544741371597
C           37.82684518682784       -7.83931920738315       -2.85568188883095
H           37.53318926789333       -8.81961591955822       -3.25138725600885
H           38.39822143328094       -7.31393642159772       -3.62771898342216
H           36.91361612001575       -7.26938790832121       -2.64883364602221
C           39.14858636122351       -7.86218384909562        5.07158730738273
H           38.69904034253005       -8.80649866713204        5.40225582627262
H           38.40526538948721       -7.30633014212302        4.49161671132103
H           39.41775712075197       -7.28010270091040        5.95999452761001
C           42.10484546438987       -8.20397494282996        6.13043092033192
H           41.57101624779020       -8.73679174893115        6.91819615802272
C           43.15003256773367       -7.44527780576559        6.43418770107756
H           43.67327998013059       -6.89703750128502        5.65982678858403
H           43.50520455394867       -7.34374495811865        7.45618309529263
C           46.95493277009888       -9.50419435303995        3.77341102483164
H           46.31914773278272       -9.70294045563194        4.64085309060309
H           47.62167579346276       -8.66741577848567        4.01677980913597
H           47.56844017513647      -10.39270450585925        3.58302057894570
C           48.05176776697913       -9.29686218188161        0.97787726594358
H           48.78039572325114       -9.15519799439296        1.77847333883397
C           48.47768939047189       -9.69879431914375       -0.21041940448410
H           47.77507488325344       -9.88402896310382       -1.01054494516684
H           49.53172241212014       -9.86358334822509       -0.40915134310870
C           45.83340906470238       -7.82518540220959       -4.11386888797755
H           46.36781409556299       -8.78086439996113       -4.22217179984590
H           46.53702403285656       -7.11289003464590       -3.65924797159153
H           45.59521646422390       -7.46599625144582       -5.12202900033259
C           42.68980473984306       -7.64414323919976       -5.15870431967062
H           43.49992821044722       -7.71465601644834       -5.89180636204910
H           42.23629017855753       -6.64606530523351       -5.25293729473638
H           41.92337186622778       -8.38208097706565       -5.43820565401109
O           42.41728064221769       -5.94758804847895        0.53410958772649
H           41.53002269709415       -5.62898146554381        0.37992943031612
H           43.13908998403605       -5.35707250555010        0.65939174311419
C           41.06391446489716      -11.43708826304254       -0.41413476671044
H           40.14420288578408      -10.90901814789993       -0.14783097100304
H           40.98461823489930      -12.49096206870022       -0.12890701100005
H           41.22203981714131      -11.35677880726869       -1.49358547459130
S           42.49110181438179      -10.68320264643773        0.42880312759499
H           41.95047822292031      -10.73475568023215        1.64540935014885
72
 energy: -105.957937212723 gnorm: 0.047239789557 xtb: 6.7.1 (edcfbbe)
Fe          42.44262808667465       -8.39158890531353        0.46491679057180
N           40.50932084386370       -8.22207033473242       -0.21751887115906
N           41.73456216626072       -8.47397774081916        2.40324459881276
N           44.34992383605854       -8.64215490427503        1.16749031709678
N           43.13934655775733       -8.26111576703172       -1.45976635788297
C           40.11846613683952       -8.11697497454238       -1.52121468850472
C           38.66525432895811       -8.01529249682771       -1.59595587832015
C           38.20499287817712       -8.08609956233491       -0.31187669238498
C           39.37598968290123       -8.21132209403752        0.54176371335678
C           40.44079384076548       -8.29207593228823        2.79470330282597
C           40.37205871218010       -8.17105246706342        4.23874184628450
C           41.65051234804963       -8.32877785579939        4.70778232637714
C           42.48894183060057       -8.54220948757263        3.53668860088439
C           44.70118918454174       -8.89908213962298        2.46179967980047
C           46.12076104208863       -9.16606030000555        2.54296797387664
C           46.61649132921492       -9.05972037119531        1.26574454869308
C           45.47692642308505       -8.72567778082933        0.40160143283155
C           44.44302672460372       -8.22905010218363       -1.85041999689921
C           44.51922998820424       -7.97834350363459       -3.28630557097579
C           43.24913055380839       -7.90253840177625       -3.73218493012613
C           42.38929889466274       -8.08702492939906       -2.57907126358148
C           40.98777105813821       -8.08416262516446       -2.60548465686333
H           40.52105692082834       -8.04160910856810       -3.58256060269200
C           39.34672490138350       -8.25390947217954        1.93212458003812
H           38.36822495990786       -8.24150490643764        2.39461916926921
C           43.84759955406211       -8.83468814256900        3.55929154622038
H           44.28649722572526       -9.00519268022873        4.53451400224127
C           45.51423879513197       -8.45743536367056       -0.97019750293342
H           46.50154709640361       -8.42011740883845       -1.41072435688113
C           36.78857960730110       -8.02703912816976        0.16156050670220
H           36.10552407371258       -7.90188112834232       -0.67429105590923
H           36.63831996700780       -7.19419198786420        0.84749300733249
H           36.51194441530614       -8.94283185895093        0.68254067327346
C           37.84987211950764       -7.84685455885721       -2.83894283461665
H           37.54947902723332       -8.81498034807487       -3.24182074772519
H           38.40503558816479       -7.32018734612288       -3.61021030298211
H           36.94217768306865       -7.28048650714798       -2.63730603570580
C           39.15905069378855       -7.87770414183151        5.05629360789529
H           38.69730638509175       -8.80576068463869        5.39480813857642
H           38.42016693335893       -7.31777642257592        4.49037574569617
H           39.42485247178748       -7.29751201946376        5.93745444581208
C           42.11346164804254       -8.20803060953045        6.08600379633419
H           41.55844442749391       -8.73416197428310        6.85740592577706
C           43.15168345659680       -7.45333607256277        6.42305306617906
H           43.68570156404559       -6.89648591242934        5.67392377753384
H           43.49336231410795       -7.35187986085238        7.44007872759350
C           46.92940135259502       -9.49858991309323        3.75679440297514
H           46.30858171839579       -9.69718766243007        4.62363675751823
H           47.60140612807869       -8.67527513736836        4.00519783279498
H           47.54593906586985      -10.37821133883750        3.57579733823635
C           48.01216851978774       -9.28363421022513        0.94791018864928
H           48.71583658348572       -9.13611781963658        1.76271895509127
C           48.47342265891712       -9.70207457640431       -0.22606099571617
H           47.80040052537830       -9.90763251916230       -1.03449902667136
H           49.52188961968745       -9.86283358457692       -0.40752186500984
C           45.78753828438414       -7.83047972888356       -4.08720552978994
H           46.32373636424462       -8.77756977500730       -4.19113910330706
H           46.48570120149888       -7.12344211345366       -3.63391290693424
H           45.57162267569503       -7.47117940218769       -5.09239431232066
C           42.72315783564644       -7.65330169755618       -5.12041404730960
H           43.51230926631456       -7.71612593970197       -5.86528397700696
H           42.26315428647153       -6.66497598371076       -5.21109959239674
H           41.95541256394913       -8.37979320610546       -5.39746488650982
O           42.41210059084317       -6.02353907052458        0.56258665683874
H           41.54979240279253       -5.64219060197319        0.37802634439612
H           43.13070126003321       -5.39000111446592        0.64967600543859
C           41.04441490631909      -11.44406522560658       -0.41589160727884
H           40.14370179043069      -10.90688804901239       -0.14907055515229
H           40.97797154971752      -12.48753441233165       -0.13034146753410
H           41.22278994541934      -11.35814464456893       -1.48125166267183
S           42.48261700894160      -10.70181188024695        0.42482594906614
H           41.95376361860945      -10.76647007228942        1.65224760286172
72
 energy: -105.965729297305 gnorm: 0.026148622895 xtb: 6.7.1 (edcfbbe)
Fe          42.44359013679948       -8.37433944013747        0.46233898235787
N           40.52311394182382       -8.21839131971733       -0.21272471614122
N           41.73903917339256       -8.43864367076491        2.38589083174562
N           44.34206528000113       -8.61342096631898        1.15840929783945
N           43.13100238173300       -8.24191846723671       -1.43978560147854
C           40.12985456419562       -8.11481770663303       -1.51149742378045
C           38.68128805232755       -8.02021159409666       -1.59040369815528
C           38.22062206032206       -8.08880828526102       -0.30789440398456
C           39.39001639355498       -8.20559648842259        0.54259577109324
C           40.44691326400302       -8.27780607080965        2.78465353415695
C           40.37391943647918       -8.18228552981236        4.22582633336210
C           41.65650288909797       -8.32784196109571        4.68846072943104
C           42.49184596632504       -8.51548726567989        3.51486764484433
C           44.69688981777460       -8.87582897133489        2.44711439679635
C           46.10994258569440       -9.15066524090381        2.52769871282686
C           46.60420521921759       -9.04601466919925        1.24775129817972
C           45.46542762451477       -8.70324362533129        0.39754809395284
C           44.43328566107311       -8.21114223422649       -1.82741362546107
C           44.51808790625688       -7.97196251831329       -3.26285459285998
C           43.23973575617915       -7.90739563154034       -3.71741736311302
C           42.38261195289311       -8.08039706569400       -2.55984172173900
C           40.99129091656115       -8.07430982576292       -2.59706278127650
H           40.53059291102533       -8.01076043888409       -3.57425560591727
C           39.35181503100797       -8.24024957338497        1.92931963307797
H           38.37383014954688       -8.21948820012172        2.38969740489077
C           43.84643369431821       -8.81100458734310        3.54341875660880
H           44.28076983920979       -8.98443299464663        4.51844179681962
C           45.50785515438061       -8.43633905083820       -0.96795882826251
H           46.48908816812235       -8.40231477039170       -1.41812215396087
C           36.80871107950129       -8.03172521948449        0.16493061199167
H           36.12718226554480       -7.90783305165646       -0.67227984485456
H           36.65874061908350       -7.19913930133362        0.85139525507688
H           36.53417368283910       -8.94733384058072        0.68724976295197
C           37.87114243664353       -7.85424517418469       -2.83131398443484
H           37.57179225453388       -8.82185942453440       -3.23608287348270
H           38.42580842415330       -7.32369082209552       -3.60009076049829
H           36.96461994858174       -7.28867217312818       -2.62425365369995
C           39.16267379951748       -7.89559660638153        5.04346496703128
H           38.69381932276868       -8.82022651439230        5.38287560198786
H           38.42676240809445       -7.32952761830253        4.47908554580103
H           39.43416654934937       -7.31681777333605        5.92383194981942
C           42.12003064528728       -8.21207415250440        6.05715800382883
H           41.54626812434689       -8.73623582840671        6.81497617942199
C           43.15837529043608       -7.46514569176052        6.41429980935468
H           43.70673930863624       -6.89895917395201        5.68054641493273
H           43.48164551832567       -7.36805256983519        7.43660853613970
C           46.90717520862371       -9.49178928743038        3.74202387271560
H           46.28097941113676       -9.68926149532766        4.60567751834220
H           47.58251693978696       -8.67233944595490        3.99489347559758
H           47.52006253607879      -10.37368132224761        3.56089706131182
C           47.98945336155017       -9.26875106546106        0.91495304957494
H           48.67827271303428       -9.10966327091481        1.73839575012495
C           48.47250287487431       -9.70212846404442       -0.24737820157633
H           47.81956941303586       -9.95266496002183       -1.06508853418854
H           49.52457696268385       -9.86350787394649       -0.40506989371973
C           45.77606476185171       -7.83221362967052       -4.05832570678183
H           46.29657662215681       -8.78605699785100       -4.15068626814790
H           46.46004083889946       -7.12284729147399       -3.59474521346547
H           45.55358851880588       -7.47534989164139       -5.06157887728124
C           42.73185682105402       -7.66024736994269       -5.10124090491878
H           43.52924672007443       -7.71965423072325       -5.83616502607376
H           42.27708641742034       -6.67082812603347       -5.17517975931043
H           41.97080960153811       -8.39177403072005       -5.37061345862454
O           42.40805263014030       -6.09420070439091        0.61732043125262
H           41.57121839656654       -5.67688432809961        0.36550453383288
H           43.13170487433352       -5.45050987335845        0.63416287014541
C           41.02793037221912      -11.44762296705401       -0.41524328061913
H           40.13097726611343      -10.90379787927791       -0.14871937189700
H           40.96067992138604      -12.49182886231184       -0.13189467888457
H           41.21530426542554      -11.35785942577086       -1.47864184769854
S           42.46889513056603      -10.70571606058126        0.42586160015435
H           41.95756981516774      -10.81756804597712        1.66067863691501
72
 energy: -105.969936855252 gnorm: 0.022585549895 xtb: 6.7.1 (edcfbbe)
Fe          42.43415788856914       -8.39490183703891        0.46447507286678
N           40.53787932415305       -8.21223635549909       -0.20626947397387
N           41.74082503479652       -8.41448755121816        2.36534728665683
N           44.32899471147991       -8.58209169475378        1.14589267295073
N           43.11987278825131       -8.21875044334423       -1.40868744324865
C           40.14129038244295       -8.10830939725887       -1.50169337284585
C           38.69884307819474       -8.02275263867219       -1.58369250912125
C           38.23856064619795       -8.08982786801708       -0.30356907102552
C           39.40371019369548       -8.19779110790401        0.54526503199066
C           40.45166884882932       -8.26444589172400        2.77127154319187
C           40.37904723350591       -8.18972163834713        4.20842707009592
C           41.66419764806910       -8.31873750083927        4.66328475854932
C           42.49603236930626       -8.48372785088839        3.48891844185715
C           44.69054618084177       -8.84377353769989        2.43155540476693
C           46.09687256906368       -9.12827657337185        2.50864923765805
C           46.58630181746280       -9.02983541544918        1.22752208413765
C           45.45154668475917       -8.67793416592341        0.39113256469370
C           44.42178029062889       -8.19148668744303       -1.79883797327735
C           44.51210268357514       -7.96655615503791       -3.23107046717066
C           43.23026409265233       -7.90562605386505       -3.69076922720272
C           42.37492943043895       -8.06737026367250       -2.53308974893584
C           40.99426342627091       -8.05593440023053       -2.58854750718619
H           40.54238007728357       -7.97552248287381       -3.56667034979905
C           39.35457677310468       -8.22387858274708        1.92667038296995
H           38.37707969821760       -8.19288880177089        2.38500282388331
C           43.84607603152475       -8.77637090350807        3.52720409083365
H           44.27573189231248       -8.94935887966728        4.50302530808652
C           45.50471408248841       -8.41407090290966       -0.96775620419122
H           46.48117042908488       -8.39460286821802       -1.42799119974398
C           36.82828717994519       -8.03828277831141        0.17259933486651
H           36.14688209326825       -7.91644303563981       -0.66607473613008
H           36.68025456756662       -7.20469640543075        0.85970828126316
H           36.55985333817965       -8.95608806167631        0.69610529810261
C           37.89388094916827       -7.86262979255771       -2.82753370258796
H           37.60208463533733       -8.83270106043359       -3.23314341427805
H           38.45157819935482       -7.32829456340352       -3.59270999643997
H           36.98488721194844       -7.30043908891783       -2.61848692905491
C           39.16535270689038       -7.91637378502553        5.02886549536475
H           38.69458209518036       -8.84308981306576        5.36161504738971
H           38.43093186193741       -7.34564578374503        4.46481022570965
H           39.43901408257410       -7.34251696409097        5.91301681890356
C           42.12340576827916       -8.21006280681051        6.03329010819006
H           41.53370422438677       -8.73489806873834        6.77798126378031
C           43.16512359306746       -7.47689723741440        6.40823629819423
H           43.73721194113692       -6.91260609642190        5.68863648501605
H           43.47423428588654       -7.39693964098861        7.43672327148567
C           46.88399701267176       -9.48174152782826        3.72515499827644
H           46.24460702827630       -9.67715032206230        4.58124423851231
H           47.56307609081232       -8.66684151332140        3.98647960222277
H           47.48899881755525      -10.36972651380620        3.54296197721285
C           47.96816758115136       -9.26164237660714        0.87976904153580
H           48.65471669756800       -9.06881533019031        1.69751171189794
C           48.45998320831298       -9.71765262242684       -0.26909427086284
H           47.82819900880013       -9.96850204004648       -1.10267591539990
H           49.51888197892053       -9.85498376011623       -0.41190024946881
C           45.76786395517185       -7.83454539528758       -4.01932244086781
H           46.27895811152111       -8.79339708904398       -4.10181102420395
H           46.44658725504634       -7.12562658319026       -3.54999063938945
H           45.54811902875417       -7.48095300192635       -5.02468327786048
C           42.73740856307899       -7.66756014823201       -5.07584692286218
H           43.54584507251334       -7.72461430534916       -5.79961044962233
H           42.28393849581806       -6.67821284931427       -5.14855206715380
H           41.98442502768428       -8.40431358872324       -5.34884825390668
O           42.41568676946989       -6.15753555335777        0.66869806421801
H           41.60422826972354       -5.72850222422357        0.36086096979842
H           43.13389341750554       -5.50345890944862        0.61539226922888
C           41.00919909296189      -11.45169655523475       -0.41620886292832
H           40.11712093924608      -10.89641532792945       -0.14961605193861
H           40.92700989350437      -12.49655971306855       -0.13659930267510
H           41.20079827277685      -11.35982024514015       -1.47956614233944
S           42.46423149012213      -10.73718353982712        0.42990959069043
H           41.96437387972063      -10.87367553173242        1.66670503064461
72
 energy: -105.970713932609 gnorm: 0.020061811532 xtb: 6.7.1 (edcfbbe)
Fe          42.43147930519837       -8.36749013608041        0.47442594400388
N           40.54595232434568       -8.21848692881692       -0.20134499673372
N           41.74064499297950       -8.41465927012385        2.35064104147381
N           44.31825382248760       -8.57627350622393        1.13616632330702
N           43.11073995678714       -8.21920127147042       -1.38956084480611
C           40.14588638125486       -8.10877357221972       -1.49571773515966
C           38.70745399101082       -8.02529035800520       -1.57876432021612
C           38.24750130164907       -8.09228460609133       -0.30016745496186
C           39.40962984309202       -8.19952963654521        0.54778182122491
C           40.45359133990100       -8.26349801954687        2.76237986682561
C           40.38519951678433       -8.18867344494952        4.19642265988132
C           41.67106622771116       -8.30560196663225        4.64642008028089
C           42.49899646570081       -8.46807057254406        3.47256480176280
C           44.68691850400322       -8.82777484075374        2.42211505507269
C           46.09098882779004       -9.11403747192791        2.49494393803683
C           46.57568566831227       -9.01872309819742        1.21393241836815
C           45.44229969488369       -8.66980005365165        0.38471800489921
C           44.41219936922506       -8.18454689619072       -1.78271763465578
C           44.50495259427038       -7.96232302473642       -3.21061759688486