91
 energy: -127.975699977096 gnorm: 0.249666739015 xtb: 6.7.1 (edcfbbe)
Fe          -5.79400000000000       56.86699999999999       20.85900000000000
N           -6.37800000000000       56.02300000000000       22.56900000000000
N           -6.57200000000000       58.64900000000000       21.52900000000000
N           -4.89000000000000       57.89600000000000       19.35900000000000
N           -4.63500000000000       55.27600000000000       20.47500000000000
C           -6.11900000000000       54.71500000000000       22.94100000000000
C           -6.72700000000000       54.46300000000000       24.23000000000000
C           -7.34000000000000       55.59200000000000       24.61700000000000
C           -7.12800000000000       56.57600000000000       23.58100000000000
C           -7.40700000000000       58.79299999999999       22.62000000000000
C           -7.96300000000000       60.14299999999999       22.60300000000000
C           -7.47000000000000       60.75700000000000       21.51900000000000
C           -6.59500000000000       59.81600000000000       20.82700000000000
C           -5.04200000000000       59.23499999999999       19.02900000000000
C           -4.16200000000000       59.55800000000000       17.93200000000000
C           -3.50600000000000       58.46699999999999       17.60400000000000
C           -3.95200000000000       57.40300000000000       18.49800000000000
C           -3.91900000000000       55.07899999999999       19.29500000000000
C           -3.62800000000000       53.66100000000000       19.14100000000000
C           -4.15900000000000       53.03800000000000       20.18700000000000
C           -4.78900000000000       54.02800000000000       21.04000000000000
C           -5.42900000000000       53.78300000000000       22.22600000000000
H           -5.38300000000000       52.77000000000000       22.62600000000000
C           -7.64300000000000       57.86899999999999       23.60800000000000
H           -8.26400000000000       58.16200000000000       24.45400000000000
C           -5.91000000000000       60.10300000000000       19.66100000000000
H           -6.06600000000000       61.08299999999999       19.20900000000000
C           -3.51400000000000       56.08499999999999       18.45300000000000
H           -2.78600000000000       55.82800000000000       17.68300000000000
C           -8.17400000000000       55.84699999999999       25.91100000000000
H           -8.20500000000000       54.91900000000000       26.52100000000000
H           -9.21200000000000       56.13400000000000       25.63800000000000
H           -7.70100000000000       56.65500000000000       26.50900000000000
C           -6.62000000000000       53.10599999999999       24.94900000000000
H           -5.55700000000000       52.78300000000000       24.97600000000000
H           -7.21400000000000       52.34300000000000       24.40200000000000
H           -6.99400000000000       53.20300000000000       25.99100000000000
C           -8.94100000000000       60.64800000000000       23.68400000000000
H           -8.72800000000000       60.13500000000000       24.64600000000000
H           -9.98600000000000       60.42299999999999       23.38000000000000
H           -8.81300000000000       61.74300000000000       23.82400000000000
C           -7.75800000000000       62.19199999999999       21.02500000000000
H           -7.04500000000000       62.76900000000000       20.42000000000000
C           -8.94900000000000       62.71500000000000       21.37800000000000
H           -9.65700000000000       62.13099999999999       21.98400000000000
H           -9.22700000000000       63.73200000000000       21.06400000000000
C           -4.05600000000000       60.97199999999999       17.30800000000000
H           -4.27400000000000       61.73699999999999       18.08400000000000
H           -4.79400000000000       61.07500000000000       16.48400000000000
H           -3.02800000000000       61.13500000000000       16.92000000000000
C           -2.40600000000000       58.21599999999999       16.53500000000000
H           -1.58300000000000       57.50500000000000       16.69500000000000
C           -2.49000000000000       58.90299999999999       15.39200000000000
H           -3.31200000000000       59.61600000000000       15.22800000000000
H           -1.73800000000000       58.76500000000000       14.60100000000000
C           -2.86700000000000       53.07399999999999       17.93300000000000
H           -1.80100000000000       53.38400000000000       17.98000000000000
H           -3.31200000000000       53.45400000000000       16.98900000000000
H           -2.92100000000000       51.96500000000000       17.95900000000000
C           -4.17000000000000       51.51100000000000       20.51200000000000
H           -3.36500000000000       51.00400000000000       19.93800000000000
H           -5.14900000000000       51.07300000000000       20.22300000000000
H           -3.99000000000000       51.35700000000000       21.59700000000000
C           -9.10400000000000       54.63800000000000       16.83400000000000
H           -9.27900000000000       55.31399999999999       15.97000000000000
H          -10.05500000000000       54.12199999999999       17.08600000000000
H           -8.32900000000000       53.89200000000000       16.55600000000000
N           -9.30300000000000       56.45400000000000       18.63200000000000
H          -10.21500000000000       56.77499999999999       18.37800000000000
C           -8.63500000000000       55.44199999999999       18.01200000000000
C           -8.54400000000000       56.93400000000000       19.61900000000000
H           -8.85600000000000       57.72400000000000       20.30200000000000
N           -7.38600000000000       56.30299999999999       19.62200000000000
C           -7.42800000000000       55.39900000000000       18.61200000000000
H           -6.56500000000000       54.78099999999999       18.40000000000000
C           -0.38800000000000       54.20600000000000       21.33000000000000
H            0.35200000000000       53.45600000000000       21.68100000000000
H            0.13400000000000       54.94500000000000       20.68600000000000
H           -1.17100000000000       53.68300000000000       20.73999999999999
C           -1.02700000000000       54.91800000000000       22.53100000000000
H           -0.23700000000000       55.43200000000000       23.11900000000000
H           -1.52700000000000       54.16900000000000       23.18100000000000
C           -2.05000000000000       55.93999999999999       22.05800000000000
H           -2.65600000000000       55.48300000000000       21.24700000000000
H           -1.50700000000000       56.81900000000000       21.65000000000000
C           -3.00100000000000       56.42500000000000       23.16200000000000
H           -2.42400000000000       56.83800000000000       24.01700000000000
H           -3.65200000000000       55.59300000000000       23.50600000000000
N           -3.87500000000000       57.51600000000000       22.60500000000000
H           -4.87300000000000       57.23000000000000       22.67200000000000
H           -3.54700000000000       58.38300000000000       22.22800000000000
91
 energy: -128.029826099636 gnorm: 0.104915910401 xtb: 6.7.1 (edcfbbe)
Fe          -5.73170140770635       56.89714841727893       20.88765549159775
N           -6.40702897150352       56.00849346906157       22.56288169478072
N           -6.60915938740599       58.64423837034986       21.50694780223527
N           -4.87676211524356       57.89996646727863       19.35390367548092
N           -4.68828617602697       55.24745922318509       20.42484198975539
C           -6.13577637724077       54.71695170967884       22.94745523545671
C           -6.73101199595064       54.45264128884827       24.24035196584362
C           -7.35466028509709       55.59170276717861       24.62951122670752
C           -7.14247417752989       56.56422850903375       23.57719348743162
C           -7.40852223843638       58.80626119221703       22.61047675912876
C           -7.96855001059547       60.14916544892333       22.61083255580203
C           -7.47383456600151       60.78012714976940       21.51084434070024
C           -6.61213446459604       59.82208964061957       20.82700602681828
C           -5.04262362549281       59.22564237621899       19.02253535500201
C           -4.16242881247503       59.56874033671738       17.92372725768984
C           -3.47644502783946       58.44925209764632       17.59774505391093
C           -3.94130385880605       57.40219363229215       18.49917618242487
C           -3.93238962960439       55.06586678969193       19.28736900738322
C           -3.61883574303759       53.65567467173730       19.12988913571734
C           -4.15558842057353       53.01549708243765       20.19311475200400
C           -4.80251319882130       54.01768224604164       21.01565364070429
C           -5.43315481081321       53.78127927937265       22.22065358751339
H           -5.38310027320591       52.77621578179873       22.62250940389445
C           -7.63770361287392       57.86273585854394       23.59611421348462
H           -8.25312038072615       58.14998620157555       24.44033093787585
C           -5.91237028625844       60.09604525025116       19.66200838102421
H           -6.05343484117511       61.07662902866679       19.22134757194923
C           -3.51605291802240       56.08257421500893       18.45101410142975
H           -2.79884024139386       55.82559558548740       17.68000268625495
C           -8.16110478865549       55.84393275548462       25.89390906546580
H           -8.20154336886542       54.93702242677262       26.50526276248252
H           -9.18748210976350       56.13058439208612       25.63864801072726
H           -7.70786200043384       56.64295181842976       26.49093961666695
C           -6.62057520758313       53.12041967002530       24.94522228840887
H           -5.57561365273884       52.79153194698144       24.97723549403661
H           -7.20481838204311       52.35949000748355       24.41411888792575
H           -6.98955475342493       53.19872166687365       25.97190838671682
C           -8.92314080845525       60.64219843098293       23.67789128963962
H           -8.72752387014011       60.14329686297613       24.63151800468088
H           -9.96098605284991       60.42668978349553       23.38941573762357
H           -8.81014573592180       61.72104049637154       23.82618608075284
C           -7.77546703196340       62.16707124493974       21.04612160311719
H           -7.05529287086432       62.72091640680346       20.44510229629018
C           -8.94446764115318       62.71698508920623       21.37109379317636
H           -9.66600883704120       62.15910560692594       21.94914779899879
H           -9.21544461119717       63.72153259279001       21.06406344147083
C           -4.05800618974903       60.95791015101956       17.32059816042466
H           -4.27061377348343       61.72280995891654       18.07415010717973
H           -4.77946649113938       61.07218827237589       16.50207684478146
H           -3.04909089249599       61.12709607568033       16.92975966332818
C           -2.43250549907891       58.23584911568545       16.54311261358458
H           -1.62624567612238       57.52496872889715       16.71825847912983
C           -2.49179558917257       58.90380219332005       15.39640438992024
H           -3.29715461483543       59.60146032894743       15.20928253113068
H           -1.74996835508622       58.76724618735131       14.61492050837541
C           -2.87127167242826       53.08191906336832       17.94646805031344
H           -1.81752801006053       53.38236581870555       17.98011520037562
H           -3.30498425212280       53.44643372915674       17.00890203038509
H           -2.92120107290047       51.98871854711206       17.95828973126138
C           -4.16428063511689       51.52812027583848       20.50754851583786
H           -3.37667703449080       51.01507426246027       19.94739402229007
H           -5.12978058780536       51.08772283079926       20.23147812389337
H           -3.99340623274818       51.36267440623963       21.57542896021155
C           -9.10659743797275       54.65063787107784       16.83846349644022
H           -9.28270725014111       55.30258719910250       15.97517321725517
H          -10.04132590710018       54.12977191168198       17.07804878640047
H           -8.34841429174707       53.91086393425025       16.56567894644781
N           -9.30683590726683       56.44491136522123       18.63312463668565
H          -10.22568258228334       56.76601490845239       18.37967735309495
C           -8.61792018488852       55.44831950046326       18.00273332114913
C           -8.53229357758169       56.93322688061135       19.62140165144152
H           -8.84529438429424       57.71469975482478       20.29279127941027
N           -7.36640377442831       56.31782053428940       19.64392764730174
C           -7.40971614801553       55.40208490925271       18.63281790994125
H           -6.56027496956105       54.78120474067226       18.42013834562132
C           -0.38490606028940       54.20410527451659       21.33798189870700
H            0.34698354056577       53.46205236158513       21.67270697214947
H            0.12454635268203       54.92875365004072       20.69397377598099
H           -1.15437250713695       53.69312123512724       20.74905477020767
C           -1.02169529652490       54.91455599211564       22.53149040493486
H           -0.24237071581994       55.41477735266531       23.12244024091556
H           -1.51765670880567       54.17522384208289       23.17509287012674
C           -2.03840738311081       55.94436062586539       22.06070416336324
H           -2.63940946493174       55.50341963642339       21.26173823625161
H           -1.51177136513221       56.81274586282509       21.64474382892171
C           -2.99497916671435       56.44571769588384       23.14232813835669
H           -2.42774078381897       56.83769098977863       24.00382785256441
H           -3.63576379308131       55.62497602565973       23.49354470809966
N           -3.88205485123842       57.48935117617871       22.61154263356497
H           -4.86885730566233       57.26512221389316       22.70513205990250
H           -3.54226191931563       58.35594732404447       22.24565484415764
91
 energy: -128.047753596184 gnorm: 0.033933922058 xtb: 6.7.1 (edcfbbe)
Fe          -5.69610616126667       56.91238574388493       20.90330078252198
N           -6.42043508922064       55.99474730980511       22.56086276174245
N           -6.62037408572514       58.63780158932003       21.49555977017490
N           -4.85167771366121       57.90445068497242       19.36963702553953
N           -4.72613947788074       55.23445957273920       20.39118789858633
C           -6.15466070427488       54.71495813534338       22.94435957266496
C           -6.73504417538084       54.44415766243753       24.24189593413517
C           -7.36736659780421       55.58801205016327       24.63126398139488
C           -7.15635157006885       56.54998552350635       23.56725248285845
C           -7.41025698894208       58.80635871358062       22.59538317278912
C           -7.97148352080357       60.13958458438312       22.61469265384610
C           -7.48420441255465       60.78289149320366       21.50140781798553
C           -6.62532099529887       59.81992030903473       20.82535833443410
C           -5.03492213415126       59.21424678693677       19.02919728822288
C           -4.17081950482617       59.57105356293013       17.92112819265393
C           -3.46526725654166       58.43807218029716       17.59702099351123
C           -3.92794319099089       57.40427809060103       18.50995834327091
C           -3.95966942813379       55.05793261499531       19.27813137311242
C           -3.61929162394659       53.65664675769370       19.12258565595930
C           -4.15855883733972       53.00608815063866       20.19413191370789
C           -4.82968786162791       54.01582208145161       20.98715933242202
C           -5.45046464033428       53.78006453583308       22.20352258268654
H           -5.38294792869396       52.78310309714125       22.61262165728784
C           -7.63861390569795       57.84884168357542       23.57607517640379
H           -8.24334832599484       58.13637530644561       24.42334626843769
C           -5.91037415966460       60.08546671834057       19.66640224801965
H           -6.03416748903196       61.06891056256897       19.23544866429891
C           -3.52710625946109       56.07867633039987       18.44613750299602
H           -2.81794407447733       55.81798421413561       17.67413522639178
C           -8.14991286059937       55.84135976768479       25.87430364081323
H           -8.19343998610430       54.94652001034384       26.48895309888236
H           -9.17111222767973       56.13172967928224       25.63168928898003
H           -7.70480590807584       56.63840302452696       26.46767356883505
C           -6.62295644175586       53.13381923299225       24.94298766052374
H           -5.58650737160468       52.80361519741315       24.97731265851511
H           -7.20093127245741       52.37226682291292       24.41999908259701
H           -6.99116355788658       53.20243720202476       25.96178458407105
C           -8.90087125716547       60.63460526238894       23.67256515417219
H           -8.71223416689842       60.14236365830939       24.62189381796682
H           -9.93732850557445       60.42773302763214       23.39611777682835
H           -8.79467321431813       61.70640665327799       23.82016060877703
C           -7.79035744723377       62.12873748907446       21.06457697579154
H           -7.05378767024896       62.65833920983454       20.47061971515512
C           -8.94490980206063       62.72033209898010       21.35982386833493
H           -9.69753301351050       62.19285353388008       21.91271555663816
H           -9.19198625818201       63.72170552892929       21.05403463345794
C           -4.06176914435585       60.93853180417827       17.33251493569296
H           -4.26855742244637       61.70233493048639       18.07713745154754
H           -4.77468406991575       61.06599058627855       16.51686601577994
H           -3.06226103067264       61.10797471351361       16.93799035283414
C           -2.46916227096668       58.25618307415271       16.56070814637105
H           -1.67776623746539       57.54062406906576       16.75241740422216
C           -2.49647801573429       58.90713838627968       15.40211422902158
H           -3.29074747951121       59.59426570874802       15.17933716241610
H           -1.75326452582814       58.76517534445136       14.63554530986471
C           -2.87408892516041       53.09024197480188       17.96198128384242
H           -1.82637912197395       53.38759630977609       17.98547004477878
H           -3.30163505816271       53.44549399128208       17.02620842630947
H           -2.92050872006275       52.00474793192021       17.96576553092506
C           -4.15643802336546       51.54837755607821       20.50287593589954
H           -3.37926866578841       51.03017006610034       19.94859998785564
H           -5.11620950755975       51.10385701991289       20.23742456155826
H           -3.99086197975734       51.37422988762925       21.56274662463353
C           -9.10317235976853       54.66236180198396       16.84512521761224
H           -9.28587050756356       55.30258733393024       15.98382725735561
H          -10.03025840539193       54.14530291924599       17.08713479650855
H           -8.35779199267877       53.92311975206747       16.57148450480452
N           -9.30710986691104       56.43705283194315       18.63531299654822
H          -10.23093969184592       56.75371491175125       18.38507056932656
C           -8.59690407714454       55.45376746359931       17.99786908467831
C           -8.52536907936157       56.93426211401304       19.62160968219695
H           -8.83845381463122       57.71119226134643       20.28624618547958
N           -7.35898828732292       56.33337306926640       19.65413342130990
C           -7.39271680219690       55.40911488699869       18.64731822401409
H           -6.55288114491348       54.78086213192103       18.43991737221359
C           -0.38223786882510       54.20432405759071       21.34494711607826
H            0.34431065297413       53.46708346685316       21.67415185287805
H            0.12093553274296       54.92112890345998       20.70117879078668
H           -1.14602680358139       53.69950894398178       20.75920547293624
C           -1.01895764201227       54.91519096826019       22.53394356514187
H           -0.24457915586669       55.40016380729996       23.13155396513085
H           -1.51937488409625       54.18104991552336       23.16805022474315
C           -2.02763150387982       55.95256304349228       22.05295745832223
H           -2.62735248809542       55.51860502362294       21.26089328064114
H           -1.50107757440141       56.81084473741289       21.63335635264849
C           -2.99125713278316       56.46015867686557       23.12344484997321
H           -2.42608178651196       56.85249760968534       23.98424710782913
H           -3.61361054762961       55.63815141749647       23.48468713170891
N           -3.88284232169597       57.45338784479144       22.58233398521335
H           -4.87483863850998       57.33445277482370       22.78486720466779
H           -3.52878253421812       58.34074053027129       22.27405262730371
91
 energy: -128.055455422520 gnorm: 0.068285549708 xtb: 6.7.1 (edcfbbe)
Fe          -5.67313581113912       56.91835696489557       20.91694898668123
N           -6.43258795977437       55.98001065291758       22.55288735010619
N           -6.62468189843012       58.62809888677553       21.49037721347383
N           -4.83588483878385       57.90380771304569       19.38896676492487
N           -4.75938383026561       55.22664509978074       20.36701208385678
C           -6.17065891228205       54.70550864063582       22.93409869686444
C           -6.74382607686914       54.43480982061486       24.23359353198689
C           -7.37850492101125       55.57883096557456       24.62136504791143
C           -7.16868770626256       56.53553730917884       23.55496039341434
C           -7.41380301133881       58.79515629379394       22.58712706106388
C           -7.97910293512370       60.11849554642450       22.61450279536661
C           -7.50204342755623       60.76693001468036       21.49499539667307
C           -6.63518136502586       59.81206401549603       20.82457544628774
C           -5.02850197515564       59.20674014057501       19.04595085790063
C           -4.18356889148207       59.56836622522079       17.92929339483609
C           -3.47411363058727       58.43274679357967       17.60062444830427
C           -3.92255539436967       57.40338669912317       18.52092117800387
C           -3.98318154972111       55.05416553574559       19.26696049116477
C           -3.62866705274700       53.65895209518744       19.11481683664782
C           -4.16913598735571       53.00532908740289       20.18682961686459
C           -4.85675721702565       54.01302875399175       20.96602330423576
C           -5.46860028572472       53.77317294224820       22.18620146432044
H           -5.38923185166661       52.77929224528721       22.59784870981162
C           -7.64261519931652       57.83318741727834       23.56389783597850
H           -8.24448698898797       58.12060389836551       24.41165125458952
C           -5.90651447237315       60.07889862715535       19.67659536788037
H           -6.01598881039575       61.06523538347768       19.25055973826953
C           -3.53877587915851       56.07448475794924       18.43958719069906
H           -2.84083885783475       55.80872033217663       17.66016756815019
C           -8.14642427033828       55.84139744603561       25.86293861168409
H           -8.18921982912095       54.95153289858811       26.48327142028180
H           -9.16734217207757       56.13679260488342       25.62682884496532
H           -7.69597966183415       56.64162557512738       26.44761015262134
C           -6.62674496252122       53.13557379148804       24.94237472986068
H           -5.58988730583408       52.80959431660074       24.97997648550240
H           -7.20102177543466       52.36886932325695       24.42414498499950
H           -6.99707848382246       53.20691831452665       25.95943781544976
C           -8.88566054619565       60.62551247681939       23.67642171628855
H           -8.69095778515444       60.13821413539958       24.62639844755460
H           -9.92646257450451       60.42796721789038       23.41243989272571
H           -8.76965337487025       61.69713151873815       23.81197936848003
C           -7.80307206789633       62.10327577358328       21.06905062601573
H           -7.04652915658258       62.61354486107086       20.48446410317992
C           -8.94720820461425       62.73133574607036       21.34015843927865
H           -9.74075407811354       62.22926991370979       21.86592859881875
H           -9.15574513266563       63.73938689145937       21.03077494118899
C           -4.06887818824702       60.92760320570169       17.34362229023769
H           -4.26657381733265       61.69261689354413       18.08868645764076
H           -4.78050766266793       61.06415790113172       16.52889752956496
H           -3.07009776677021       61.08632177884591       16.94422303010688
C           -2.49486182095069       58.26294479078716       16.56572086708464
H           -1.71004607664619       57.54483744346506       16.76985352786922
C           -2.49772895379266       58.90805041779197       15.40173011592192
H           -3.28818627835210       59.59003442011193       15.14735161275298
H           -1.74113000406405       58.76055732261444       14.65259819463199
C           -2.87180479602536       53.09639102556335       17.96726509537675
H           -1.82606597296820       53.39820981589872       17.99357462780453
H           -3.29588225461764       53.44676393409321       17.02857164092847
H           -2.91406088505296       52.01172754750671       17.97263526019313
C           -4.15103112291285       51.55615178867590       20.50066230823277
H           -3.37454890349564       51.04113506282545       19.94418969918493
H           -5.11003882014155       51.10493999965045       20.24367056368218
H           -3.98084147831186       51.38390686193963       21.55976119976595
C           -9.09490123666535       54.67355483394682       16.85646179951731
H           -9.28597962141962       55.31154755055273       15.99591187351931
H          -10.02175891378511       54.16258822214961       17.10790171661420
H           -8.35864433559627       53.92994560692423       16.57483505691392
N           -9.29833312844858       56.43587349711376       18.64215689805988
H          -10.22669407894195       56.74305282010233       18.39563887642302
C           -8.57503725198295       55.46033795582584       18.00403326487683
C           -8.51685776536260       56.94076026702470       19.62644820662400
H           -8.83284693418696       57.71745227960791       20.28811762882042
N           -7.34930050571462       56.35031423680203       19.66236641571519
C           -7.37368621965921       55.42152654187537       18.65972608724427
H           -6.53744286279359       54.78648707044967       18.46027367363394
C           -0.37549044201153       54.20191337031856       21.35198618679214
H            0.34928325127690       53.46468225580470       21.68162470172585
H            0.12666278667320       54.91676858861599       20.70738350957985
H           -1.13986002213166       53.69965446766678       20.76719981416483
C           -1.01511785385976       54.91543221713114       22.53703433370365
H           -0.24377729656409       55.38878080575671       23.14599915424617
H           -1.52977126660434       54.18470819193666       23.16182595652207
C           -2.01062243539104       55.96078255982938       22.04209884687596
H           -2.60864511981471       55.52923434218673       21.24872852168313
H           -1.47769921339947       56.81321799259367       21.62123269817951
C           -2.98859565456062       56.47219989998922       23.09821103376015
H           -2.43114289268933       56.88784464091695       23.95592321675423
H           -3.58741523822107       55.63879850277503       23.47156124770238
N           -3.89431044496228       57.41660687671847       22.50155078642190
H           -4.88535101309923       57.42032745131004       22.90769812893105
H           -3.53862136838924       58.35675108010214       22.32051713885100
91
 energy: -128.060793080786 gnorm: 0.050393821032 xtb: 6.7.1 (edcfbbe)
Fe          -5.66438671000200       56.91287348704861       20.91974692053386
N           -6.44308911956040       55.96327210820389       22.53893205216240
N           -6.61956720590009       58.61592350364768       21.49007211889011
N           -4.82542249346289       57.89935913180013       19.40844857499034
N           -4.78277022351708       55.22257757035904       20.35257777408691
C           -6.18529315467114       54.69048162908509       22.91963414219059
C           -6.75404536517854       54.42342526080080       24.22102289429895
C           -7.38658769350172       55.56662009814523       24.60664357642487
C           -7.17746329096363       56.52005403923197       23.54065772424946
C           -7.41534955591951       58.77846123830464       22.58231035012075
C           -7.98664633948289       60.09378204182775       22.61203132779428
C           -7.51923258194836       60.74354326130968       21.49075660125558
C           -6.64032237834910       59.80064463220186       20.82522524569277
C           -5.02185531547977       59.20054940791084       19.06621900412059
C           -4.19625639023869       59.56251357125517       17.94096841030953