87
 energy: -124.720040608048 gnorm: 0.000043657320 xtb: 6.7.1 (edcfbbe)
Fe           2.71244095008544       20.86313420077524       13.08785833325792
N            4.09501791453267       19.73867112982883       12.18392588260927
N            3.34129159136702       20.19891469359912       14.87062766320215
N            1.35085337926264       22.02020497855791       14.00609811042695
N            2.11108456456044       21.56502753951176       11.30977099883476
C            4.34616817345367       19.66991978970881       10.85094014729621
C            5.41612589194060       18.73373693849920       10.57939279184324
C            5.80171005456268       18.23665833533560       11.78368117099476
C            4.96709857014557       18.88250476083107       12.77393688522392
C            4.32912173844813       19.29552232403825       15.10456932257481
C            4.49614452924321       19.07621405488022       16.52438342199976
C            3.58599634417631       19.87550365592936       17.14297995753973
C            2.87671679190617       20.57063989654264       16.09218301583799
C            1.16802082729915       22.16381375279935       15.34282369301367
C            0.11956960066933       23.12710448757767       15.61684990384206
C           -0.29868993682748       23.58682671895972       14.39577398856531
C            0.48495167398550       22.88729883875152       13.41080874382442
C            1.09418337615033       22.43504021437947       11.07454549775194
C            0.94809066757225       22.67540057511233        9.65229969284868
C            1.94248129806808       21.95563824701190        9.04672672350791
C            2.63944774865032       21.25984189688736       10.09626483544461
C            3.68591163872917       20.38220354885321        9.87185824033292
H            4.00024492500830       20.23700221757732        8.84964646907154
C            5.08375472294890       18.66332884890035       14.13356139691691
H            5.82731976629166       17.95391499425462       14.46378147329713
C            1.86275821566173       21.48027730853445       16.32394756052526
H            1.59761953293702       21.67425990049711       17.35188758681967
C            0.35360783670342       23.08026096558961       12.04598515889918
H           -0.37208461304369       23.80492882583213       11.71160338419683
C            5.93545106046697       18.42235478463691        9.21783894392300
H            6.31325622476002       19.32426037738842        8.73545157908333
H            5.14325140022953       18.01099512168726        8.59213000480503
H            6.74357782361819       17.69666335870148        9.26804172236381
C            6.85753153077381       17.23303226490545       12.09914300919719
H            6.42600078287207       16.37413300970393       12.61324818720630
H            7.62079472093693       17.66596289871579       12.74685349930633
H            7.34009182236840       16.88099628418638       11.19073514169449
C            2.24150695129739       21.83339478001740        7.59272807060504
H            2.06168521535578       20.81429121472031        7.24832418987414
H            3.28550526952809       22.07658372585249        7.39377874640588
H            1.61046190139275       22.50376458123612        7.01439123418341
C           -0.05358733360685       23.49521483207419        9.00209264880086
H            0.29588688739350       24.06168130684041        8.14526055920051
C           -1.33596779344085       23.56561727001111        9.34097706735409
H           -1.74780612502992       22.98257586781138       10.14746629971784
H           -2.02714797206369       24.19426875695071        8.80433104818942
C           -1.30553807678950       24.64269077639176       14.09883824074593
H           -2.26877389207226       24.20142043702774       13.83621841764752
H           -0.98155000689658       25.26177844587520       13.26350756639209
H           -1.44652765417603       25.27875407320825       14.97046184942415
C           -0.32589154966149       23.50811253996655       16.93853597814853
H            0.43410447791191       23.49292176856379       17.71131210858623
C           -1.56659890445787       23.85634845639058       17.26427209419639
H           -2.37202428349315       23.84404759174555       16.55084743148235
H           -1.82539551335997       24.14268644316958       18.27023188157933
C            3.31477226619493       20.04786244990414       18.59797253807749
H            2.28393347857138       19.77869073706121       18.82995543536632
H            3.46818145664225       21.08513317787870       18.89702027980561
H            3.97414830318381       19.41948818842483       19.19177467796465
C            5.48857165817688       18.13650861587259       17.11894319532238
H            5.42230238400188       18.14015113673246       18.20413273987680
H            6.50353398400496       18.41819103977958       16.83658390838033
H            5.31101058890740       17.11950299493670       16.76811230550841
C            5.30307821031660       25.80347989065357       12.95206353394804
H            6.10746590556153       25.93700794512790       12.22872813147656
H            5.62019321109932       26.24056007006856       13.89890588972451
H            4.42574664251782       26.33655017307979       12.59940147226211
N            5.89601600702176       23.44494144757221       13.55077244551220
H            6.85385892796262       23.63923340639122       13.79244705468495
C            4.97661651124978       24.36462054829106       13.11833140164059
C            5.28283674039963       22.24089605218871       13.59214101499510
H            5.76172148506514       21.33268786265668       13.89445395866141
N            4.03261415615749       22.34235295763624       13.21279994420123
C            3.82693043004333       23.65677265361748       12.91469235104090
H            2.87321057434047       24.00428257824151       12.57591495970569
C            1.28757892316354       17.43803746732964       15.12850154586278
H            0.90290326398963       17.20070153258992       16.11841894079286
H            2.33549481869217       17.70847839071622       15.21814688892540
H            1.21209240494259       16.55415607181630       14.49954248921299
C            0.49846790170196       18.58377468067361       14.52537545028701
H            0.55301513403604       19.47393845201020       15.14971616048402
H           -0.54304521699493       18.29830286237778       14.37752183046749
S            1.16972400539373       19.01345756663206       12.86718987798136
C           -0.36021939664597       19.68700437573123       12.14939713784684
H           -0.70359651767818       20.52938590006747       12.74138891890382
H           -1.11042265253092       18.90125040723482       12.11453201504266
H           -0.12199032782273       20.01725375939244       11.14439193547800
