87
 energy: -128.467179756297 gnorm: 0.000097745884 xtb: 6.7.1 (edcfbbe)
Fe          70.78807360044490       67.93980549314151       79.42549437038700
N           70.95993646068047       67.24435133304306       81.29767781459316
N           69.28829475283113       66.64986613787966       79.08196381129554
N           70.59529776710446       68.66801926529011       77.56814343449228
N           72.30955064557671       69.19762883318873       79.75944907544380
C           71.81898129300532       67.67809805087911       82.25575067329605
C           71.61370168503686       66.95582901928552       83.49212069868368
C           70.61259701088956       66.06697392686797       83.25284163075690
C           70.21830756350141       66.26209740023299       81.87455564213127
C           68.80015846676362       65.71786176918921       79.94382816646689
C           67.74118519203081       64.95739730016012       79.33154321350955
C           67.58818551805717       65.46035622211339       78.06594280493201
C           68.57606775982978       66.51492903419756       77.93485121225120
C           69.67575593043779       68.28989477632477       76.64078382091340
C           69.81610437641891       69.06757186607486       75.43762447161119
C           70.83696071634417       69.95118841320090       75.66493292808013
C           71.32185851916343       69.66299605254274       77.00103963046857
C           72.87661649991797       70.04317276566690       78.86002542243531
C           74.00291366887784       70.73491476031768       79.44860140759646
C           74.08950306617815       70.29749136443985       80.73332746133880
C           73.02446019175271       69.33367561264592       80.90592581724968
C           72.78967087267428       68.64854889208340       82.08410775017636
H           73.42093302575263       68.87810242207613       82.92960596723906
C           69.22300891035590       65.53534350278524       81.25064766172068
H           68.72667098285402       64.77337988577430       81.83303088762351
C           68.73392641693539       67.28730914201250       76.79991479323419
H           68.07494520281924       67.09435027917820       75.96657966649302
C           72.42699584249954       70.26816200542397       77.57251417961101
H           72.97538327296598       70.97291687644042       76.96676250319446
C           69.99824905667413       65.06653896920314       84.17201978587005
H           68.92971995142275       65.25250405757468       84.28549673454064
H           70.45898174132860       65.11029068367282       85.15603429796420
H           70.12437256840637       64.05703251282219       83.77953470004911
C           72.38796193784852       67.19221119919332       84.74422760105260
H           72.28765163999988       68.22888050110976       85.06649009906978
H           73.44792733308073       66.99004754418544       84.58575543833723
H           72.03437034369222       66.54847800058015       85.54614470701864
C           67.03307880339018       63.80888373383922       79.96284410216003
H           66.22069985748273       64.15411046750616       80.60526894573110
H           67.71867851036393       63.22242879335702       80.57276229159625
H           66.61103016412986       63.16322573861368       79.19517657375611
C           66.67759410272423       65.04915768978485       77.02168809503443
H           67.04960475994750       65.15414687276265       76.00879393497193
C           65.44941527116751       64.57408360155918       77.20568238448479
H           65.00615572600627       64.49167563093708       78.18262343826308
H           64.83163818290875       64.27330517421697       76.37554307501416
C           68.95734597547741       68.93606305085896       74.22690903884693
H           67.91762235585689       69.16147405476380       74.46692854454935
H           68.99851195345302       67.91934337777251       73.83421093283414
H           69.28366599974538       69.62230834512729       73.44932670254461
C           71.31842266412923       70.97218466252833       74.75772792938321
H           71.33472430507722       70.69022680589993       73.70991588403764
C           71.68794972076384       72.20241228381251       75.09639692558149
H           71.64017587721273       72.55438412995977       76.11294885395516
H           72.03043877342350       72.91149543026188       74.36067752450228
C           74.84834646770364       71.72984075723920       78.72928576080507
H           74.25339228995573       72.59194496907099       78.42594403315462
H           75.28019728172748       71.28756236624832       77.83138095531307
H           75.65898301052900       72.08087805398456       79.36352424569593
C           75.05711352967752       70.68384292310931       81.79998254037702
H           75.76131597002336       71.42674731032241       81.43315446147810
H           75.62178411275119       69.81561777678063       82.14181911112502
H           74.53266249578584       71.10375725528876       82.65872543066794
C           73.48331432366619       63.98078813476798       76.53813823979269
H           73.58476671602050       62.99474562674220       76.99168680637347
H           74.43590122118025       64.24396769190517       76.07810333131530
H           72.72489063503271       63.93075383820887       75.76316789393836
N           73.85644779615144       65.26456666162221       78.65621023175119
H           74.73358992179033       64.82751198259625       78.88656840822023
C           73.09007542842683       64.99097143584092       77.55307772851336
C           73.22027353505723       66.22223344381420       79.36849024439951
H           73.58977090957022       66.63408482871476       80.28478242515045
N           72.10065010096213       66.57085191429682       78.78461340027289
C           72.00556047685131       65.81394359900186       77.65455206085244
H           71.16859929900744       65.91138918400507       76.99496917356331
C           67.95955267209422       72.65784304921178       80.42807548413104
H           67.96509626340323       73.05272177004755       81.44417194759825
H           66.94543763012248       72.73862829395959       80.03656612198860
H           68.61809351498863       73.26517977496465       79.81506587909541
N           67.77724259569723       70.24917560454716       81.09020328961202
H           66.95218985984252       70.36175110085375       81.65597344064240
C           68.42252794619661       71.24702326482608       80.40676968398222
C           68.44770409973481       69.09726666088049       80.86104578989844
H           68.16864265365754       68.14851110557701       81.27067152179630
N           69.47583738057122       69.30477383384233       80.07635194434611
C           69.47399961516781       70.63683386289379       79.78561616902179
H           70.22400745928083       71.06316621046443       79.15259678677513
