87
 energy: -128.294813498133 gnorm: 0.334970755885 xtb: 6.7.1 (edcfbbe)
Fe          70.91400000000000       67.85299999999999       79.46800000000000
N           71.07899999999999       67.14600000000000       81.43200000000000
N           69.28600000000000       66.58300000000000       79.16000000000000
N           70.68400000000000       68.64199999999998       77.54500000000000
N           72.47400000000000       69.18899999999999       79.82799999999999
C           72.08799999999998       67.37000000000000       82.28100000000001
C           71.90099999999998       66.74299999999999       83.60599999999999
C           70.58799999999998       66.07599999999999       83.43899999999999
C           70.21400000000000       66.38500000000001       82.13300000000000
C           68.60299999999999       65.87000000000000       80.08400000000000
C           67.55600000000000       65.11000000000000       79.57100000000000
C           67.64900000000000       65.41400000000000       78.13199999999999
C           68.69499999999999       66.30200000000001       77.98600000000000
C           69.92599999999999       68.14400000000001       76.53699999999999
C           69.95999999999998       68.94199999999999       75.27300000000000
C           70.85800000000000       70.04899999999999       75.65100000000000
C           71.25200000000000       69.76799999999999       77.05600000000000
C           72.85500000000000       70.24600000000000       79.10899999999998
C           73.93999999999998       70.92400000000001       79.65500000000000
C           74.26400000000000       70.21700000000000       80.80900000000000
C           73.33199999999999       69.19199999999999       80.85400000000000
C           73.27599999999998       68.15500000000000       81.90100000000000
H           74.19900000000000       67.94999999999999       82.44400000000000
C           68.94100000000000       65.93700000000000       81.52700000000000
H           68.16200000000001       65.62000000000000       82.22000000000000
C           69.16400000000000       66.88200000000001       76.70600000000000
H           68.92599999999999       66.32700000000000       75.79900000000001
C           72.14600000000000       70.63000000000000       77.86799999999999
H           72.29600000000001       71.64999999999999       77.51400000000000
C           69.81600000000000       65.25500000000000       84.43599999999999
H           68.91300000000000       65.81600000000000       84.75800000000000
H           70.45000000000000       65.05100000000000       85.32500000000000
H           69.49800000000000       64.29800000000000       83.96899999999999
C           72.88000000000000       66.78100000000001       84.76200000000000
H           73.33700000000000       67.79199999999999       84.82800000000000
H           73.68399999999998       66.03200000000000       84.59800000000000
H           72.34699999999999       66.56399999999999       85.71200000000000
C           66.58400000000000       64.20500000000000       80.28900000000000
H           66.01300000000001       64.79400000000000       81.03800000000000
H           67.13900000000000       63.39800000000000       80.81300000000000
H           65.87200000000000       63.76400000000000       79.55900000000000
C           66.77600000000000       64.88500000000001       77.06000000000000
H           67.12700000000000       64.11100000000000       76.36199999999999
C           65.54800000000000       65.35800000000000       76.94399999999999
H           65.18100000000000       66.13300000000000       77.63299999999998
H           64.87700000000000       64.98300000000000       76.15700000000000
C           69.26599999999999       68.69999999999999       73.95699999999999
H           68.30800000000001       68.16700000000000       74.13600000000000
H           69.91000000000000       68.07499999999999       73.30300000000000
H           69.05099999999999       69.67099999999999       73.46200000000000
C           71.28700000000001       71.19199999999999       74.79600000000001
H           71.96599999999998       71.02800000000001       73.94600000000000
C           70.86399999999999       72.42300000000000       75.03700000000001
H           70.18400000000000       72.62500000000000       75.87799999999999
H           71.18700000000000       73.25900000000000       74.39900000000000
C           74.62299999999999       72.15399999999998       79.10899999999998
H           74.02999999999999       73.05599999999998       79.37400000000000
H           74.69600000000000       72.08300000000000       78.00300000000000
H           75.63800000000001       72.24699999999999       79.55100000000000
C           75.36799999999999       70.51000000000001       81.80399999999999
H           75.55900000000000       71.60400000000000       81.83499999999998
H           76.30000000000000       69.98999999999998       81.49400000000000
H           75.06099999999999       70.16900000000000       82.81600000000000
C           73.19799999999999       63.75600000000000       76.56500000000000
H           73.76000000000001       62.91399999999999       77.02200000000001
H           73.77000000000000       64.13900000000000       75.69299999999998
H           72.20300000000000       63.38800000000000       76.23500000000000
N           74.08999999999999       65.48699999999999       78.16799999999999
H           75.05100000000000       65.28200000000000       77.98199999999999
C           73.02499999999999       64.84699999999999       77.57399999999998
C           73.63800000000001       66.40100000000000       79.00900000000000
H           74.27000000000000       67.05200000000001       79.61199999999998
N           72.31800000000000       66.37600000000000       78.98099999999998
C           71.91000000000000       65.41200000000001       78.09300000000000
H           70.86000000000000       65.21899999999999       77.91399999999999
C           67.35800000000000       72.22100000000000       79.79399999999998
H           67.29000000000001       72.81900000000000       80.72799999999999
H           66.33900000000000       71.88300000000000       79.50800000000000
H           67.78800000000000       72.85599999999999       78.98999999999999
N           67.96299999999999       70.07299999999999       80.97199999999999
H           67.16500000000001       70.08499999999998       81.57500000000000
C           68.23900000000000       71.03200000000000       80.02500000000001
C           68.90900000000001       69.15200000000000       80.95299999999999
H           68.93500000000000       68.28000000000000       81.60500000000000
N           69.78900000000000       69.47700000000000       80.02600000000000
C           69.39199999999998       70.64799999999998       79.43100000000000
H           69.97199999999999       71.09999999999999       78.63599999999998
87
 energy: -128.378415319550 gnorm: 0.170148286391 xtb: 6.7.1 (edcfbbe)
Fe          70.93228091862332       67.87170605335034       79.47426846862179
N           71.08098190148191       67.15601677306266       81.42596361197145
N           69.30137587226845       66.60979256035074       79.17186051817788
N           70.69642989884076       68.63346090484156       77.53298489306667
N           72.46782194998984       69.17327437323250       79.82164088931069
C           72.11321992233209       67.37028268943337       82.26763291727266
C           71.88662897957515       66.73042605213281       83.56613537876862
C           70.61196372455387       66.10081263064536       83.43201990386606
C           70.18785662883690       66.39010223043361       82.10636728173633
C           68.61945559024845       65.90065567492664       80.11278151035012
C           67.56606663069491       65.13521712292734       79.54637417774715
C           67.66374504701200       65.39851599721210       78.14250310054345
C           68.73082727880340       66.31450661536145       77.97444131544512
C           69.92816750857766       68.11127514363335       76.54027655191226
C           69.99796701093558       68.94081923452428       75.31847549264353
C           70.84861106760052       70.02368982725481       75.67119746066130
C           71.25843332506736       69.77835426229348       77.06561561114067
C           72.81800355416799       70.24490901383889       79.07555572406366
C           73.92941170666285       70.92320656571107       79.65326231957093
C           74.26187168039078       70.20925125237036       80.80075252383058
C           73.32457552837455       69.14521415028413       80.86865917026941
C           73.25912050258347       68.15417189189476       81.90720985004765
H           74.17263759187320       67.97987950852195       82.46881454976341
C           68.95508288268081       65.93878007939661       81.51581071922993
H           68.18803729309631       65.59091990169939       82.20388327280591
C           69.16417172956851       66.90272144451811       76.71963734986129
H           68.89262403382058       66.36142041733400       75.81537562930835
C           72.14305868389305       70.60400500298002       77.85167064446124
H           72.31643778698243       71.61623601917255       77.49285248645977
C           69.83671378185710       65.27514897800069       84.42543497487176
H           68.93110184077362       65.80785886736072       84.75410034744274
H           70.44290029593938       65.05455410501881       85.31113670154296
H           69.51163298083434       64.32326403148465       83.97855053032612
C           72.85071398122174       66.77719242563469       84.73241167629580
H           73.31926583220240       67.76913741988216       84.81826091577435
H           73.66206762399105       66.04460241172131       84.59952407662044
H           72.35057061651651       66.56369646768313       85.68687234420608
C           66.60077765492167       64.22664050015835       80.26797167144066
H           66.02495182437579       64.78594892904782       81.02097424123750
H           67.13091834186137       63.41959984328663       80.79665593539423
H           65.88907985586937       63.77416587526184       79.56624330243244
C           66.77712194403780       64.88693178552553       77.07830184131740
H           67.13767549527694       64.12663673703054       76.38162771924442
C           65.54541702091873       65.35526439391919       76.94737836394522
H           65.17520185214146       66.12264803430030       77.61926289175319
H           64.87933311415914       64.99261096867828       76.16906528127936
C           69.28815676462933       68.70610074579658       74.00122741485376
H           68.33369862893512       68.17789603108463       74.14438861307228
H           69.90105081151358       68.09090588436483       73.32296998523741
H           69.06666661443859       69.65185559869181       73.48415586541279
C           71.27032271948774       71.16942866721084       74.81968116023897
H           71.94371692109385       70.99977806845048       73.97239366129706
C           70.86301073554986       72.41264380477108       75.04586741047494
H           70.19011235466004       72.63206027726508       75.86791786901649
H           71.17893432146721       73.24193833877135       74.41479149739524
C           74.61487227280439       72.14605938729953       79.11391073843645
H           74.03999375895403       73.04730631551763       79.36781699463612
H           74.69640729564141       72.08694532621851       78.02165202505319
H           75.62008637664890       72.24564324164798       79.54087558991044
C           75.35681697689057       70.50846780308586       81.79160403142640
H           75.55621475349297       71.58621668405996       81.83379127497025
H           76.28671233795882       69.99839247108061       81.50260198961432
H           75.06879437939003       70.17315155710382       82.79550716640112
C           73.20360647610804       63.75274354519028       76.56560724005574
H           73.75602764666058       62.91593575428312       77.00962794939815
H           73.76226742166509       64.12588367041099       75.69864548262983
H           72.22209139528150       63.39519151890592       76.23867834268192
N           74.09453001503253       65.47409841125813       78.15933316224263
H           75.06134869725476       65.27236119265132       77.97734023836784
C           73.03194464421823       64.83757687634342       77.56810803756646
C           73.62041956242336       66.40090189021458       79.00248326812417
H           74.24504199776032       67.04402170904278       79.60383443919662
N           72.30447671692528       66.39381450085904       78.97005226632888
C           71.91962593024368       65.41602465552711       78.09467687906438
H           70.87849487395796       65.22103627225076       77.91523058894579
C           67.35604944871390       72.22268005273659       79.79810551836169
H           67.28437444419421       72.81991067079763       80.71546049642411
H           66.34928710318250       71.89631604701660       79.50968768879258
H           67.77818161647826       72.84461979940644       79.00267713562292
N           67.94356833076567       70.09089186830819       80.97858853159150
H           67.14433428710481       70.09935504440341       81.58387326145673
C           68.22838534312662       71.03984399890491       80.02945580090329
C           68.90077648168597       69.16006134460433       80.95069207777975
H           68.92918373851157       68.29491572719887       81.59433565852915
N           69.77745121424714       69.45809753994810       80.02087529114853
C           69.38658898046897       70.63472848808983       79.44171215379333
H           69.96406532399716       71.08667405189372       78.65396906551381
87
 energy: -128.417862237652 gnorm: 0.044238624461 xtb: 6.7.1 (edcfbbe)
Fe          70.95009647383515       67.88989991090192       79.48709674418267
N           71.08059274513748       67.16856689824014       81.41380537115907
N           69.32139503329344       66.63783856963100       79.18039074078371
N           70.71429556852965       68.62154917646649       77.53862869527566
N           72.45678094935559       69.15039535371777       79.81309468654936
C           72.13146337784057       67.37212508977321       82.24946215311216
C           71.87262460993971       66.71671244174628       83.52973463460847
C           70.63995634959470       66.12771868206183       83.41998361630426
C           70.16347197864064       66.40220663752075       82.07406600278854
C           68.64142021109707       65.93569205748020       80.13637969716511
C           67.58064861009981       65.16491751483716       79.51763625230534
C           67.68218348506835       65.39625373680890       78.16146450912666
C           68.76940671545864       66.33860447194311       77.96638578528049
C           69.94034071942701       68.08103734907030       76.55493078423039
C           70.02963599586150       68.93489387991418       75.36087260046635
C           70.83459054477747       69.99410639611430       75.69658988633603
C           71.27045316889465       69.77667148972974       77.08308413091379
C           72.78123479326256       70.23188680818649       79.04849594142972
C           73.91291451361903       70.91257071400703       79.65564722300815
C           74.25251090650291       70.19773608055853       80.78335104618525
C           73.31131132102496       69.09916960949091       80.87286880629735
C           73.23859839262308       68.15585349265558       81.90649734540051
H           74.13557979581860       68.03315291650655       82.51088229629464
C           68.97221775492014       65.94362722041005       81.49945759832286
H           68.22622553657418       65.53958928460835       82.18245130232742
C           69.17015859531722       66.92260216663099       76.74024644130083
H           68.83287035115016       66.41147563922281       75.83637242343094
C           72.14505837992105       70.57068052943065       77.84242656461963
H           72.35585971884669       71.56884151547840       77.46075476531182
C           69.86093353411354       65.29926172498350       84.41099868350672
H           68.95429984074529       65.81646776003443       84.74104950510970
H           70.45061953229443       65.06819619773391       85.29497578099365
H           69.53602354036272       64.35204511601196       83.97091564292947
C           72.82413229282601       66.77055390148335       84.70273145117611
H           73.29077410537174       67.75476492657859       84.79413267197590
H           73.63811889662151       66.04731336373001       84.58606676146083
H           72.33342363460062       66.55802193836767       85.65302610699565
C           66.62187173519413       64.25382772698080       80.24485285252254
H           66.04485674727904       64.79631600096410       80.99997592468385
H           67.14265031559923       63.44811839875779       80.77233850481238
H           65.91227531732078       63.79426003544673       79.55788474590130
C           66.78716900396067       64.89994487222478       77.10022697068190
H           67.15808126176633       64.14643198864592       76.40892538934830
C           65.55017003322119       65.35424288127963       76.95458800367868
H           65.16709061324710       66.11378700800833       77.61380091979565
H           64.88916373745944       64.99772526337924       76.18136582900986
C           69.31150940469935       68.70823333849253       74.04318074448440
H           68.36117540046004       68.18658248109740       74.17696317680854
H           69.91030582502880       68.10029770961386       73.35506650449685
H           69.09308923191597       69.64599213000346       73.52505002424046
C           71.24768346543944       71.14108759738021       74.84936122299966
H           71.91423587672242       70.95832445807667       74.00510127506895
C           70.85985183440046       72.39422896895096       75.05885628753128
H           70.19262881419886       72.63776421336888       75.86740053585662
H           71.17544816606177       73.21560897739083       74.43139539900984
C           74.60040754905548       72.13214360881817       79.11955475390039
H           74.03989085979860       73.03616756078127       79.36510684267031
H           74.69022925946996       72.08153702435949       78.03525068509177
H           75.60025546897160       72.23503071621839       79.53789840736611
C           75.34089219028931       70.50279594678703       81.77286619431828
H           75.54489108179546       71.57127567161933       81.82173274521821
H           76.27243072103379       69.99978890400540       81.50115399052810
H           75.06417018896730       70.17205421246537       82.77279111580738
C           73.20743810396456       63.74718663263928       76.56664627907682
H           73.75507166342415       62.91271725467929       77.00018567645519
H           73.75831469910113       64.11471809410945       75.70243313758583
H           72.23359113292467       63.39828594405394       76.24055937333483
N           74.09797331316035       65.46366520098705       78.15567692749757
H           75.06922060769003       65.26613417095149       77.98021281402933
C           73.03744900742909       64.82905964227702       77.56501712566346
C           73.60337835418167       66.40599025971915       78.99084595506525
H           74.22209055127610       67.04156087063735       79.59259740838760
N           72.29193915627295       66.41396807885675       78.95018710813095
C           71.92732687206845       65.42308679922704       78.08828518179631
H           70.89362664497389       65.21909309921453       77.90753295152705
C           67.35557909287465       72.22737855124315       79.80062125075736
H           67.27913732292990       72.82515477228023       80.70719397133244
H           66.35557614074797       71.90807146030420       79.51072737876549
H           67.77317954354446       72.83915097966613       79.00891169599339
N           67.92299236080588       70.10961715867107       80.98933637508524
H           67.12335615733490       70.11611445415780       81.59637208115751
C           68.22005780692493       71.04664589651914       80.03550885878197
C           68.88139257813661       69.16457997020848       80.95124439396371
H           68.91173797735229       68.30789781613109       81.59081048463858
N           69.75749689075037       69.43384809333418       80.01990297863370
C           69.37669371939508       70.61584382951928       79.45140197570440
H           69.95073422601132       71.07166271342891       78.67014492213866
87
 energy: -128.434612538092 gnorm: 0.038562080207 xtb: 6.7.1 (edcfbbe)
Fe          70.95295876045763       67.89847789365166       79.49491832418033
N           71.08177577094875       67.18042536610849       81.39559124134561
N           69.33827578464954       66.66114604636807       79.18257251979310
N           70.74150849250829       68.59856789931621       77.55864686578791
N           72.45099105501876       69.13059062661534       79.80497384108389
C           72.13352634917658       67.37433095728339       82.23039682940841
C           71.87749368044635       66.71298125557459       83.50314852082627
C           70.64495446389283       66.14101005136871       83.40212951011401
C           70.16496043101081       66.41567480182263       82.05319489360626
C           68.65737165276889       65.96241626154905       80.13563062584859
C           67.59301141646743       65.19478408650474       79.51095836213183
C           67.69636153853439       65.41516249978517       78.16701172779005
C           68.78908174970790       66.36076180397350       77.97078953127084
C           69.96588970663559       68.06443637421717       76.57702312064679
C           70.04788173685360       68.91396604637529       75.39025315803933
C           70.83461964528945       69.98001778059668       75.72641718057972
C           71.28445354966958       69.75437163481845       77.09914903174642
C           72.77450850121949       70.21153866605079       79.03994273778606
C           73.90255632487840       70.89915378864825       79.65328417024470
C           74.24518326875250       70.18618441744535       80.76885586082058
C           73.30442672909609       69.08259307587666       80.86368669006579
C           73.22990813214052       68.17018338614459       81.91533975266420
H           74.09930421239999       68.10814762149930       82.57859349472149
C           68.98731864174326       65.93484606588858       81.48924636029894
H           68.26982824004936       65.46039342347143       82.16425887020124
C           69.16046728909912       66.93765477001246       76.75166633365998
H           68.74261251698150       66.47379475001694       75.84796552762867
C           72.16960065773122       70.54639509276574       77.82873761044893
H           72.42323882683500       71.52056541739364       77.40740411572132
C           69.87646381344521       65.31969571477086       84.39739011614786
H           68.97320415136447       65.83926445466308       84.72565832716774
H           70.47232422010580       65.09205023608843       85.27765628308497
H           69.56080474023642       64.37429289182863       83.95323178286850
C           72.81234446604498       66.76256820210732       84.67766593237279
H           73.26577721890412       67.75005391961670       84.76659739448367
H           73.62290561908303       66.03922300580115       84.56300048637134
H           72.30286258722629       66.54625124625700       85.61507947532554
C           66.64036134762591       64.28273582838436       80.22974363717282
H           66.06429621515630       64.82420268207537       80.98284392255655
H           67.17140509990034       63.48063408213812       80.74753832036922
H           65.93836270912090       63.82477924001213       79.53510157486279
C           66.80335145421893       64.91778140426231       77.11097990488099
H           67.18876342953575       64.16658038536852       76.42766033775888
C           65.56050159796433       65.35386191513321       76.96355765068790
H           65.15985952707035       66.10905386644656       77.61900982932892
H           64.90484058597518       64.99369861951384       76.18817455728608
C           69.33240103084211       68.69978207071011       74.08084758716636
H           68.38280547614806       68.18531484801930       74.22324646146167
H           69.93312207446718       68.09707105893877       73.39444138204874
H           69.12701575406432       69.64777672336221       73.58123571225546
C           71.23361071606199       71.11865281056984       74.87970124694307
H           71.88446619845668       70.90978760359413       74.03251322589480
C           70.85535020544272       72.37415963253903       75.07910641672376
H           70.19090366253573       72.63817112234574       75.88520381992453
H           71.17473140918851       73.18554559946259       74.44347611258991
C           74.58395858609428       72.12019428475500       79.12042558265927
H           74.02438859655629       73.02446139822527       79.36543593517280
H           74.67752938957929       72.06968483559235       78.03708696960693
H           75.58261034533868       72.21982892846503       79.54110703885009
C           75.32904291109647       70.49369702448683       81.75654696533684
H           75.52824134568193       71.56269903983002       81.80106438853963
H           76.26159453075583       69.99166169970468       81.48919346877739
H           75.04936229153189       70.16479246745432       82.75526791441121
C           73.21324691794467       63.73760983164470       76.56639382968082
H           73.75916959637587       62.89937686716296       76.99546696675715
H           73.76286380032171       64.10182282791099       75.69963951102513
H           72.23812537089985       63.39324327123218       76.23943098397996
N           74.09896346576498       65.46016937459088       78.15534365030676
H           75.07237310364917       65.26126165330191       77.99063794490867
C           73.04190167116839       64.82294129500674       77.56128865451188
C           73.59385028870823       66.41536797348274       78.97322669188992
H           74.20562673912626       67.05160726719822       79.57857988882299
N           72.28401983929569       66.42836779990510       78.92059739407243
C           71.92919579210997       65.42711519767983       78.06741859456579
H           70.89912172702677       65.21431802554132       77.88187577374808
C           67.35243562795146       72.23794103588408       79.80228318174856
H           67.27331110459083       72.84273976652584       80.70430255487145
H           66.35116907937598       71.92448825709859       79.50945851494080
H           67.77513754577761       72.84188035300704       79.00732278598416
N           67.89631305398316       70.12486851560139       81.00558364901035
H           67.09696314619453       70.14203810639069       81.61412676728671
C           68.20647785089660       71.05110838912965       80.04551155263364
C           68.84143622919338       69.16405514804623       80.96412285951423
H           68.86647842538393       68.31266994925238       81.60768130341435
N           69.72181299752164       69.41288324935489       80.03025838768399
C           69.35499491958403       70.59853585892533       79.46119186962598
H           69.93137927537208       71.05100928245999       78.68168011946531
87
 energy: -128.445183099814 gnorm: 0.022579924884 xtb: 6.7.1 (edcfbbe)
Fe          70.94865885521045       67.89907317576930       79.49268728978564
N           71.08360871028981       67.19420103889574       81.37027582535971
N           69.35791473922384       66.67911293041379       79.18341795314637
N           70.75668303012685       68.58109757916215       77.58934606813936
N           72.43757598984158       69.11824644627605       79.80435673483049
C           72.12834350550126       67.38445631165843       82.21099308278940
C           71.88220092601540       66.71798482323557       83.47679241455516
C           70.64837047930016       66.14768052658253       83.37660298887165
C           70.17729283632117       66.42475792109921       82.02935806845717
C           68.67829034931346       65.97784029163124       80.12777371229964
C           67.60623455626249       65.22144247320632       79.50979825955463
C           67.70593150001187       65.44119795946416       78.16830222155814
C           68.79949201722800       66.38532641583623       77.97961194925483
C           69.98259076006410       68.05946389084355       76.60464670730032
C           70.06189416338593       68.89424194263658       75.42124628632814
C           70.84688438538976       69.96372063786765       75.75765245230949
C           71.29597971920913       69.73005115464008       77.11845851301726
C           72.77618689405071       70.18994124643386       79.03721745288188
C           73.89699499109611       70.88466422211295       79.64764169382853
C           74.23780754598027       70.17789635350121       80.75913362132304
C           73.29193464600336       69.08235150970418       80.85924609293106
C           73.21511989099619       68.19978946874379       81.93023073751611
H           74.05405405367348       68.17538111708839       82.62261090126106
C           69.01019318737957       65.91496277613373       81.47526119516186
H           68.31981443789846       65.39705917829839       82.13715076013156
C           69.13734153536835       66.96276736127849       76.76414831980688
H           68.67539722714973       66.53950235166671       75.87179196815102
C           72.20184237643207       70.52136857591215       77.81665105394073
H           72.49030022479023       71.46649485819810       77.36004633939061
C           69.89116394882255       65.33759466014067       84.37897116655670
H           68.99104850379234       65.86066110258953       84.70655725335236