87
 energy: -124.720699928717 gnorm: 0.000072754820 xtb: 6.7.1 (edcfbbe)
Fe          37.00443523210234       18.78980456732593       27.15682357318572
N           38.06938851598154       20.15369248146207       28.15914015429867
N           38.28681713773940       18.91033314883146       25.63345223608377
N           35.96998397033513       17.38456501555999       26.17642056392815
N           35.73400057797549       18.64622046019084       28.69887326843952
C           37.86899452236051       20.56752066710679       29.43837362669952
C           38.85609683675555       21.55541772160970       29.81523487415138
C           39.65038920828010       21.73472798530349       28.72619914710565
C           39.14800298539755       20.84125637646553       27.70593796474844
C           39.32437917571966       19.77655319091044       25.50603852574903
C           40.00584740796320       19.57621634696422       24.24554315177430
C           39.36334592482194       18.55247574336282       23.62380377905644
C           38.28833711785208       18.15386205078747       24.50631506861914
C           36.30166927649599       16.80371488214296       24.99754426705535
C           35.30825968661053       15.82098906569873       24.61269098402885
C           34.36478831394837       15.82809558789532       25.60580750750399
C           34.80680897695943       16.79890643430682       26.57349887814817
C           34.59868162702153       17.90354163152388       28.75603832090551
C           33.93489081569940       18.08000197629669       30.03363313464700
C           34.73827433569560       18.91859805812796       30.76082583173024
C           35.84556922432436       19.26135287679802       29.90694285631299
C           36.84943313252750       20.14431985546990       30.26706826662832
H           36.81273434584088       20.56120967845605       31.26188666057883
C           39.72554903601347       20.69397512150081       26.45831129058952
H           40.57299233972284       21.31981516677869       26.22372928580746
C           37.38455084811446       17.15255120068044       24.21036402683792
H           37.51323088810548       16.62667858272869       23.27662990586274
C           34.13823522668380       17.06881446971956       27.75590775596058
H           33.20271649822395       16.55731260507407       27.92381325700007
C           38.92026323702490       22.21338705233890       31.15104424613011
H           39.03318996551848       21.46939477014623       31.94001062984431
H           38.00697548037222       22.77634286080776       31.34649368916908
H           39.76210135119768       22.89937416833674       31.20428434017759
C           40.81993386722665       22.64110263245257       28.54805422041234
H           40.64986757850945       23.32366517842620       27.71542791721374
H           41.72301228524404       22.06784524203425       28.33540782176454
H           40.99276660811169       23.23109551641915       29.44482767809628
C           34.57430230283078       19.36368695818231       32.17198041926740
H           33.91386359909856       18.68190897012363       32.70412105851936
H           34.14400417813966       20.36571266230535       32.21816049918453
H           35.53630047737748       19.38646502568305       32.68192588050959
C           32.69604212815592       17.44100284680172       30.41708638219061
H           32.52289674000539       16.45821528972679       29.99376026198498
C           31.77521017127172       17.96428999128250       31.22035214687895
H           31.86870417639892       18.95415098832647       31.63177792304554
H           30.87774995609631       17.42505341123141       31.47449608187826
C           33.15904218454362       14.96523575352188       25.74325951795376
H           32.25850811936814       15.50199932853757       25.43935400711267
H           33.02721897724830       14.64572922941649       26.77614877164893
H           33.25967941205029       14.08141532692702       25.11666097635985
C           35.36878513290770       15.01611080202798       23.41289444582873
H           36.36418634189210       14.73425144314405       23.08894502105235
C           34.32152078109605       14.61900161333791       22.69750089589682
H           33.31541722507806       14.90959459877135       22.94502640442576
H           34.43860013354706       14.00736900636434       21.81824080901595
C           39.64197154009431       17.92459516911500       22.30141123633938
H           38.78479121193817       18.03605040119998       21.63698428472439
H           39.84323192812218       16.85924865809818       22.41710341150604
H           40.50474651684394       18.38641369004509       21.82763499907268
C           41.18029742694013       20.37208920850606       23.78903300895602
H           41.49988638502491       20.05681676486155       22.79882897096408
H           42.01949094049650       20.25020343133141       24.47494156473225
H           40.92932417130866       21.43191887177062       23.74771511759138
C           38.87501963568455       14.15944028772927       29.63485484412107
H           39.34846552102566       14.25764413506619       30.61172174172913
H           39.46759562466564       13.46699913258245       29.03698085652963
H           37.88252330884509       13.74110424480832       29.76966852640640
N           39.86878133448941       16.24453257450413       28.66674041578446
H           40.82571083403575       16.00165727268239       28.86407519777401
C           38.77096898580873       15.47981273721775       28.96379521944575
C           39.43147099046473       17.37318291656067       28.06475290641245
H           40.07144281249556       18.15891609047634       27.72040239302713
N           38.12519460217209       17.36908818244406       27.96301792809958
C           37.69952140656857       16.19890051278096       28.51740886925685
H           36.65863826559913       15.95386970666844       28.55826571191048
C           34.72319346595454       19.70944230530189       23.81235208475359
H           33.86424132242090       19.33590360441067       23.25845846096945
H           35.50167681004535       18.95153911502115       23.80001265037967
H           35.10135703441915       20.60101534018555       23.31786342077489
C           34.32572527631487       20.02709894710477       25.24038974181941
H           33.92644983854863       19.14823648258833       25.74485897490056
H           33.59479639524822       20.83568322410544       25.27054475671735
S           35.79283266010415       20.60421882864638       26.18630165284472
C           34.90271153224137       21.42910586170900       27.54079066304647
H           34.20756668011540       20.73583996493462       28.00348698409147
H           34.37975940950628       22.29603498476474       27.14521191985074
H           35.64907053684549       21.73847373702716       28.26430127648200
