94
 energy: -137.770847673860 gnorm: 0.000056394062 xtb: 6.7.1 (edcfbbe)
Fe          12.39530116284535       16.48447971692332       19.08615911295847
N           13.59244271059757       15.08036064792476       19.86149024160961
N           10.96826183777634       15.11467288884335       18.80188396456697
N           11.21935963093664       17.88546802676321       18.28033562191008
N           13.86572902140794       17.83077705710093       19.26921682489033
C           14.85122725132673       15.25195013294272       20.34845451478003
C           15.36627059753139       14.01248755402785       20.88532233807669
C           14.38907867893072       13.08379621079630       20.70650139312835
C           13.28930007673070       13.76911791969178       20.06517440294858
C           11.03657739982905       13.78644681351485       19.09506576786722
C            9.81811933989483       13.11392216917183       18.72101217584904
C            8.98919365244602       14.07601412806573       18.20924784225814
C            9.73479709309872       15.31809715880853       18.26910036319916
C            9.93382606372590       17.72615046806397       17.86196505657519
C            9.40259789968736       18.96013758690870       17.34605672705560
C           10.41182405466897       19.88056966837193       17.44135181909261
C           11.52894161259151       19.18756785403496       18.05320165944308
C           13.82705640839790       19.14065305760806       18.90292611431726
C           15.08209560159682       19.79277562920142       19.20129783536494
C           15.87853720107621       18.84815262436534       19.77021969427540
C           15.10106011026424       17.63042482031223       19.80605829378182
C           15.56589808671456       16.43535996400470       20.32269823422445
H           16.56576271306029       16.42325926205151       20.72908219122169
C           12.10986828661688       13.15404475145587       19.69765649157654
H           12.01506775319121       12.09910392452091       19.90459750038342
C            9.22977014837692       16.53595729122145       17.86245716606843
H            8.22062408941707       16.55786312197699       17.48211748010130
C           12.74642879058720       19.78051814074866       18.32824064452085
H           12.86465330448710       20.82424002281262       18.07955498282355
C           14.38285881402233       11.63795350371213       21.06688067522411
H           15.30952853548620       11.35823270133286       21.56190082331918
H           14.27236836134017       11.02193068178851       20.17418966493743
H           13.55312950569911       11.41330870124575       21.73733938428255
C           16.71873659502010       13.85711279087941       21.49200239959897
H           16.84079229909769       14.53156098113944       22.34008124081972
H           17.49424629003681       14.08934778298445       20.76179881256564
H           16.87157866943718       12.83861542698882       21.84001973768954
C            9.58415976805496       11.64691265572506       18.82095605827466
H            9.27361031855994       11.36933776270911       19.82970875124796
H           10.49215255773125       11.09445748746550       18.58379098660573
H            8.80211995699230       11.34677691197107       18.12643620486279
C            7.65803073648377       13.94478276453617       17.66022036692383
H            7.42483519007450       14.62007062037314       16.84576381807432
C            6.73364946652550       13.08451115511150       18.07482900352061
H            6.89674378327105       12.42341416619864       18.90828316585867
H            5.76460479410455       13.03070474074045       17.60687588355035
C            8.00530259866933       19.15160624632123       16.87214691482326
H            7.30315117295538       18.66371622932080       17.54742983259536
H            7.87365200465599       18.71683012463782       15.88046544804922
H            7.76454122939302       20.21154299613428       16.82597853992122
C           10.42754671739949       21.26501674925953       17.02242663414577
H           11.01066810760877       21.94033812691901       17.63778752972356
C            9.80966630351653       21.74363693698734       15.94693755054399
H            9.25127617758134       21.10914188680594       15.27982525546670
H            9.85129945380336       22.78868754201327       15.68820054721550
C           15.37418433634919       21.22581379519693       18.91479041814517
H           14.67491684113339       21.87314472533770       19.44470853096984
H           15.28152185017750       21.43037528228658       17.84791129276585
H           16.38326610380040       21.48482730780266       19.22572411132787
C           17.27739612292951       18.96742100129192       20.27049823342626
H           17.65167748754515       19.97901805416980       20.13471358743868
H           17.93510653745995       18.28347285940690       19.73381769375492
H           17.32936511763202       18.72248259417801       21.33184234789178
C            9.16847234377316       17.61269645622755       23.49967628307673
H            9.22594179192476       18.61204704330445       23.93092052866832
H            9.14276479014100       16.89049849542710       24.31551197516448
H            8.24641641821395       17.53075586771823       22.93292205257177
N           11.62126886340137       17.38243285880563       23.05000878366251
H           11.91544826921928       17.56960794175232       23.99452574709677
C           10.32550036390299       17.35695426507450       22.60526087538702
C           12.42225536460367       17.11185425699615       21.99525755880647
H           13.49071351567567       17.06532504143166       22.05031732204989
N           11.71323739611425       16.91646206451622       20.90919797482807
C           10.40644483110157       17.06593736761376       21.27366206985154
H            9.61685222010173       16.95458371781962       20.55942028765486
C           13.25767600646973       15.54153902973893       16.36841275114655
H           12.71120571621641       14.64003022066531       16.63751513274062
H           13.67160419650221       15.99646729201566       17.28296012682626
H           14.09708224722458       15.25696785729083       15.73126299501391
C           12.35684920004514       16.50623482275658       15.67244579023312
C           12.59208690993827       17.83197122896322       15.45206479153366
H           13.44429214294323       18.42199740614944       15.73130177968590
N           11.53902507216745       18.39888768505236       14.78458302349377
H           11.43660806810029       19.38037974596202       14.59123430889113
C           10.58465665660600       17.44757606860724       14.58121897316089
C           11.06947611411517       16.22906602712188       15.11848212260888
C           10.27811310557919       15.08429960721396       15.03247558225196
H           10.62281648693740       14.14454526454567       15.43772751259953
C            9.04567703989285       15.17644367264141       14.42664110614224
H            8.41929976907472       14.29899389529907       14.35118848691577
C            9.34419113265733       17.53153474464555       13.96248843349849
H            8.99311804604412       18.46435344767414       13.54343363721851
C            8.58289134324826       16.38417781015871       13.89676013981412
H            7.61066019493028       16.41490689147319       13.42539394704442
