94
 energy: -137.672908238171 gnorm: 0.251280318573 xtb: 6.7.1 (edcfbbe)
Fe          12.19700000000000       16.59600000000000       19.42000000000000
N           13.46000000000000       15.11400000000000       20.06100000000000
N           10.72900000000000       15.18800000000000       19.10000000000000
N           10.94800000000000       18.02800000000000       18.72600000000000
N           13.70300000000000       17.98300000000000       19.70400000000000
C           14.75900000000000       15.26600000000000       20.48900000000000
C           15.26200000000000       13.95800000000000       20.86200000000000
C           14.29600000000000       13.06400000000000       20.65500000000000
C           13.14300000000000       13.77200000000000       20.14900000000000
C           10.83300000000000       13.83500000000000       19.33900000000000
C            9.58100000000000       13.21100000000000       18.98100000000000
C            8.74900000000000       14.17000000000000       18.54300000000000
C            9.46400000000000       15.43000000000000       18.60600000000000
C            9.65100000000000       17.85500000000000       18.30300000000000
C            9.13400000000000       19.15600000000000       17.92200000000000
C           10.09900000000000       20.06300000000000       18.12300000000000
C           11.25100000000000       19.36700000000000       18.63100000000000
C           13.55000000000000       19.33900000000000       19.45700000000000
C           14.77000000000000       20.03300000000000       19.80000000000000
C           15.71300000000000       18.95300000000000       20.29600000000000
C           14.96900000000000       17.70600000000000       20.20700000000000
C           15.44300000000000       16.46000000000000       20.55600000000000
H           16.46800000000000       16.41400000000000       20.92400000000000
C           11.94300000000000       13.19100000000000       19.81900000000000
H           11.86600000000000       12.11200000000000       19.95200000000000
C            8.96700000000000       16.66000000000000       18.24600000000000
H            7.94000000000000       16.69300000000000       17.88300000000000
C           12.43500000000000       19.95700000000000       18.96500000000000
H           12.49800000000000       21.03600000000000       18.82400000000000
C           14.35500000000000       11.54000000000000       20.90300000000000
H           15.28200000000000       11.29100000000000       21.46200000000000
H           14.36400000000000       11.00200000000000       19.93100000000000
H           13.47600000000000       11.22300000000000       21.50400000000000
C           16.67300000000000       13.65000000000000       21.38600000000000
H           16.64400000000000       13.55000000000000       22.49200000000000
H           17.36200000000000       14.47900000000000       21.11700000000000
H           17.03600000000000       12.69600000000000       20.94700000000000
C            9.31300000000000       11.69700000000000       19.11300000000000
H            8.89600000000000       11.48100000000000       20.12000000000000
H           10.26300000000000       11.13500000000000       18.98800000000000
H            8.57900000000000       11.37700000000000       18.34300000000000
C            7.28900000000000       14.04000000000000       18.03600000000000
H            6.86800000000000       14.82800000000000       17.39400000000000
C            6.49900000000000       13.00600000000000       18.34000000000000
H            6.86900000000000       12.19000000000000       18.97800000000000
H            5.46900000000000       12.95800000000000       17.95600000000000
C            7.70800000000000       19.40200000000000       17.38500000000000
H            6.98600000000000       18.77400000000000       17.94900000000000
H            7.66000000000000       19.12800000000000       16.30900000000000
H            7.43600000000000       20.47100000000000       17.51700000000000
C           10.04800000000000       21.58599999999999       17.87000000000000
H           10.39400000000000       22.29900000000000       18.63200000000000
C            9.57700000000000       22.05400000000000       16.70800000000000
H            9.22500000000000       21.36200000000000       15.92900000000000
H            9.53600000000000       23.13700000000000       16.51800000000000
C           15.06000000000000       21.54200000000000       19.68100000000000
H           14.33900000000000       22.10900000000000       20.30800000000000
H           14.94900000000000       21.86300000000000       18.62300000000000
H           16.09100000000000       21.75500000000000       20.03600000000000
C           17.14200000000000       19.18500000000000       20.80399999999999
H           17.17100000000000       20.11000000000000       21.41900000000000
H           17.83200000000000       19.30400000000000       19.94200000000000
H           17.46200000000000       18.32500000000000       21.43100000000000
C            9.89700000000000       18.59200000000000       24.13100000000000
H           10.48500000000000       19.36500000000000       24.67100000000000
H            9.51700000000000       17.85100000000000       24.86600000000000
H            9.04600000000000       19.08300000000000       23.61200000000000
N           11.91200000000000       17.22200000000000       23.48600000000000
H           12.25600000000000       17.14100000000000       24.42100000000000
C           10.77200000000000       17.90800000000000       23.13000000000000
C           12.46400000000000       16.70000000000000       22.40700000000000
H           13.37900000000000       16.10900000000000       22.40500000000000
N           11.72000000000000       17.02100000000000       21.36400000000000
C           10.65000000000000       17.76700000000000       21.79100000000000
H            9.90100000000000       18.12800000000000       21.09800000000000
C           11.49300000000000       14.69300000000000       16.02100000000000
H           10.53900000000000       14.25400000000000       16.38300000000000
H           12.01100000000000       15.18200000000000       16.87400000000000
H           12.12800000000000       13.88200000000000       15.60600000000000
C           11.20200000000000       15.71800000000000       14.94300000000000
C           10.44100000000000       16.87800000000000       15.04000000000000
H            9.95800000000000       17.21400000000000       15.94600000000000
N           10.38100000000000       17.54000000000000       13.84500000000000
H            9.90100000000000       18.37600000000000       13.69800000000000
C           11.07400000000000       16.88100000000000       12.90100000000000
C           11.63300000000000       15.66800000000000       13.53700000000000
C           12.40400000000000       14.75100000000000       12.83500000000000
H           12.81600000000000       13.86500000000000       13.29500000000000
C           12.63200000000000       15.02200000000000       11.48300000000000
H           13.22500000000000       14.33100000000000       10.90200000000000
C           11.33500000000000       17.10200000000000       11.55400000000000
H           10.95500000000000       17.97100000000000       11.03700000000000
C           12.11200000000000       16.16600000000000       10.86000000000000
H           12.31700000000000       16.33000000000000        9.81300000000000
94
 energy: -137.727871021417 gnorm: 0.106233218181 xtb: 6.7.1 (edcfbbe)
Fe          12.19753160468021       16.58814805428050       19.41665780069043
N           13.46028983600733       15.11446450362396       20.04306411645800
N           10.72038842245591       15.19452732911481       19.10847869935346
N           10.95767786169936       18.02620069442121       18.72073060675678
N           13.70035888766760       17.97185151750383       19.68333848292234
C           14.75260292581913       15.26654718556322       20.48129123788950
C           15.27771620722288       13.96275759895922       20.86187904994266
C           14.29529310276343       13.05583688840821       20.65724187245494
C           13.14954834196717       13.78113858297995       20.14783561040338
C           10.81750271209846       13.84647991597868       19.33602924199084
C            9.56989733903240       13.20011946699858       18.98212667920152
C            8.72469075162107       14.17095979973291       18.53504093536250
C            9.46268898824334       15.42520037844146       18.61368587885755
C            9.66082794196842       17.86882671517449       18.30542300525288
C            9.12153818069847       19.16210792239671       17.91723551000823
C           10.09837240091561       20.08301717016989       18.12360337237003
C           11.24837521661318       19.36420721267432       18.63578022625728
C           13.58084409251990       19.32213673553336       19.46553896799997
C           14.80479136659326       19.99928437750776       19.81657140832525
C           15.68663938288913       18.98437640695391       20.28707502525032
C           14.95570450796553       17.73505732278576       20.19387196922883
C           15.43389550109002       16.47407730795503       20.55050698547114
H           16.45474587557676       16.42564382058944       20.91945919721142
C           11.94013676357764       13.19925227424343       19.81925686534069
H           11.86834228321815       12.12471095095885       19.95268193644969
C            8.97116506742674       16.66566472845353       18.25202501001147
H            7.95048709655143       16.69793449343696       17.88620828033929
C           12.44845181411154       19.95364086385989       18.97211444767332
H           12.50784438255869       21.02788672687430       18.82988200076788
C           14.35275404125073       11.56033890647788       20.90160588339617
H           15.26263621263602       11.29974330980196       21.45173383319889
H           14.35825348899256       11.01599577650922       19.94984935764877
H           13.48973571519986       11.23163892990467       21.49069950463914
C           16.66389041962023       13.66161038903292       21.38319632227710
H           16.64621613446902       13.55554013535211       22.47522059723010
H           17.35768654198538       14.46437208323317       21.12123023307185
H           17.03073314311160       12.72234790858530       20.95505679579510
C            9.31967366348196       11.71252646656981       19.11184547524945
H            8.90643103563586       11.48602547849379       20.10343926259934
H           10.24810350346937       11.14688764628863       18.98954777837503
H            8.60568563588631       11.38046310308311       18.35202374232686
C            7.31503105584837       14.03313692405293       18.04687347222163
H            6.91303052463084       14.82374514396393       17.41317833840400
C            6.51361582453759       13.01163346892304       18.33922623958891
H            6.84388725433757       12.20274151962907       18.97575171234149
H            5.49737586044892       12.96082691418041       17.95792265348543
C            7.72038884998776       19.39577911532148       17.39403916506618
H            6.99745491302676       18.78171062343915       17.94145019064912
H            7.66018731893461       19.13208433059880       16.33083495296481
H            7.44636023088949       20.44928308360094       17.51241544425100
C           10.04356353374708       21.55783435287016       17.86069146971163
H           10.39566296659143       22.25020861492115       18.62573899869167
C            9.57589734223533       22.04306940366392       16.71583724322136
H            9.23089675620787       21.37885776728804       15.93284187537586
H            9.53624513146926       23.11182726387981       16.52329510158158
C           15.06106281402451       21.49354087440880       19.69053650537196
H           14.35300761774211       22.07794894301440       20.29639076523086
H           14.95400964168402       21.83547505682127       18.65118313533821
H           16.07277437515787       21.74111303082818       20.02736782425740
C           17.10261648004944       19.18653641526316       20.79088034564610
H           17.16479447123275       20.09362551938310       21.40425762630555
H           17.80853543877770       19.29914192519323       19.95686276569705
H           17.44117459909243       18.34448383409891       21.40823291564072
C            9.90028112485408       18.59405423424965       24.13571880208697
H           10.47164878950185       19.36011668783311       24.67220951597000
H            9.51537385009355       17.86980651142261       24.86238207989620
H            9.06095872579538       19.07293853418665       23.62467538705513
N           11.90305895015192       17.23060084016780       23.50034261646536
H           12.25434599635696       17.14979830583248       24.43806607922422
C           10.76611339210244       17.90737040149526       23.14098448709605
C           12.45035144557552       16.70317252773234       22.39885726423815
H           13.35846371601929       16.12279196976551       22.39636219559653
N           11.71201361289825       17.00043741141309       21.34855294328492
C           10.65906082857109       17.75577425457932       21.79243097343871
H            9.91578871098073       18.12018013343317       21.10742064174739
C           11.48992866854487       14.70956726676266       16.00164771411022
H           10.55816949552284       14.26485019054622       16.37352786804768
H           12.00336072586644       15.18089566724396       16.85748804598530
H           12.11853361026431       13.90304198764987       15.61074749691880
C           11.19784239563270       15.71975440756772       14.92768621857549
C           10.44847374764989       16.86246555419349       15.04296178542857
H            9.96345986645402       17.21490689559473       15.93616154919522
N           10.38776135123669       17.52645108846309       13.84856655781445
H            9.89851476683460       18.38444215111652       13.69677960908061
C           11.08820328588434       16.85210496166079       12.90549565973676
C           11.62910570205020       15.67292612609818       13.54658930835564
C           12.39735764123551       14.76600790731441       12.82955044645674
H           12.80829347506103       13.87896341471672       13.29088784551994
C           12.62682771966018       15.02765719345318       11.48636203714493
H           13.22070776109594       14.33663061040600       10.90368298063012
C           11.33950723335978       17.08838548625949       11.56082136063882
H           10.95514154175452       17.96291043066613       11.04917062704222
C           12.10971138474264       16.16509008888587       10.86751547252114
H           12.31391909230290       16.33175555504039        9.81946248360590
94
 energy: -137.742463964241 gnorm: 0.033456234844 xtb: 6.7.1 (edcfbbe)
Fe          12.19363769862728       16.58364595907771       19.42355331705542
N           13.45851868827457       15.12058901537732       20.02274342697479
N           10.71600167753370       15.20232890159797       19.11699307136389
N           10.96663797315231       18.02350825740589       18.72103525649480
N           13.69456227612154       17.95986516163499       19.66501617058297
C           14.74556998807138       15.27147937146544       20.46282126931597
C           15.28429724323901       13.97609697937629       20.85591174962099
C           14.29256893908895       13.06179004823687       20.65580034806702
C           13.15429103654540       13.79550442519914       20.14007798875462
C           10.80964262418788       13.86055202636871       19.33938684200886
C            9.56968049174200       13.19821186099427       18.99077858794053
C            8.71401978592077       14.17578485309542       18.54033074754621
C            9.46519385509449       15.42571387947744       18.62517799025337
C            9.67299291515299       17.87520052290299       18.30954520323489
C            9.12080419394156       19.15769561390914       17.91313821787276
C           10.10483308776577       20.08700306139722       18.12123089092251
C           11.25090100610768       19.35617869148654       18.63862579639180
C           13.59469410834903       19.30309721761118       19.46106226546974
C           14.82558395342966       19.96554693144743       19.82889406524732
C           15.66128952388256       19.00329710970288       20.27722116851589
C           14.94223318734507       17.74560973743576       20.17493193348305
C           15.42504569405120       16.48377278438023       20.53604246433274
H           16.43865027317778       16.43828455178268       20.91509090545247
C           11.93959536038482       13.21148508878490       19.81966767307537
H           11.87141658625445       12.14109011442502       19.95629103180849
C            8.97726127107321       16.67086787349412       18.26079736413750
H            7.96127359732322       16.70560602747586       17.89258132567738
C           12.45918406454881       19.94594481487331       18.97242092767798
H           12.51798752080908       21.01758968146962       18.83807931093301
C           14.34779695998171       11.58781405183426       20.89943117651156
H           15.24972982623934       11.32121824475029       21.44466406102782
H           14.34911936550877       11.03854657301751       19.95763147096208
H           13.49145209502129       11.25227770839384       21.48161602875109
C           16.65321735171950       13.68104123580513       21.37716891115851
H           16.64056905103789       13.57149284674345       22.46288713337398
H           17.35418827006024       14.46824084597119       21.12122642839588
H           17.02238240799843       12.74725037283034       20.95675088774894
C            9.33079817615444       11.73036965291910       19.10959350987098
H            8.91614245617649       11.49358882433343       20.09140591810055
H           10.25196140907963       11.16677393094010       18.99124327512886
H            8.62874353081740       11.39186380785005       18.35176761963524
C            7.35256157138623       14.03490689717875       18.06445161630176
H            6.97330765411223       14.82905365905512       17.43084319556207
C            6.53253962441797       13.02238655595080       18.34137051516175
H            6.82063250953406       12.21181902064249       18.98312462349792
H            5.53006698515251       12.97399317363036       17.94724941664062
C            7.73729424251323       19.38712644194191       17.40348751167913
H            7.01298055569718       18.78197709519341       17.94439241324367
H            7.66550491657271       19.12752658375278       16.34638703417278
H            7.46432753182368       20.43462603042278       17.51202557845421
C           10.04691107089968       21.51881035193835       17.85514282828384
H           10.41204552908437       22.19006567950071       18.62573951108469
C            9.57492462290726       22.02768797855244       16.72378317755982
H            9.23052158183410       21.38945107416551       15.92925245131557
H            9.53453336094925       23.08868030641756       16.53783251537501
C           15.06485761301162       21.44296549462184       19.70151289471220
H           14.35444854041208       22.02049601912042       20.29859041647716
H           14.95453112283353       21.77827651190308       18.66769800732909
H           16.06785198450002       21.70677661603204       20.02883528661841
C           17.06431173502957       19.18584150916297       20.77942730252779
H           17.14033007456435       20.08583157260628       21.38962653835777
H           17.76996721371465       19.29162244942695       19.95247088302233
H           17.39805854066769       18.34633867282269       21.38742259826406
C            9.89928255256696       18.59862860362255       24.13931622159466
H           10.46360980321441       19.36045148177395       24.67343568420069
H            9.51152097146386       17.88544152079497       24.86470266009743
H            9.06587288255575       19.07028266871734       23.63166345214784
N           11.89623533678109       17.23696133513758       23.51239860443537
H           12.25578014242969       17.15855694078931       24.44965323263456
C           10.75917356122499       17.90585086220167       23.14983337788089
C           12.43544929186302       16.70147647875328       22.39755968942388
H           13.34061955078769       16.13020615791245       22.39355029026563
N           11.70346429631929       16.98591185123142       21.34391815817658
C           10.65857288136633       17.74046512028164       21.79807939787077
H            9.91690622434246       18.11006025767775       21.12076241657646
C           11.49184478375041       14.72219918306877       15.98758306144628
H           10.56945557412034       14.27849676064735       16.36251811879078
H           12.00036870972455       15.19581479163466       16.83977787808497
H           12.12106061776852       13.92261384720164       15.60679665110229
C           11.19659006401221       15.71972432847037       14.91718008719117
C           10.45237482767922       16.85325262757124       15.04431557007742
H            9.96476540154220       17.22495775589039       15.92462962246492
N           10.39115878878883       17.51935036117733       13.84919567863894
H            9.90197322576540       18.38675086090038       13.69316362447502
C           11.09926740362127       16.82785140508324       12.91203393839428
C           11.62480701646647       15.67355206632435       13.55372603934554
C           12.39297333356031       14.77302890370768       12.82230291870104
H           12.80344231897078       13.88775645014799       13.28720701679378
C           12.62401809369667       15.02978450490237       11.48772086264889
H           13.21786131867792       14.33993707351153       10.90409709465400
C           11.34055698914887       17.07948469322337       11.56798607790939
H           10.94901850659118       17.95763337208534       11.06869242111015
C           12.10602979250739       16.16686630687009       10.87108317714108
H           12.30896763608204       16.33657307737669        9.82281692920612
94
 energy: -137.745885225041 gnorm: 0.013566753187 xtb: 6.7.1 (edcfbbe)
Fe          12.19161124158616       16.58144879760287       19.42958133772112
N           13.45926461417186       15.12697081184835       20.00659470673574
N           10.71838761019832       15.20938140244487       19.13546929390118
N           10.97110941969165       18.01475954029133       18.72516754289056
N           13.69114655869240       17.94698987515972       19.64727477291351
C           14.74451999269488       15.27475774455209       20.44475530214240
C           15.28546503099966       13.98786684483370       20.84406167509976
C           14.29347642972471       13.07417188371979       20.64928405174928
C           13.15723055095958       13.80473472246825       20.13334594154487
C           10.81384052165386       13.86906851317637       19.35521060752833
C            9.57995211327069       13.20395107315713       19.01019319620848
C            8.72257954953675       14.18037207522690       18.56274923491319
C            9.46901247920405       15.42948983465151       18.64574719271545
C            9.67828831785912       17.86762665188862       18.31632011926340
C            9.12735512681085       19.14228656559117       17.91047725702537
C           10.11267766463988       20.07017283437811       18.11214081845301
C           11.25420951801060       19.34362934858227       18.63574490319673
C           13.58690721952569       19.28915522247993       19.44806228616468
C           14.81495491341367       19.95308081530532       19.82003320355545
C           15.65649511512001       18.98431190798913       20.27457731030255
C           14.93532079953347       17.73121114901763       20.16113244117266
C           15.42375177378526       16.48129906719887       20.52274651778093
H           16.43326158954229       16.44235239859613       20.90968053252581
C           11.94343448354099       13.21873001226420       19.82625365469022
H           11.87577085397816       12.14999695420303       19.96668991680092
C            8.97881404898068       16.66920965748107       18.27539441956514
H            7.96432866924523       16.70657534386908       17.90542551232193
C           12.45920772186319       19.93679223750467       18.96601035062119
H           12.52119914754995       21.00850710169286       18.83837634938309
C           14.34153691018233       11.60501122067329       20.89913882992697
H           15.24396266296796       11.33973326045877       21.44405069920928
H           14.33738880532458       11.05535309953117       19.95719796357813
H           13.48269449002376       11.27712130822296       21.48247009639591
C           16.65244005680252       13.70392776589993       21.37159546876709
H           16.63470669365324       13.59972440932104       22.45809517203923
H           17.35408399686262       14.49145216022311       21.11534617195681
H           17.02513996239464       12.76932376971071       20.95570650487131
C            9.34998750244271       11.73621019214827       19.11031109902700
H            8.92540865635390       11.48711603252337       20.08544386333673
H           10.27782795667685       11.18210379315971       18.99572558454877
H            8.65937466028354       11.40194307946459       18.33924769454132
C            7.37294138022379       14.04235128448426       18.07153013306577
H            7.01733007952676       14.84134174688549       17.43040898248462
C            6.53819779137430       13.03737393170442       18.33525305954316
H            6.79153291432571       12.23284592518585       19.00450265463090
H            5.54711891431370       12.99757741464072       17.91360447823745
C            7.74453119158597       19.37399381067625       17.40793464909278
H            7.02074686862001       18.77514720487273       17.95741993574621
H            7.66574492666705       19.10935249005277       16.35215958604059
H            7.48102231756051       20.42481955365902       17.51194032344348
C           10.05898028876401       21.49621210984100       17.84926952863115
H           10.44449535600825       22.15212862150526       18.62294395103968
C            9.57281993079402       22.01936679132963       16.72968622802854
H            9.22030749969846       21.39378608105855       15.92699249353296
H            9.53268275473465       23.08177943177563       16.55821893973686
C           15.05950849510660       21.42050412280410       19.70197419297270
H           14.34511113537792       21.98387578787675       20.30395849418762
H           14.95028779851168       21.74311376120010       18.66620405194941
H           16.06356189737050       21.67364732211898       20.03183049734189
C           17.05112028344293       19.17004827284892       20.77702291615178
H           17.11987660738804       20.07333604603714       21.38195592397174
H           17.74800101490210       19.27362229376923       19.94385945455236
H           17.37348566285319       18.32866828454901       21.38463033200523
C            9.89377300678854       18.60462502993817       24.14374046715949
H           10.45958510069980       19.36907583221791       24.67371741901063
H            9.50250916235890       17.89975532096757       24.87644149381983
H            9.06060363833278       19.07549102775143       23.63416250862531
N           11.88970901600368       17.23836909527442       23.51991866162507
H           12.25563702306409       17.16849542279399       24.45573785230528
C           10.74972583482142       17.90225068586910       23.15630820913300
C           12.42402322545138       16.69617244105702       22.40448805625316
H           13.33181106209942       16.12987344867482       22.39894931718318
N           11.68931203544363       16.97157994165479       21.35074505408483
C           10.64483042922148       17.72566043588759       21.80611499443287
H            9.89996180680335       18.09400440089376       21.13212975757896
C           11.49999085592203       14.73459087546431       15.98570138239766
H           10.58075000791275       14.28647847179478       16.36199570829149
H           12.00469866101068       15.22028157562718       16.83244527887181
H           12.13666387075198       13.94062642475781       15.60578160133835
C           11.19641540899668       15.72373885658392       14.91345045912837
C           10.45165202101105       16.85785332269549       15.04022427906759
H            9.96558517875441       17.23908427897238       15.91668816618173
N           10.38954633412161       17.52188759294622       13.84364940245299
H            9.90453172180410       18.39011813818969       13.68594330346458
C           11.09794784147912       16.82420602429680       12.91027147966370
C           11.62373631985247       15.67334052403753       13.55162263117672
C           12.39253176189840       14.77394320105159       12.81659558666589
H           12.80223784701263       13.88977132437030       13.28271395799482
C           12.62148108325380       15.03172505914172       11.48354295720556
H           13.21535596123933       14.34370981580792       10.89896270327104
C           11.33525199990760       17.07930225578725       11.56679783821374
H           10.93894344913606       17.95880776800703       11.07731975634096
C           12.10075484047412       16.17033097463901       10.86712643547083
H           12.30291295546886       16.34203766546819        9.81958287811879
94
 energy: -137.747762546995 gnorm: 0.010109504084 xtb: 6.7.1 (edcfbbe)
Fe          12.18901485285381       16.57457973254505       19.43158354505545
N           13.45668994403550       15.13549909148647       19.99697899560736
N           10.72675300634132       15.21603039678941       19.15294094855540