72
 energy: -105.980207836591 gnorm: 0.000118347711 xtb: 6.7.1 (edcfbbe)
Fe          -1.03822746383395       15.06330416798823       27.29670357978480
N            0.70984739527949       15.65010068066904       26.54712726248879
N           -0.13079918782055       14.47053905539147       28.97821271066734
N           -2.79371914746227       14.38142692206256       28.00622684484951
N           -1.94941647083978       15.60590374838639       25.59671892532531
C            0.92585078860437       16.25015017039772       25.34899784261873
C            2.33489278843724       16.52046416654962       25.15835121792321
C            2.96529073726823       16.05722001613675       26.26945865701905
C            1.93113152876498       15.52047626072673       27.12791347294989
C            1.20396212398698       14.50361927903673       29.23804467729147
C            1.48151425131721       14.00467977773251       30.56065009846921
C            0.27149499051210       13.67171926504867       31.10844264390098
C           -0.71942668816902       13.95311656920098       30.08800880364489
C           -3.02821210478042       13.89198166143097       29.25612239724038
C           -4.41125095124062       13.53083683859678       29.40866617940604
C           -5.01239799575961       13.78008669473744       28.20340747257972
C           -3.98625407242623       14.34695778289585       27.35403064033484
C           -3.27392179467025       15.49587173362141       25.30727687200575
C           -3.56800305116722       16.10087971242052       24.02732169800338
C           -2.38914496594658       16.58649890176431       23.55452734424898
C           -1.38996214704550       16.26721792870355       24.54941319545985
C           -0.04816041311673       16.56825881485653       24.42181637353602
H            0.26487776780017       17.07826671498774       23.52420969252687
C            2.17411070052942       14.98295957869477       28.37513532351776
H            3.19904107379580       14.94909929459564       28.71024914152061
C           -2.07171176698740       13.71763654908044       30.24104371212350
H           -2.40884119974350       13.33353207845061       31.19107060649880
C           -4.22421918651137       14.88924957435759       26.10484013870401
H           -5.24091493239530       14.87495655841138       25.74661276676365
C            4.41586059062597       16.06777908841206       26.60834587879957
H            4.99737967807798       16.51157949582335       25.80422816486479
H            4.77647458748044       15.05239398564305       26.77260940385129
H            4.59425597515732       16.64188579332392       27.51807997982546
C            2.90786647549380       17.17527922706613       23.94914817541032
H            2.47975651948432       18.16845998943433       23.81135348730428
H            2.69178115705260       16.58730857597170       23.05703445339459
H            3.98644254262710       17.27687774061449       24.03917746550628
C            2.84027451315629       13.83999945104817       31.14497830527115
H            3.21016874999082       14.78469187416653       31.54760060154937
H            3.54413616280347       13.49691855938344       30.38840374980953
H            2.81261309788351       13.11057869984911       31.95174371775009
C           -0.02043640375953       13.11302903702201       32.41026971260432
H           -0.85428602816326       12.42192472434136       32.44812637281512
C            0.63988608145516       13.38836388301003       33.53004235707044
H            1.44548690956911       14.10118107269657       33.56011612844291
H            0.37778295164218       12.92500465076941       34.46654812928104
C           -5.00953246770551       12.94077003280166       30.63779241479246
H           -4.81945443205851       13.57808419556268       31.50159028817757
H           -4.57936655960811       11.95945031493389       30.84187946228546
H           -6.08368414227643       12.82251504384137       30.52094333697523
C           -6.39388752017596       13.52530358778460       27.85079850327940
H           -7.11407728857598       13.70618467008531       28.64113132492154
C           -6.82097311560489       13.06057537549526       26.68243666458993
H           -6.14405896827145       12.81370999454051       25.88193227024566
H           -7.86726120038911       12.88785084495578       26.49332430367524
C           -4.92471504308752       16.14615645220418       23.41440579565067
H           -5.61959324465554       16.67559034893103       24.06611877616606
H           -5.31026900636093       15.13828618276589       23.25842718678442
H           -4.89842249023288       16.65509235445653       22.45421424099101
C           -2.10562470901082       17.30733826347871       22.28219719499947
H           -3.01490866416992       17.43675945055231       21.70069697999281
H           -1.38754660008523       16.75218372787084       21.67805726604508
H           -1.68563314895987       18.29206500790349       22.48711770991807
O           -0.79565943600199       13.02513609921878       26.38545172599066
H           -1.48507683066405       12.54048645458057       26.85408629568067
H           -1.12249494945261       13.19023509928323       25.49346056185224
C            0.05008123383281       17.90917492474921       28.80280710135773
H           -0.17050052045379       18.71974090642621       29.49057557351516
H            0.54597896158721       18.29317865610158       27.91743941003514
H            0.66845983086503       17.15040681610500       29.27020127287201
S           -1.51802567540565       17.16011902178796       28.23815438575408
H           -1.89162818001511       16.73433982809315       29.45035357850805
