72
 energy: -105.980605000777 gnorm: 0.000054114888 xtb: 6.7.1 (edcfbbe)
Fe          18.01488354250887        4.78697110633948       19.78132239828452
N           19.62113527828033        4.09729063072387       18.83158130898244
N           17.75403969506148        2.98564083328171       20.64613914821301
N           16.34769987974509        5.45611913159858       20.70066483048497
N           18.21130692181483        6.54434671532815       18.86908199979129
C           20.43247720304392        4.79471082091781       17.99856698400039
C           21.50942044117042        3.95867229047807       17.51210195239652
C           21.31733040092623        2.73144410339859       18.06256616900530
C           20.13118632332352        2.83850178882056       18.88525768358709
C           18.51180600181103        1.86935223415845       20.45346120151329
C           18.02319378822762        0.77560475939204       21.24993359989962
C           16.94448630148356        1.25590640364756       21.94600621684087
C           16.78935082363396        2.63759394343064       21.54062022603483
C           15.59482875005929        4.78519533355558       21.61873816628030
C           14.51668728448248        5.61042779951068       22.09553183373127
C           14.62636394519652        6.80637682466355       21.43564040851217
C           15.79082532485313        6.68919108342499       20.58315768913435
C           17.38834062693880        7.61957550240962       18.97226320799611
C           17.87398142091664        8.71573864757629       18.16060779289815
C           19.02047965891307        8.27813612211560       17.57810559734220
C           19.21096323026536        6.91644086585439       18.03063912717153
C           20.26123279224709        6.11519047108466       17.63095857828914
H           20.98905349097730        6.54419870922360       16.96002427536787
C           19.62111963603754        1.79366177017911       19.62840090930810
H           20.13597882408074        0.84720477536649       19.57406002980015
C           15.80078573612303        3.47656435027361       22.01894876826573
H           15.11923638779043        3.07158629572111       22.75029226166744
C           16.25329022147173        7.69467842974990       19.75512168839010
H           15.69772981869369        8.61899872128561       19.73522944033238
C           22.11876369246820        1.48589343905053       17.90184063524896
H           22.96064321921762        1.65228706787833       17.23463816525170
H           21.50455368258610        0.68730821190051       17.48556528822014
H           22.50502369226008        1.14945469116985       18.86449050409188
C           22.57717223184079        4.42222926726726       16.58272390872818
H           23.12061405164687        5.26414463241568       17.01199286268208
H           22.14441297282884        4.74622127388335       15.63616539190873
H           23.28659186808858        3.62394659077258       16.37936368229030
C           18.57318269454768       -0.60721076901629       21.23353654132747
H           19.44727309064834       -0.68755755831106       21.88212807390594
H           18.87415054730434       -0.88960760693135       20.22587431143584
H           17.82102673522510       -1.31138435102351       21.58321596485601
C           16.07741429376715        0.56789659992863       22.87723141356982
H           15.03906172426335        0.87858823736238       22.86872892222275
C           16.45821602275050       -0.38440924335613       23.72197631797814
H           17.48364030918890       -0.69937482514139       23.80668415377363
H           15.75517307712581       -0.86607905249392       24.38084623426437
C           13.53939646745967        5.21895364045709       23.14756090830660
H           14.02566949851531        4.63526016949092       23.92789184029418
H           12.73330375594897        4.61535093958436       22.72677353333471
H           13.10285491037995        6.10766387254251       23.59835241316113
C           13.80515584354462        7.99190639780053       21.54890079646179
H           14.32668992958700        8.93448753602457       21.43256511003813
C           12.49509776298699        8.00126245787388       21.77026886939027
H           11.91972577099791        7.09512352273933       21.84740022925124
H           11.94556455326380        8.92372744904765       21.85675723192859
C           17.19851050259011       10.03835902566938       18.04526214698514
H           17.15069984474247       10.52922027675993       19.01754454661075
H           16.17991084947744        9.91820317874226       17.67592590514270
H           17.73682456156488       10.68822660314880       17.36004693128079
C           19.94088653193998        8.98955673221566       16.64789354536359
H           20.94509506014456        9.04076736224170       17.06873064462125
H           19.59526266119969       10.00335838797409       16.46226454864361
H           19.99963500977798        8.46611237702049       15.69344690106320
O           16.64863650363183        4.08775307689689       18.14716102148005
H           16.29427752140827        3.27909079426039       18.53435719861681
H           15.95107890475288        4.75179708750698       18.18741065502629
C           20.66451570521109        4.42122719475169       21.88993092216029
H           21.06242879180956        4.57131284653987       22.88884838282975
H           21.40889024342171        4.68549217445521       21.14611616970414
H           20.34514410650033        3.39547141968855       21.74146751525306
S           19.24867089100972        5.54772317579029       21.63461821822450
H           18.48294616229806        4.99292523189007       22.58047794954066
