72
 energy: -105.917939216177 gnorm: 0.232668885982 xtb: 6.7.1 (edcfbbe)
Fe          17.96900000000000        4.72900000000000       19.81900000000000
N           19.53800000000000        3.96100000000000       18.84300000000000
N           17.61900000000000        2.86300000000000       20.59100000000000
N           16.22300000000000        5.44300000000000       20.66300000000000
N           18.16300000000000        6.44700000000000       18.92500000000000
C           20.42500000000000        4.70600000000000       18.08200000000000
C           21.55700000000000        3.95600000000000       17.65700000000000
C           21.32500000000000        2.71200000000000       18.14900000000000
C           20.10700000000000        2.75800000000000       18.87400000000000
C           18.38100000000000        1.80100000000000       20.35900000000000
C           17.85500000000000        0.72400000000000       21.15600000000000
C           16.76300000000000        1.18200000000000       21.82300000000000
C           16.63300000000000        2.59100000000000       21.44200000000000
C           15.48000000000000        4.78100000000000       21.62100000000000
C           14.41400000000000        5.58400000000000       22.15200000000000
C           14.60600000000000        6.80000000000000       21.51599999999999
C           15.69400000000000        6.70100000000000       20.62000000000000
C           17.34700000000000        7.54900000000000       19.05600000000000
C           17.86499999999999        8.64700000000000       18.18800000000000
C           19.00700000000000        8.19100000000000       17.63300000000000
C           19.18700000000000        6.82900000000000       18.14600000000000
C           20.27400000000000        6.03400000000000       17.76000000000000
H           21.05600000000000        6.50200000000000       17.16200000000000
C           19.52500000000000        1.73500000000000       19.54800000000000
H           19.99600000000000        0.75700000000000       19.44900000000000
C           15.67700000000000        3.47700000000000       21.91100000000000
H           14.97300000000000        3.05500000000000       22.62700000000000
C           16.20800000000000        7.68800000000000       19.80500000000000
H           15.67500000000000        8.63700000000000       19.75400000000000
C           22.13300000000000        1.45200000000000       17.95700000000000
H           23.01300000000000        1.67000000000000       17.31500000000000
H           21.50900000000000        0.67800000000000       17.46200000000000
H           22.48900000000000        1.08000000000000       18.94200000000000
C           22.74000000000000        4.38500000000000       16.83400000000000
H           22.94100000000000        5.46400000000000       17.00800000000000
H           22.52400000000000        4.22800000000000       15.75600000000000
H           23.63600000000000        3.79900000000000       17.13100000000000
C           18.46400000000000       -0.62000000000000       21.15400000000000
H           19.35700000000000       -0.62400000000000       21.81500000000000
H           18.77800000000000       -0.88800000000000       20.12300000000000
H           17.73200000000000       -1.36400000000000       21.53400000000000
C           15.85800000000000        0.51500000000000       22.83700000000000
H           14.84400000000000        0.89400000000000       23.03300000000000
C           16.28200000000000       -0.52000000000000       23.48600000000000
H           17.29200000000000       -0.91700000000000       23.30600000000000
H           15.63800000000000       -1.01700000000000       24.22600000000000
C           13.48600000000000        5.21700000000000       23.27400000000000
H           13.94100000000000        4.40600000000000       23.88200000000000
H           12.52000000000000        4.85800000000000       22.86000000000000
H           13.31500000000000        6.10100000000000       23.92400000000000
C           13.86900000000000        8.05500000000000       21.66300000000000
H           14.30100000000000        8.97000000000000       21.23200000000000
C           12.71600000000000        8.18600000000000       22.27500000000000
H           12.22300000000000        7.31400000000000       22.73000000000000
H           12.22700000000000        9.16900000000000       22.34100000000000
C           17.15900000000000        9.98900000000000       18.07600000000000
H           17.11100000000000       10.46800000000000       19.07700000000000
H           16.12500000000000        9.83900000000000       17.69900000000000
H           17.72200000000000       10.65300000000000       17.38600000000000
C           19.89399999999999        8.93700000000000       16.67600000000000
H           20.65900000000000        9.50700000000000       17.24600000000000
H           19.28600000000000        9.64900000000000       16.07800000000000
H           20.40800000000000        8.21800000000000       16.00300000000000
O           16.83900000000000        4.05200000000000       18.00400000000000
H           17.48600000000000        3.64900000000000       17.42500000000000
H           15.96900000000000        4.13500000000000       17.84300000000000
C           20.74700000000000        5.16700000000000       21.59700000000000
H           21.26300000000000        5.15200000000000       22.58100000000000
H           21.10200000000000        6.05800000000000       21.03700000000000
H           21.03900000000000        4.25000000000000       21.04200000000000
S           18.96600000000000        5.23000000000000       21.79700000000000
H           18.85800000000000        3.99400000000000       22.26200000000000
72
 energy: -105.957849159134 gnorm: 0.089213344972 xtb: 6.7.1 (edcfbbe)
Fe          17.93249330211784        4.72990340361309       19.79138375693640
N           19.56024048780890        3.99941085263010       18.85362737366420
N           17.61803572963109        2.89229579577746       20.57878541783388
N           16.23101281094798        5.44279862471222       20.68127338465348
N           18.17987356915451        6.47579797356725       18.94175939026298
C           20.43464330226319        4.73418853286882       18.09170818788270
C           21.55491900652619        3.94486403124882       17.65991274705538
C           21.32337871073751        2.69317537085285       18.14679432272041
C           20.09521861725427        2.75616771343359       18.88316088687612
C           18.37207601542472        1.79926853995926       20.36611587027828
C           17.84451674840632        0.71209694600452       21.15560597348617
C           16.75372987557665        1.18427232318609       21.82984402844230
C           16.63140045478682        2.58417505560071       21.44149016881776
C           15.47696685175200        4.77264795593315       21.60886607180790
C           14.43614127519539        5.60396126696278       22.15440000889319
C           14.59867950895403        6.81734821121873       21.51744441515021
C           15.70466259882186        6.69419698716583       20.61977950815020
C           17.34894859305432        7.55936916343605       19.03790473557207
C           17.85672217552952        8.65238811903071       18.19929346204475
C           19.00181793964410        8.20334833929858       17.63618891590525
C           19.18936902296382        6.84546522403811       18.12814861278558
C           20.27085815584574        6.05815441625330       17.75638374336067
H           21.04487050898072        6.51404011161902       17.15580555967668
C           19.50817881854977        1.71568402149186       19.56336859654008
H           19.98632876433883        0.74763799235890       19.47443715044465
C           15.66882745767836        3.45131953832376       21.91965386003757
H           14.97163435292880        3.03354692988418       22.63470355548764
C           16.21048815636131        7.68464110165409       19.79371172576728
H           15.68544924518993        8.63037560803412       19.75381503113386
C           22.13463162554953        1.45107782045004       17.95873686191677
H           23.00229985848210        1.65746112501986       17.32559327717841
H           21.52607783252490        0.68072489360288       17.47390012955773
H           22.48537240959921        1.07266623650580       18.92522685037182
C           22.72726258752995        4.38691416735476       16.84174476572855
H           22.94273590150371        5.44815824812447       17.00326738424917
H           22.53113181140822        4.23361064865327       15.77380048432803
H           23.61671281522945        3.81209396088137       17.11939688182482
C           18.46181572466790       -0.63508269812661       21.15051520309186
H           19.34593457352951       -0.64413799065996       21.80241526884445
H           18.77922280608498       -0.90022381306803       20.13769325460389
H           17.74972625951288       -1.38384128628748       21.50192046146854
C           15.87573429881050        0.51791938099549       22.81343753248162
H           14.87791961388631        0.91520982676728       22.99388067567737
C           16.28450211700009       -0.53470333962404       23.49990259966125
H           17.28119510079473       -0.92698657372601       23.36656868455937
H           15.64498332301642       -1.02197627918511       24.22617254297858
C           13.50396126297571        5.22026238928566       23.26065493994503
H           13.93374590549695        4.41740485264718       23.86930622059094
H           12.54067170634766        4.86858291098967       22.86732764010844
H           13.32262885216048        6.07840344203413       23.91578817593503
C           13.86310843092165        8.05782291241430       21.66677974903286
H           14.30719429630852        8.95188796509159       21.23310317487336
C           12.69804278574723        8.19261292286527       22.28339301116181
H           12.19498472103301        7.34184441528757       22.71954347201372
H           12.21489757185091        9.15847255493229       22.35231032775495
C           17.16592176444266        9.97898293006998       18.07745489295812
H           17.11238497337793       10.46278542961935       19.05901268079859
H           16.14513271571109        9.84491030528872       17.70279146258978
H           17.71050866564821       10.64051709481638       17.39737845909445
C           19.89308930129776        8.93284253117865       16.68307978616067
H           20.65411643520122        9.50016730570582       17.23275992293208
H           19.30411866839005        9.63610747399702       16.08648449962162
H           20.40046787351346        8.23718889779520       16.00767960685300
O           16.85479040327085        4.05348741387860       18.00762964248118
H           17.47451470043451        3.64211936039787       17.40801493703696
H           15.93701894567142        4.13033400402647       17.82171307438804
C           20.77115712253650        5.16057273893083       21.59758327482185
H           21.25971938167558        5.15412637285456       22.57792108755567
H           21.09467348424399        6.04412110999969       21.04094531591772
H           21.04520141003566        4.26090022426218       21.04049830593729
S           18.97868315783122        5.24132922769111       21.78324149931287
H           18.86352474832082        4.00878873610397       22.27806551993404
72
 energy: -105.968534054842 gnorm: 0.027699021024 xtb: 6.7.1 (edcfbbe)
Fe          17.91866812867948        4.73209919970114       19.79163652550685
N           19.57620888505096        4.02890979374828       18.86237066157429
N           17.60400382136458        2.91164831034745       20.55703908826779
N           16.23169864701232        5.42988355312902       20.68421652057050
N           18.18382417456319        6.49157777742188       18.94265233100025
C           20.44522168862958        4.75418100810994       18.10693377667012
C           21.55244641781839        3.93582594969774       17.66811651234910
C           21.31392066671615        2.68237771476380       18.14863822989905
C           20.08003661758496        2.76043179912438       18.89383380689926
C           18.35770797775426        1.79812605482208       20.36432579279361
C           17.84094872384828        0.70267437124697       21.14986204388707
C           16.75524264286187        1.18401863662037       21.83545767091970
C           16.62361646889969        2.57432142681827       21.43483075655865
C           15.47953948530260        4.76045693694511       21.60007754371962
C           14.45635135376921        5.61216825785310       22.15305672445628
C           14.59438963195674        6.82488368056350       21.51760832537329
C           15.71724877455272        6.68072290422548       20.61833117309422
C           17.35441922874148        7.56722458911876       19.02631193899743
C           17.84757072516344        8.65422480959152       18.20427499625580
C           18.99675233181848        8.21270278980840       17.63413719674717
C           19.19213599030234        6.85956938535259       18.11474496206124
C           20.27351563946575        6.07804560827628       17.75936822398303
H           21.03613244474515        6.52485951443293       17.14362415430908
C           19.49280879381639        1.70882448743842       19.57433712277320
H           19.98234257116135        0.74988559637389       19.49882393702024
C           15.65998385708731        3.42846689662624       21.92986506556486
H           14.96630643853440        3.01468649789434       22.64436905881716
C           16.21715307048524        7.67685558650474       19.79396612805912
H           15.69274198017057        8.61821063883387       19.75918246102983
C           22.12780905928352        1.44948211132746       17.96247334434310
H           22.99091637326801        1.65196294777775       17.33607198941874
H           21.53352403155841        0.67433734799906       17.48279466681965
H           22.47754104984305        1.06647594742447       18.91926307646756
C           22.71607041779784        4.38663374809769       16.84983912695764
H           22.93297721649452        5.43884305771970       17.00997410201785
H           22.52552874942633        4.23847020001389       15.78661401049399
H           23.60375009590991        3.81658665783690       17.11349477281971
C           18.45758455883113       -0.65133056755967       21.14093333464803
H           19.33252665750759       -0.66824133434857       21.79301755253529
H           18.78151157409862       -0.91276193478917       20.13720480722424
H           17.75286586487664       -1.40247649886304       21.47656331613100
C           15.90610174840884        0.51874279621388       22.79749830176162
H           14.91302784643823        0.92364665593849       22.94523937672572
C           16.28844798662747       -0.53614686146349       23.51785381497288
H           17.27739877701068       -0.93947863522100       23.42796788931830
H           15.63379511730650       -1.01641624254712       24.22241004608758
C           13.52238419540637        5.22209440970494       23.24889432306154
H           13.94154090195470        4.41992448595089       23.85123562774002
H           12.56292154904007        4.87986261700537       22.85650140227910
H           13.33752949764547        6.06916020976125       23.90538321732401
C           13.85712978770610        8.05430033921322       21.67370210632073
H           14.31464131282276        8.93400459378190       21.24111846737029
C           12.68145628856991        8.19521235547987       22.28388575107960
H           12.15978050510748        7.36181754919854       22.70820201706080
H           12.20692955572136        9.15571159265774       22.35981110087697
C           17.17121252275110        9.97404578435402       18.07770011701124
H           17.11510046120647       10.46279779956535       19.04907471929446
H           16.15662674628356        9.84903957978284       17.70322488535724
H           17.71164941354454       10.62775519438600       17.40032316713818
C           19.89239433479110        8.93573519376023       16.68738521574309
H           20.65422307449052        9.49597651230659       17.22912839110832
H           19.31601090842383        9.63759089752261       16.09091141699884
H           20.39212766038375        8.24702085506304       16.01287287356867
O           16.86235251802007        4.07460480198444       18.01089414444301
H           17.43971175876436        3.63238551466224       17.38591525224039
H           15.92785314872196        4.12277991882052       17.80826869495842
C           20.79915226841934        5.15953639881134       21.59424182885645
H           21.26514767045328        5.15444663214523       22.57436283442146
H           21.10489188310091        6.03878403883980       21.03977767830530
H           21.05506781008026        4.26692559362273       21.03679044146605
S           18.99595570269687        5.26878226421221       21.78900234437309
H           18.86489422134957        4.04151169645937       22.31018572370189
72
 energy: -105.971405293671 gnorm: 0.019790316832 xtb: 6.7.1 (edcfbbe)
Fe          17.91063333795298        4.72877554608115       19.78823134464319
N           19.58309764403902        4.04188747233115       18.87078019423948
N           17.59958796685626        2.91678724047693       20.55386015684785
N           16.23527645135115        5.41845036876616       20.68511656251199
N           18.18730860320686        6.49882420789600       18.94358843169447
C           20.45154338954928        4.76295273767843       18.11705195336211
C           21.55241876405408        3.93494945847410       17.67657410763328
C           21.30748043007249        2.68272449966179       18.15420990569423
C           20.07500429339628        2.76856532350128       18.90405960982588
C           18.35380049982385        1.79821619674551       20.36340312129322
C           17.84684209389991        0.69710192078798       21.14312986273660
C           16.76452854475804        1.17817618023298       21.83606036908265
C           16.62220566783654        2.56673561959049       21.43480037833638
C           15.48400563445714        4.74930979497580       21.59829398840542
C           14.46639210524362        5.60708982420581       22.15116367753483
C           14.59560892977275        6.81983594353712       21.51754936731520
C           15.72442069353525        6.66948559445913       20.61617924264804
C           17.35791477357867        7.57083961752962       19.02395057696096
C           17.84645607167476        8.65807278359130       18.20695553973252
C           18.99726246627514        8.21992429370823       17.63359877743729
C           19.19719222864784        6.86887975368861       18.11267299464934
C           20.27826043597859        6.08719386506367       17.76161161419633
H           21.03405685022326        6.53094226809183       17.13364996838091
C           19.49090523388442        1.71296702081689       19.58029481199227
H           19.98800396761489        0.75794567953018       19.51365296723422
C           15.65614386898970        3.41517180672769       21.93618435705915
H           14.96344180967487        3.00224387230953       22.65168526664103
C           16.21942320470617        7.66875044470316       19.79642727950570
H           15.69440666016152        8.60953794201295       19.76815345464661
C           22.11824098518222        1.44741315249208       17.96830838379407
H           22.98276293823512        1.64984269765632       17.34304316311107
H           21.52775203555187        0.66792202321027       17.48893305765172
H           22.46764950626943        1.06248267426779       18.92544632841941
C           22.71112106369758        4.38730651604877       16.85471142297309
H           22.92529670275389        5.43900969631550       17.02068705151742
H           22.51345576260523        4.24402611034222       15.79186556548089
H           23.60080861734213        3.81577489423218       17.10978307758807
C           18.45292238092748       -0.66397080317406       21.12276117744155
H           19.31865063263498       -0.69968263422374       21.78660662870460
H           18.78766406702884       -0.91670682908954       20.11961455654158
H           17.73859597208444       -1.41797587219289       21.43714734490975
C           15.91805101336326        0.50737225549616       22.78836913360810
H           14.92188216495230        0.91495392542255       22.90806438402024
C           16.28013329520926       -0.53859370464865       23.53480534838305
H           17.28369666011593       -0.93292981043737       23.51143673409960
H           15.60421848668280       -1.00546007649845       24.22903930386501
C           13.53296867313605        5.21912655753903       23.24426240687269
H           13.94939013711217        4.41180129789799       23.84094930739795
H           12.57409537937728        4.88613779234641       22.84422427277357
H           13.35288896764939        6.06630851618523       23.90187714909322
C           13.85534677173168        8.04612791114549       21.67993950407303
H           14.32486637839871        8.92411436315982       21.25699181899489
C           12.67357442641711        8.19364223506562       22.27910818110385
H           12.12442714025541        7.36630012235151       22.68630165241696
H           12.20688054788650        9.15935463593979       22.35813754687059
C           17.17362469133669        9.97808179028819       18.07566871518732
H           17.11743358671134       10.47200206296082       19.04489227804654
H           16.15856589807595        9.85605746182138       17.69987600753578
H           17.71914316162017       10.62487893008157       17.39550030154404
C           19.89367267296596        8.94337680388275       16.68857199730413
H           20.66087321582062        9.49586438226037       17.23114651784167
H           19.32271912079921        9.65199454391360       16.09400455998226
H           20.38720755410105        8.25270207549812       16.01094554895895
O           16.85729408456602        4.11861846286880       17.98516254397778
H           17.39108770008086        3.60577592380660       17.36451102977233
H           15.91168985339066        4.10257843556050       17.79922997764204
C           20.82168061406124        5.16250044011775       21.58968049702170
H           21.28134364572682        5.15663027558801       22.57193673029450
H           21.12921939564036        6.03845268102046       21.03210071973034
H           21.06574914744372        4.26614964148314       21.03347027829563
S           19.01216136368070        5.29302845038563       21.78570658975910
H           18.86857096616217        4.08327271443677       22.35229132315848
72
 energy: -105.972334093385 gnorm: 0.044692420151 xtb: 6.7.1 (edcfbbe)
Fe          17.91007497685512        4.72868551410781       19.78848921368481
N           19.58595865146266        4.05298696870881       18.87721489802672
N           17.59388831156374        2.91745436419754       20.54911347812879
N           16.24204439371453        5.40541295347917       20.68348114498118
N           18.19327213717365        6.50787888834107       18.94489015111621
C           20.45582687736989        4.77069369856256       18.12433328127821
C           21.55248457135781        3.93681929439121       17.68506077481124
C           21.30108725350840        2.68660027942373       18.16126545698523
C           20.07025365201717        2.77931127988096       18.91286116845193
C           18.35019112843999        1.79698981226110       20.35930156478991
C           17.85374264038096        0.69255138030434       21.13604946756073
C           16.77528239947141        1.17194554814734       21.83538169857483
C           16.62217520558460        2.55910033436030       21.43495661814189
C           15.49059222207553        4.73669418863310       21.59617400449223
C           14.47538754588913        5.59703871808369       22.14716112909181
C           14.59917272542732        6.80911043509016       21.51496050314489
C           15.73267991877976        6.65702900516937       20.61190451833402
C           17.36236643966441        7.57581224721506       19.02305983115703
C           17.84763454936954        8.66459630439634       18.20877736475146
C           18.99994992739222        8.22930676508428       17.63357194512361
C           19.20406027492993        6.87947143926834       18.11172087638156
C           20.28356764229310        6.09521093618740       17.76238917116212
H           21.03448000723501        6.53674673959237       17.12537335782634
C           19.49234052989105        1.71998628939552       19.58441720337927
H           19.99819440886004        0.76902738198415       19.52803755682675
C           15.65438937522235        3.40304810318038       21.94172105049735
H           14.96343604239958        2.99059090952755       22.65951149375945
C           16.22221471756229        7.66053953337565       19.79912529951834
H           15.69434375544575        8.60029770279960       19.77783792940881
C           22.10638172645509        1.44616487540779       17.97757029276932
H           22.97365962747548        1.64594669702916       17.35325088344619
H           21.51593170075420        0.66515287152965       17.49782909320782
H           22.45335013446310        1.05981769596650       18.93676060079825
C           22.70693649813170        4.39001157220950       16.85925484643039
H           22.92087260868912        5.44127113171373       17.03340861270922
H           22.49918152078249        4.25471566200571       15.79644670927727
H           23.59864158746318        3.81518626811190       17.10320957840852
C           18.44100979443626       -0.67732156645439       21.11093274532697
H           19.29822413503040       -0.73854772636009       21.78517640282618
H           18.78457240144260       -0.92803092977777       20.10821203455780
H           17.70797068013152       -1.41972332835180       21.41812439832630
C           15.93056015892887        0.49568436242395       22.78534978035943
H           14.92072936968548        0.88551442815678       22.86293415012030
C           16.28236931465171       -0.53067151856227       23.55998188764105
H           17.27578543906268       -0.94390726521592       23.55537788422151
H           15.57911611471247       -0.99761501086416       24.23060223972717
C           13.54126859127669        5.21435952406368       23.23925252632158
H           13.95222851899214        4.40127276639401       23.83269975746543
H           12.58121533596841        4.89167276075678       22.83366544285435
H           13.36789919559563        6.06369977776190       23.89685148340773
C           13.85543320895342        8.03295577738776       21.68543120931209
H           14.34158017121895        8.91472877774726       21.28591309405972
C           12.66504568138995        8.18562905169642       22.26537561671683
H           12.08802435796317        7.36597955959773       22.65682967546854
H           12.21057981030544        9.15942463730894       22.35241020222624
C           17.17652629119355        9.98583399623142       18.07215074679244
H           17.12063305490370       10.48621591591863       19.03910811108913
H           16.16067130164367        9.86596968690412       17.69508386286353
H           17.72738095165650       10.62583964940552       17.38830467090995
C           19.89714285748666        8.95452877059719       16.69041111079775
H           20.67309444338806        9.49543768891502       17.23443954383771
H           19.33171530454510        9.67426719263545       16.10198420194461
H           20.38136188112997        8.26281044435891       16.00498584275221
O           16.85291710182472        4.20458683783423       17.93648634751862
H           17.32551455716548        3.55657349685292       17.35811006059731
H           15.88768412319844        4.04586317920877       17.80319529505082
C           20.84808425215108        5.16711817120829       21.58423314873617
H           21.30709781418454        5.15922587384416       22.56673060945467
H           21.16444685471346        6.03745704720205       21.02154638688845
H           21.07709988053253        4.26405930634125       21.03048989880022
S           19.03437773459079        5.32702917179942       21.78670533132198
H           18.87759163039456        4.14087570391081       22.40504153127106
72
 energy: -105.973461701107 gnorm: 0.013679032716 xtb: 6.7.1 (edcfbbe)
Fe          17.91225745769617        4.72844286055101       19.78780701390604
N           19.58307968954525        4.05299646358417       18.87787424469375
N           17.59409030851166        2.91240278365887       20.55145618729605
N           16.24550829021414        5.40086598328959       20.68197275042449
N           18.19506387228463        6.50922886557248       18.94425549691254
C           20.45481955321127        4.77107264667777       18.12408719041972
C           21.55241668152517        3.93974477631782       17.68698605592089
C           21.30031910513827        2.69068524717702       18.16461158308132
C           20.07065579648226        2.78363803987461       18.91473548459601
C           18.35223767892091        1.79530252018793       20.35895131868373
C           17.85721438489810        0.69050405525708       21.13432752582857
C           16.77931390074349        1.16717716914854       21.83436086568351
C           16.62480547247328        2.55580348792593       21.43803675170088
C           15.49386937859955        4.73202035721574       21.59703176571061
C           14.47617355630902        5.58993488794912       22.14562011706486
C           14.60218098019138        6.80155414896230       21.51349163462953
C           15.73474372602096        6.65308253916725       20.61038173956125
C           17.36325907811099        7.57667421211500       19.02423505153069
C           17.84905072740793        8.66711313852561       18.20788710805537