72
 energy: -105.869782746386 gnorm: 0.247860517844 xtb: 6.7.1 (edcfbbe)
Fe          -6.20200000000000       25.29200000000000        7.65400000000000
N           -4.40700000000000       24.18600000000000        7.50000000000000
N           -5.90300000000000       25.22200000000000        9.69900000000000
N           -8.04900000000000       26.12100000000000        8.04500000000000
N           -6.60500000000000       24.98600000000000        5.71900000000000
C           -3.82900000000000       23.88100000000000        6.29200000000000
C           -2.51200000000000       23.27000000000000        6.51100000000000
C           -2.35700000000000       23.17800000000000        7.84900000000000
C           -3.52500000000000       23.81700000000000        8.46600000000000
C           -4.80700000000000       24.71800000000000       10.40900000000000
C           -4.90200000000000       25.04700000000000       11.85100000000000
C           -6.06000000000000       25.75700000000000       12.00100000000000
C           -6.67000000000000       25.86499999999999       10.67100000000000
C           -8.48500000000000       26.74400000000000        9.18900000000000
C           -9.71600000000000       27.45300000000000        8.89800000000000
C           -9.98600000000000       27.28100000000000        7.59500000000000
C           -8.95200000000000       26.42700000000000        7.03900000000000
C           -7.82900000000000       25.25300000000000        5.14200000000000
C           -7.78100000000000       24.88700000000000        3.76000000000000
C           -6.39900000000000       24.32800000000000        3.52900000000000
C           -5.73500000000000       24.43000000000000        4.80700000000000
C           -4.39300000000000       24.06800000000000        5.06900000000000
H           -3.74600000000000       23.92500000000000        4.20400000000000
C           -3.77400000000000       23.96200000000000        9.82300000000000
H           -3.10300000000000       23.43800000000000       10.50400000000000
C           -7.79900000000000       26.63900000000000       10.41800000000000
H           -8.19200000000000       27.22100000000000       11.25100000000000
C           -8.88900000000000       25.90600000000000        5.75800000000000
H           -9.78800000000000       26.02300000000000        5.15400000000000
C           -1.15100000000000       22.65300000000000        8.63200000000000
H           -0.35900000000000       22.33200000000000        7.92200000000000
H           -1.45500000000000       21.78100000000000        9.25000000000000
H           -0.74700000000000       23.45700000000000        9.28300000000000
C           -1.54000000000000       22.76500000000000        5.39400000000000
H           -0.86400000000000       23.59200000000000        5.08900000000000
H           -2.12500000000000       22.43300000000000        4.51000000000000
H           -0.92800000000000       21.92299999999999        5.78200000000000
C           -3.91900000000000       24.56400000000000       12.96400000000000
H           -3.19900000000000       25.37600000000000       13.20100000000000
H           -3.35600000000000       23.67500000000000       12.60700000000000
H           -4.48900000000000       24.30900000000000       13.88300000000000
C           -6.62700000000000       26.41100000000000       13.30900000000000
H           -7.70800000000000       26.60100000000000       13.38100000000000
C           -5.87200000000000       26.76599999999999       14.37500000000000
H           -4.78400000000000       26.60400000000000       14.36700000000000
H           -6.33700000000000       27.22100000000000       15.26200000000000
C          -10.40500000000000       28.38400000000000        9.95000000000000
H           -9.63300000000000       28.82600000000000       10.61600000000000
H          -11.11600000000000       27.79300000000000       10.56600000000000
H          -10.94400000000000       29.20400000000000        9.42900000000000
C          -11.12800000000000       27.79100000000000        6.70300000000000
H          -11.09700000000000       27.58800000000000        5.62300000000000
C          -12.17700000000000       28.47900000000000        7.16500000000000
H          -12.26300000000000       28.71300000000000        8.23600000000000
H          -12.96700000000000       28.82000000000000        6.47900000000000
C           -8.93400000000000       24.96700000000000        2.73400000000000
H           -9.27800000000000       26.02000000000000        2.64400000000000
H           -9.78400000000000       24.33800000000000        3.07500000000000
H           -8.57800000000000       24.61799999999999        1.74100000000000
C           -5.85300000000000       23.69500000000000        2.24500000000000
H           -5.39500000000000       24.48200000000000        1.60900000000000
H           -6.68100000000000       23.21400000000000        1.68200000000000
H           -5.07800000000000       22.94000000000000        2.49900000000000
O           -7.20600000000000       23.11600000000000        7.91700000000000
H           -7.34800000000000       23.00300000000000        8.85700000000000
H           -7.40800000000000       22.52900000000000        7.28000000000000
C           -3.56900000000000       27.43000000000000        7.01300000000000
H           -2.92500000000000       27.94900000000000        7.75500000000000
H           -3.45400000000000       27.94800000000000        6.03700000000000
H           -3.20500000000000       26.38500000000000        6.91400000000000
S           -5.34400000000000       27.44100000000000        7.53800000000000
H           -5.13300000000000       26.78700000000000        8.67100000000000
72
 energy: -105.932229409099 gnorm: 0.109663504815 xtb: 6.7.1 (edcfbbe)
Fe          -6.23681109368552       25.19583815692530        7.69735889393666
N           -4.39763687520266       24.20668933973057        7.48746240245474
N           -5.88804809815678       25.24377980383466        9.74176320482641
N           -8.03758410494152       26.13559707305329        8.03041652331577
N           -6.59633380954868       24.99357308380239        5.73568145548027
C           -3.82705588480316       23.88959219672816        6.28576529975700
C           -2.51574926288409       23.27018375698071        6.50702430452881
C           -2.35655736070429       23.19040358876709        7.85519944610347
C           -3.54127115888144       23.80499039661830        8.46366814806453
C           -4.81364260412966       24.70575718521197       10.42486829557953
C           -4.91326321529275       25.03092648152278       11.85347856430750
C           -6.05928770086759       25.77372926229138       12.01318851540242
C           -6.66240245939386       25.89239869272540       10.68305161809239
C           -8.47351550189572       26.74507194004051        9.17444625338925
C           -9.70189653158773       27.47505146517600        8.89930905854485
C           -9.99911948190882       27.27473566364259        7.57953137435438
C           -8.94996075206567       26.41396772714582        7.04190680322781
C           -7.80044278058588       25.25677870645812        5.13361914895908
C           -7.75048707537662       24.85711542715017        3.75213324019512
C           -6.43687654597616       24.34116506596218        3.53616627471200
C           -5.75241171095747       24.45763295658450        4.80150174673761
C           -4.41482356009456       24.07705358087863        5.05561604692873
H           -3.77701694594705       23.90412414322982        4.19497287909085
C           -3.78383028714285       23.96402251307201        9.82748349232117
H           -3.09290293622629       23.46600793864054       10.50045738084959
C           -7.80306351037890       26.63900125978421       10.40652597939676
H           -8.20728929943387       27.20485226358287       11.23877815548253
C           -8.87638822350874       25.90127170675417        5.75328286993359
H           -9.76625280631449       26.03088374940060        5.14459668401793
C           -1.16802187667873       22.66010763204716        8.62376872944374
H           -0.37773542344168       22.33996506615439        7.93518924882426
H           -1.45323572010616       21.79996133822766        9.24221292069931
H           -0.75816889605961       23.44144999134618        9.27452022501848
C           -1.56348128281918       22.77799078616797        5.41640578666438
H           -0.88476715893353       23.58172870494511        5.10142965355179
H           -2.11877112596955       22.43931304941334        4.53504149568157
H           -0.95113145224689       21.94459645388577        5.78001578256221
C           -3.93792809000334       24.57179208121248       12.93486661933892
H           -3.21592976653766       25.36162895655916       13.18256442523269
H           -3.37306863913007       23.69198444550505       12.60858808572002
H           -4.48431861684006       24.31714195171881       13.85157539146055
C           -6.60336699521538       26.39509378822460       13.28228028888102
H           -7.67774865381167       26.58156398465885       13.34134218587964
C           -5.87391094900060       26.74832547621052       14.34510628694485
H           -4.79982285146217       26.61290792955035       14.36539493868192
H           -6.33009287111809       27.20257274662221       15.22385038419133
C          -10.38665737078754       28.36697361846961        9.93506551333532
H           -9.64018989602879       28.81107032519395       10.60189071757313
H          -11.09902728744435       27.79830902283873       10.54716609955441
H          -10.91918789789764       29.18696537923884        9.44437498025246
C          -11.11657947693198       27.78518610221462        6.72877602772160
H          -11.06956731417267       27.57981381287162        5.65911079602551
C          -12.16867546297415       28.47224409394006        7.16840535012346
H          -12.28706477457282       28.70617277345130        8.21620750135386
H          -12.94735800547001       28.81209566012458        6.49096613670689
C           -8.89765895567206       24.96047466028916        2.75523340454080
H           -9.25582838847413       25.99553767348483        2.65485074672433
H           -9.75433907713335       24.34921391009085        3.07337776451819
H           -8.57913398733420       24.62131280808243        1.76403771932129
C           -5.87402778515769       23.71655558413700        2.27293949568322
H           -5.40878000420025       24.47337075501151        1.62546999181201
H           -6.66735245669329       23.22544986233360        1.69721318292934
H           -5.10643916570981       22.96519909567332        2.50441553514237
O           -7.19680096535313       23.14685752646914        7.93149434564296
H           -7.35220140265654       22.99298454074241        8.86039594656462
H           -7.41436525257767       22.51449891357689        7.27119463364619
C           -3.55369920678755       27.42605296695075        7.01072702313459
H           -2.94182845049986       27.94911491524698        7.75286527276597
H           -3.46713230943345       27.93912934940328        6.04904877721679
H           -3.21266867215624       26.39232750869485        6.91161835828799
S           -5.32070349676988       27.43616207991001        7.52225509330087
H           -5.11731098984381       26.81460755341530        8.68349307735431
72
 energy: -105.955036182088 gnorm: 0.040534730649 xtb: 6.7.1 (edcfbbe)
Fe          -6.23891199113288       25.16080947805710        7.71690222893201
N           -4.41250525307718       24.21005047297741        7.47811165415289
N           -5.88970769646684       25.24379833951840        9.76778386227240
N           -8.02922938527335       26.12131490679534        8.01827306606024
N           -6.59563863386628       24.98736126006176        5.75556401598423
C           -3.83611819046499       23.89918564731777        6.28424057062312
C           -2.53179523874901       23.27685021525782        6.50718425099427
C           -2.37203145612617       23.20393185550908        7.86227574624225
C           -3.56509220842521       23.80354687038961        8.46062781128296
C           -4.82942695798546       24.69341687959316       10.43214176377595
C           -4.92004863902839       25.01685870656362       11.84706688914680
C           -6.05404810468960       25.78648169202861       12.01412718029232
C           -6.65445738436982       25.90796389432469       10.68585867682279
C           -8.45165150986533       26.74075803666341        9.15583505176489
C           -9.67788925523603       27.48327880222719        8.89859567363802
C           -9.99999646201244       27.25881771045442        7.57205098079477
C           -8.93925074333706       26.39503272506563        7.04632232280222
C           -7.78149786978249       25.25363589821983        5.13832373548959
C           -7.71978364181712       24.83795353760043        3.75014421008373
C           -6.47095287240713       24.35464619832552        3.54559243395890
C           -5.76870756738551       24.46923682966707        4.80829917405864
C           -4.44112123867046       24.08060800936091        5.04846483099411
H           -3.81852801201650       23.86872343110408        4.18760253340421
C           -3.79449517880246       23.97534699122752        9.82662739993234
H           -3.07744009939871       23.50837900952495       10.49130216996826
C           -7.80061455574126       26.63834129704179       10.38973607458609
H           -8.22775599081764       27.18195625220195       11.22249962469941
C           -8.86220686010953       25.89798323965537        5.74891056626020
H           -9.73843017667290       26.04758456281612        5.13025735889748
C           -1.19382177796738       22.67170634703162        8.61656278738394
H           -0.40671685026196       22.35210500622503        7.93747989240890
H           -1.46785448794051       21.81802565113975        9.23558518856804
H           -0.77657144705404       23.43719998576162        9.26941525501258
C           -1.59276783519543       22.79569630341001        5.44237990779341
H           -0.91237135563660       23.58699804173708        5.12188085484318
H           -2.13064947625705       22.45125745283182        4.56225320425479
H           -0.98085044009358       21.96728631704086        5.79586827457553
C           -3.96032922531412       24.57435668101632       12.90553289435674
H           -3.23916275911410       25.35654809262467       13.15004046950947
H           -3.39473893732969       23.69996386237019       12.59486102303185
H           -4.49274726538988       24.32556905101023       13.82341755149264
C           -6.57746090619515       26.37845714517801       13.23819569829120
H           -7.64863578704092       26.55605391588387       13.27979473539628
C           -5.87071809133173       26.73344660503740       14.30762654800867
H           -4.80404533252947       26.62026340487802       14.36019302364829
H           -6.32976049783381       27.17525418073937       15.18092748405645
C          -10.35744569634228       28.34881197367032        9.91384606722483
H           -9.62998471725844       28.78853560779466       10.59190819389720
H          -11.07479357768016       27.78766459636315       10.51554937214360
H          -10.88992799638289       29.16866885350973        9.44116466593750
C          -11.09262639942147       27.77008669809355        6.76223372779452
H          -11.02777445849987       27.56570932931451        5.69904461848256
C          -12.15672124231819       28.45523645535821        7.17819584620615
H          -12.31365959704364       28.69674086664271        8.20983009765263
H          -12.91757276266436       28.80012990682593        6.49670522847349
C           -8.85884752276684       24.95184226461143        2.77730726062805
H           -9.21442715535971       25.98002112891845        2.68296241832160
H           -9.71615343062552       24.35069254142052        3.08953143012970
H           -8.56166508654884       24.61888186797404        1.78632685424541
C           -5.89571552967860       23.73935268213056        2.30005944008281
H           -5.42589947683682       24.48468726888326        1.65470898967381
H           -6.67090796160789       23.24471469600757        1.71744172235012
H           -5.13612274936986       22.99211184019905        2.53136583888962
O           -7.18908062707993       23.18920571686166        7.94705747130991
H           -7.36194948693051       22.96520308761052        8.86366111040930
H           -7.40841275919721       22.52752151156795        7.28658303316741
C           -3.53960936490067       27.42125465917727        7.00719925918142
H           -2.95099632080161       27.94812260886990        7.74922385344091
H           -3.47504055753394       27.93108152560483        6.05434632739038
H           -3.21440318332713       26.39427483660908        6.90875550009268
S           -5.29638545862870       27.45812181231780        7.51569135837334
H           -5.10334123498183       26.86528487019677        8.70256366395389
72
 energy: -105.962756156344 gnorm: 0.026644776734 xtb: 6.7.1 (edcfbbe)
Fe          -6.23855950029746       25.15079682093014        7.71899835369306
N           -4.43125824966503       24.22083748500521        7.47614957061165
N           -5.88918008460409       25.24646813109954        9.75951314575395
N           -8.01400127541661       26.11131728398185        8.00934106415741
N           -6.59585498728144       24.98622261286346        5.76738928133632
C           -3.85169217715291       23.90529128998289        6.28802450680405
C           -2.55338492216616       23.28926174430029        6.51391800943172
C           -2.39403515900412       23.21871971084696        7.86756169088623
C           -3.58375772020773       23.81404867771402        8.45862960738969
C           -4.83846858197866       24.68830702294320       10.42414027534394
C           -4.92157107955954       25.00798786353163       11.83066097889620
C           -6.04692916480410       25.78613736143361       11.99579895091980
C           -6.64862824609096       25.90852619070749       10.67469735538139
C           -8.42971579619277       26.73366081764026        9.14548708908852
C           -9.65036743314191       27.47626785774642        8.89685644200180
C           -9.98322405558181       27.24699624816743        7.57566722966920
C           -8.92705033204884       26.38325815436503        7.04826581446027
C           -7.77890139620389       25.25443002846845        5.15305433503757
C           -7.71999809142020       24.83879779965233        3.76284252437007
C           -6.46656893179514       24.36054635175612        3.55495641280228
C           -5.76966292501731       24.46945787347319        4.82215733097031
C           -4.45615528874913       24.07201687118666        5.05017533771884
H           -3.85321328025652       23.81894080679408        4.18477318712009
C           -3.79932905314716       23.98501971966451        9.82105149401097
H           -3.05390879006818       23.55435729617245       10.48119959826238
C           -7.79526906872670       26.63267407954149       10.37985171350474
H           -8.24473681566415       27.15918983141209       11.21167215391966
C           -8.85583609530202       25.89941281271333        5.74827061670758
H           -9.71695932629754       26.07286420235837        5.11563685816544
C           -1.22106071620716       22.68376995660239        8.61901759072125
H           -0.43885231111590       22.36402770307847        7.93495592825130
H           -1.49923980388068       21.83062530473851        9.23689088450102
H           -0.80018561331248       23.44641978514519        9.27314583566873
C           -1.61694657078004       22.81073962432160        5.45695762919489
H           -0.94043229928957       23.60613057840285        5.13964798430033
H           -2.15545708882634       22.46249816201788        4.57896189491449
H           -1.00760862678215       21.98540115916041        5.82035362882441
C           -3.96926155675668       24.56775216638922       12.88488527730872
H           -3.24878124355932       25.35415814635033       13.11570210459469
H           -3.41037589307618       23.68853024781439       12.57630911941981
H           -4.50616549061019       24.33190409292449       13.80304397560747
C           -6.56984053568495       26.36864342205982       13.20677574127702
H           -7.64035549070696       26.54441264374177       13.22636938397649
C           -5.87213313309601       26.71865497293872       14.28439173817838
H           -4.80228747225125       26.62945798108623       14.34387652943049
H           -6.34337318403140       27.15409705618633       15.15062922575669
C          -10.32434417561303       28.33619094835316        9.90785181562645
H           -9.59978516689862       28.76038547828373       10.59942259381307
H          -11.05402176216657       27.76853281070954       10.48930901131757
H          -10.84323668816467       29.16435145387215        9.43456595261444
C          -11.07254953178681       27.75634513892663        6.77982134116311
H          -10.99002923618084       27.55605961762369        5.71807394612322
C          -12.14826584552162       28.43454103471873        7.18130056716611
H          -12.34981397305451       28.66107252352354        8.21221657855335
H          -12.89035347214705       28.78316429665700        6.48256368054710
C           -8.84714842861501       24.94957687925308        2.79267624273348
H           -9.18628738835236       25.98173227156281        2.70847394850325
H           -9.69764789164275       24.34662531768173        3.11246194498679
H           -8.54255979666855       24.61492745947067        1.80502715911050
C           -5.89924058427554       23.75346903237864        2.31288432454736
H           -5.43185031362267       24.50762476563339        1.67924830363244
H           -6.67980041820469       23.26582143620877        1.73298005126775
H           -5.14709979766600       23.00604658885522        2.55538368248375
O           -7.20478385835213       23.20949981095835        7.97338206060354
H           -7.37204571962712       22.92531313661275        8.87972700926108
H           -7.39953497107601       22.53788204683037        7.31197318178929
C           -3.52972211325942       27.42039821115013        7.00312789186904
H           -2.94094481346499       27.95150143847719        7.74161508010153
H           -3.47136485020172       27.92313451424694        6.04581670875152
H           -3.21144975607909       26.39018644417813        6.90887510960483
S           -5.28426701600175       27.47403634623694        7.51195836701806
H           -5.08927757354741       26.93054504818551        8.72660804646984
72
 energy: -105.967359975650 gnorm: 0.020911182439 xtb: 6.7.1 (edcfbbe)
Fe          -6.23369862196981       25.15314403643610        7.72136175652259
N           -4.45837487600086       24.22979170677360        7.47630087924509
N           -5.88894848193123       25.24518486510010        9.73970234528973
N           -7.99143851425835       26.10083923192640        7.99744762406057
N           -6.59774499270360       24.97734182667434        5.78714379433749
C           -3.87279929002284       23.90583346060949        6.29402588507749
C           -2.57929910788730       23.29958937520563        6.52147438753422
C           -2.41838708803759       23.23578354752104        7.87246748678310
C           -3.60210899527294       23.83011854712409        8.45559166380308
C           -4.84233299369137       24.68978690430882       10.41014671127090
C           -4.92303038629927       25.00124410368565       11.81099487068535
C           -6.04285501797399       25.78152580638506       11.97314817962231
C           -6.64293295757517       25.90280173283660       10.65840782932789
C           -8.40528154329776       26.72249036808073        9.13440330980077
C           -9.62076459187312       27.46196634186895        8.89323456457224
C           -9.96299984013736       27.23101821333169        7.58063244684681
C           -8.91144262727090       26.37327764481060        7.04683185452537
C           -7.77526409788710       25.25366955976059        5.17066759362007
C           -7.71842052946881       24.84399361629553        3.78052962556920
C           -6.46313002313949       24.36096502859844        3.57110663867116
C           -5.77281547878621       24.46203458983034        4.84092993747033
C           -4.47240505510107       24.05096496615560        5.05422512750791
H           -3.88930805685439       23.76704702835022        4.18718152153032
C           -3.79583660100154       24.00269917222896        9.81358758411403
H           -3.03265547582405       23.59966726000885       10.46695087040778
C           -7.78903302809185       26.62301388390288       10.37071265978964
H           -8.25691480949660       27.13794889880248       11.19769205938396
C           -8.84898519648342       25.90462748785520        5.74477495072799
H           -9.69579822019525       26.09544978062032        5.10065301910026
C           -1.25100276045940       22.69852197807329        8.62694681927357
H           -0.47216544959594       22.37516119206472        7.94005266705539
H           -1.53889567200838       21.84686222106228        9.24397003251002
H           -0.82775833825699       23.46048061305195        9.28146026615284
C           -1.64042785063556       22.82474174195876        5.46681424058205
H           -0.97141570605913       23.62742357629244        5.15127294356678
H           -2.18010439959803       22.47187853321670        4.59102778984045
H           -1.02926625419415       22.00443401818219        5.83904749824803
C           -3.97360631762112       24.55749737535541       12.86507108532746
H           -3.24679947423082       25.34259773484009       13.08225680700687
H           -3.42683289787879       23.66854245118062       12.55992415548488
H           -4.51489514769820       24.33817028967943       13.78515800016795
C           -6.57199068306985       26.36716263203000       13.17972599065443
H           -7.64337786759820       26.53165612091078       13.18472454873089
C           -5.87734182788708       26.71917670992219       14.25866910368360
H           -4.80884113962227       26.62508003381491       14.32660309267504
H           -6.36336264561531       27.13290510637188       15.12634864668824
C          -10.29389550734364       28.32291818862502        9.90162074207628
H           -9.57173303094563       28.72792872430651       10.60913726235934
H          -11.03949801595037       27.75399296205719       10.46302160058388
H          -10.79516226619070       29.15849922480478        9.41915994457143
C          -11.05365250191821       27.74258810906547        6.79160211655708
H          -10.95277389770501       27.56446727137951        5.72705534482932
C          -12.14149019704982       28.40085779282307        7.19090702253046
H          -12.36856931545922       28.61986876978700        8.21926970140498
H          -12.86507782599725       28.75729786598530        6.47533281636594
C           -8.83954986062724       24.95385504117184        2.80953279137534
H           -9.16979512800294       25.98796627026557        2.72541309046621
H           -9.68858083747135       24.35155603885978        3.13227869256915
H           -8.52918894334726       24.61453263891678        1.82459527771801
C           -5.90073176950855       23.76855984729980        2.32538853792728
H           -5.43177447793464       24.53183924324413        1.70411926099757
H           -6.68607045077824       23.29235102087663        1.74156533878385
H           -5.15414447780028       23.01618358718828        2.56532537375141
O           -7.24605687040712       23.23302776726052        8.00121781665895
H           -7.36723898976433       22.88766022532905        8.89648449251061
H           -7.38056348960642       22.52980597627973        7.35273499767605
C           -3.51780253072206       27.42080266270157        6.99669789002870
H           -2.91851372021321       27.95599430624007        7.72475882749692
H           -3.45929691988909       27.91023431349205        6.03079512761294
H           -3.20695181448001       26.38542595250318        6.91263216293148
S           -5.26946813698584       27.49863382513564        7.51375285152007
H           -5.06732809333951       27.02504106130534        8.76020005385034
72
 energy: -105.969150959127 gnorm: 0.021138392890 xtb: 6.7.1 (edcfbbe)
Fe          -6.23586330080578       25.15056159791311        7.72556028609335
N           -4.47700489752996       24.23388377244369        7.47744830644585
N           -5.88533922916924       25.24801988513600        9.72244746631159
N           -7.97220072968421       26.10078562932256        7.98794317265339
N           -6.59964094292171       24.97166167468736        5.80000738379910
C           -3.88806003687616       23.90015455572445        6.29791245037616
C           -2.59487599007801       23.30225314428111        6.52480110628385
C           -2.43023217541568       23.24842837953822        7.87441917273613
C           -3.61061013895692       23.84270936725057        8.45346268826949
C           -4.84009085839179       24.69569897929732       10.40012569984228
C           -4.92297559800928       25.00088086069112       11.80010339825736
C           -6.04338153919995       25.77676471577331       11.96059311048119
C           -6.63779728662106       25.90052782257629       10.64692790274096
C           -8.38926755732628       26.71806634263014        9.12687812830233
C           -9.60371874257054       27.45364249334947        8.88990582874297
C           -9.94926162118027       27.22479443115417        7.58222371212788
C           -8.89991019098390       26.37294302004615        7.04327638421161
C           -7.77285703673240       25.25404181725432        5.17922125617096
C           -7.71754571636039       24.84945109589763        3.79021534039477