72
 energy: -105.979987300850 gnorm: 0.000136643972 xtb: 6.7.1 (edcfbbe)
Fe         -16.27487062512475      -23.07636383942415      -10.06483388911194
N          -16.20342326553905      -21.47221545249563      -11.25198560614343
N          -16.82801582632616      -24.21051721695119      -11.63643824177738
N          -16.38040605157525      -24.68689563300163       -8.87310065497273
N          -15.84291162827893      -21.93757517581215       -8.49222938777433
C          -15.96341775338385      -20.18904037591838      -10.87698591351418
C          -15.96786402891637      -19.31067549288945      -12.02599187993550
C          -16.21875285585710      -20.09658871007085      -13.10656582897125
C          -16.37778979510588      -21.44256354771879      -12.60070694570311
C          -16.93364543908090      -23.81092479074089      -12.93493085731496
C          -17.33709665010588      -24.90682155662482      -13.77570325696176
C          -17.47492961620442      -25.99387203719006      -12.95276509336176
C          -17.14455572314969      -25.53278009175252      -11.62021316716011
C          -16.70959423950201      -25.95558633127823       -9.24136783903790
C          -16.58444664499795      -26.85676691179605       -8.12631258326551
C          -16.12754620973080      -26.10991649994370       -7.07444417310527
C          -16.03229022671018      -24.74904279273090       -7.56215503084580
C          -15.69481293637040      -22.34793599793045       -7.20596044613294
C          -15.44299102981840      -21.21974997877027       -6.33506562364229
C          -15.44384913074260      -20.11752624579564       -7.13007827231177
C          -15.69401192218557      -20.58820560801526       -8.47518397786205
C          -15.74058349640806      -19.76244029665153       -9.58150360363012
H          -15.59024798542921      -18.70589829205218       -9.42329521606820
C          -16.69971604286140      -22.52582662062134      -13.39385988585690
H          -16.80081853186741      -22.35076478203525      -14.45349011032029
C          -17.09604592424186      -26.35165942030903      -10.50918801390201
H          -17.34047842500490      -27.39328679329888      -10.64644634034015
C          -15.75260145128835      -23.65539532005160       -6.76530207245573
H          -15.59308388783514      -23.83675145425138       -5.71439090726157
C          -16.33635015120453      -19.71960776472927      -14.54302245704338
H          -15.62769169217957      -20.28509412080731      -15.14852297209285
H          -16.13639022311503      -18.66012362556796      -14.68164050314089
H          -17.34030215278915      -19.92959246735197      -14.91289106028223
C          -15.73479239754431      -17.84090733023923      -11.95908228671105
H          -14.75586229473577      -17.62502919286865      -11.52997817974736
H          -16.49010065143336      -17.36363740986499      -11.33472830181570
H          -15.77991768996278      -17.39682206331122      -12.95031156646297
C          -17.61564708424714      -24.80941125930640      -15.23455951024558
H          -16.69244086349861      -24.87889426550669      -15.81211507482372
H          -18.09253589493647      -23.86021679729682      -15.47423802179704
H          -18.27490923002225      -25.61819533623123      -15.54293597916070
C          -17.88517259609704      -27.34248790791611      -13.27684523687921
H          -18.45352950794190      -27.85549146453475      -12.50954033673080
C          -17.61431672734472      -27.97806385215565      -14.41181057681925
H          -17.01325116316435      -27.53601308346948      -15.18696536354384
H          -17.96370178776863      -28.98102647040680      -14.59208841141296
C          -16.85078148558312      -28.32072506400619       -8.17719571269905
H          -16.15749146831856      -28.81151341291122       -8.86079478966295
H          -17.86471470531499      -28.51644249537047       -8.52750837181973
H          -16.73013478551862      -28.76529619501601       -7.19267166451971
C          -15.80117991675526      -26.58384643908744       -5.74495547403525
H          -16.45345572008145      -27.35789017829795       -5.35508503835299
C          -14.76849716728847      -26.17939043254771       -5.01488983915239
H          -14.06075774017747      -25.45479555313594       -5.38039379768484
H          -14.57976110147335      -26.58140520956017       -4.03335927519240
C          -15.23341605028688      -21.32681795857676       -4.86423973787211
H          -14.36729096644436      -21.95140618489165       -4.64427899625912
H          -16.10325171519738      -21.77711945488452       -4.38608914146638
H          -15.06899404629786      -20.34623672789082       -4.42464690387205
C          -15.23716521783497      -18.68785287810022       -6.76597626435503
H          -15.08384551298395      -18.58036620501645       -5.69516638800128
H          -16.10484492571925      -18.09268643990393       -7.05029519813513
H          -14.36511957843139      -18.28212932449373       -7.27980474450162
O          -18.47320922712936      -22.78783906564258       -9.70618625333830
H          -18.64239820685544      -23.47449850308841       -9.05089670021278
H          -18.82849612513125      -23.10274979109933      -10.54541642116212
C          -13.01804321703520      -22.12262826761676      -10.08823326192816
H          -12.04312011159489      -22.21033223578091      -10.55787150763622
H          -12.91685322697011      -22.13887188300863       -9.00811027223026
H          -13.52644469368896      -21.21502612462891      -10.39560802198550
S          -14.03221485620593      -23.57471145576589      -10.53683950895955
H          -14.05280878009853      -23.30622084199074      -11.84771605746865
