72
 energy: -105.892986277832 gnorm: 0.267413935402 xtb: 6.7.1 (edcfbbe)
Fe         -16.14300000000000      -23.04800000000000      -10.08100000000000
N          -16.22100000000000      -21.43800000000000      -11.20300000000000
N          -16.71000000000000      -24.22300000000000      -11.57800000000000
N          -16.54300000000000      -24.62700000000000       -8.78100000000000
N          -15.97400000000000      -21.92600000000000       -8.42200000000000
C          -15.98800000000000      -20.13200000000000      -10.80000000000000
C          -15.97800000000000      -19.31100000000000      -11.99400000000000
C          -16.18900000000000      -20.07200000000000      -13.04600000000000
C          -16.35700000000000      -21.44100000000000      -12.56900000000000
C          -16.79600000000000      -23.82200000000000      -12.89500000000000
C          -17.11700000000000      -24.95600000000000      -13.73700000000000
C          -17.24600000000000      -26.00700000000000      -12.93800000000000
C          -17.00000000000000      -25.57800000000000      -11.56900000000000
C          -16.69800000000000      -25.96500000000000       -9.19800000000000
C          -16.47100000000000      -26.83500000000000       -8.07600000000000
C          -16.17400000000000      -26.09700000000000       -7.00900000000000
C          -16.21500000000000      -24.69100000000000       -7.41500000000000
C          -15.90300000000000      -22.31900000000000       -7.08400000000000
C          -15.63900000000000      -21.15900000000000       -6.22800000000000
C          -15.57800000000000      -20.10100000000000       -7.03100000000000
C          -15.77900000000000      -20.54400000000000       -8.41000000000000
C          -15.79500000000000      -19.69900000000000       -9.50800000000000
H          -15.64700000000000      -18.63300000000000       -9.33900000000000
C          -16.59500000000000      -22.54600000000000      -13.36100000000000
H          -16.62600000000000      -22.39399999999999      -14.44000000000000
C          -17.01700000000000      -26.40200000000000      -10.45200000000000
H          -17.29800000000000      -27.44700000000000      -10.58200000000000
C          -16.00800000000000      -23.60400000000000       -6.61000000000000
H          -15.92200000000000      -23.76600000000000       -5.53600000000000
C          -16.25300000000000      -19.57300000000000      -14.49500000000000
H          -15.22200000000000      -19.43100000000000      -14.88400000000000
H          -16.79000000000000      -18.60100000000000      -14.53400000000000
H          -16.77700000000000      -20.32200000000000      -15.12700000000000
C          -15.74000000000000      -17.80600000000000      -12.03800000000000
H          -15.22800000000000      -17.48400000000000      -11.10600000000000
H          -16.71200000000000      -17.27400000000000      -12.11700000000000
H          -15.09700000000000      -17.55300000000000      -12.90800000000000
C          -17.27700000000000      -24.88100000000000      -15.27600000000000
H          -16.34600000000000      -25.24100000000000      -15.76400000000000
H          -17.46100000000000      -23.82900000000000      -15.58300000000000
H          -18.12400000000000      -25.52400000000000      -15.59700000000000
C          -17.56900000000000      -27.46800000000000      -13.31400000000000
H          -17.78600000000000      -28.20000000000000      -12.52200000000000
C          -17.59900000000000      -27.89600000000000      -14.58200000000000
H          -17.23300000000000      -27.25400000000000      -15.39700000000000
H          -17.98999999999999      -28.89500000000000      -14.82500000000000
C          -16.52800000000000      -28.37000000000000       -8.10000000000000
H          -16.41100000000000      -28.72900000000000       -9.14500000000000
H          -17.50800000000000      -28.71500000000000       -7.70800000000000
H          -15.70400000000000      -28.78600000000000       -7.48200000000000
C          -15.86900000000000      -26.75000000000000       -5.64000000000000
H          -16.13500000000000      -27.80500000000000       -5.47900000000000
C          -15.29400000000000      -26.10500000000000       -4.62400000000000
H          -15.00500000000000      -25.04799999999999       -4.72500000000000
H          -15.10100000000000      -26.62200000000000       -3.67200000000000
C          -15.50300000000000      -21.16700000000000       -4.69000000000000
H          -14.55900000000000      -21.67900000000000       -4.40400000000000
H          -16.36000000000000      -21.71300000000000       -4.24000000000000
H          -15.47600000000000      -20.12300000000000       -4.31000000000000
C          -15.31900000000000      -18.64000000000000       -6.60800000000000
H          -14.68100000000000      -18.62500000000000       -5.69900000000000
H          -16.28400000000000      -18.13900000000000       -6.37900000000000
H          -14.79500000000000      -18.10000000000000       -7.42500000000000
O          -18.50400000000000      -22.95300000000000       -9.78600000000000
H          -18.75100000000000      -23.77700000000000       -9.36500000000000
H          -19.05500000000000      -22.29400000000000      -10.01500000000000
C          -13.02600000000000      -22.32300000000000      -11.09000000000000
H          -12.17700000000000      -22.65800000000000      -11.72300000000000
H          -12.62600000000000      -21.63600000000000      -10.31400000000000
H          -13.73700000000000      -21.76599999999999      -11.73600000000000
S          -13.84900000000000      -23.71200000000000      -10.32000000000000
H          -14.37400000000000      -24.17300000000000      -11.44600000000000
72
 energy: -105.948074589343 gnorm: 0.107357667223 xtb: 6.7.1 (edcfbbe)
Fe         -16.26204753685819      -23.05209618545306      -10.03298434426002
N          -16.20005926637634      -21.44453289199073      -11.20399025893035
N          -16.69896935564818      -24.23571024257283      -11.59266405233495
N          -16.48899874116912      -24.66656032424824       -8.76692921348324
N          -15.95283342042917      -21.90740330985023       -8.40481450963983
C          -15.98288137229483      -20.14345830781259      -10.80993370349416
C          -15.97274106608758      -19.29532581440330      -11.98538511883392
C          -16.19180641562665      -20.07493566933645      -13.06027724254840
C          -16.34268945682244      -21.43523905235480      -12.56549580323972
C          -16.78682896055929      -23.83385903208055      -12.90082641914999
C          -17.11581827055226      -24.95890838197369      -13.75361251612046
C          -17.24213498663428      -26.03968976948878      -12.94119738056841
C          -16.99757075987928      -25.57805044958856      -11.58125998608535
C          -16.68618453848209      -25.97101559668596       -9.18120481725885
C          -16.47825966164158      -26.85924104397342       -8.06848026293340
C          -16.17808694565380      -26.10881757537196       -6.97812963212521
C          -16.20636973629711      -24.71642153939580       -7.41513438239998
C          -15.89391536888792      -22.30629289079411       -7.08822732065704
C          -15.64661919434017      -21.15802235586959       -6.22265737907552
C          -15.57288448517910      -20.08098382935801       -7.03282958855416
C          -15.77420770138660      -20.54348600615986       -8.39814585178473
C          -15.79379716641313      -19.71552610452259       -9.50864179149436
H          -15.65045401926678      -18.65298250252971       -9.34331786449002
C          -16.58830350131147      -22.54377824160835      -13.35573841989843
H          -16.63141008183686      -22.38648830802394      -14.42710196315278
C          -17.01502019856423      -26.38766538693327      -10.45587586373713
H          -17.28337972733965      -27.42961138489101      -10.58783902142515
C          -16.00961370477348      -23.60229404236860       -6.62256875100970
H          -15.93057668200068      -23.75132627271680       -5.55420396187056
C          -16.25463918567858      -19.58788797147768      -14.48737030465326
H          -15.24052494461162      -19.43713431787168      -14.87915607996906
H          -16.78167615177602      -18.62792517057835      -14.53292081090627
H          -16.77193947721778      -20.31013878607646      -15.12410376508942
C          -15.73830272374910      -17.81007134686772      -12.02587689532716
H          -15.23268383424805      -17.47730322072874      -11.11586545324352
H          -16.69331447406098      -17.27836765104002      -12.11421274047691
H          -15.11250472938973      -17.55486436166537      -12.88857222897401
C          -17.27608534963621      -24.87338777079564      -15.25856457721164
H          -16.36285171999304      -25.22888012731634      -15.75375362570574
H          -17.46085664464969      -23.84399243354732      -15.57678538559066
H          -18.11605877641671      -25.49515445667697      -15.58573313566947
C          -17.56726637887483      -27.44662361548573      -13.31739053491254
H          -17.80198261075823      -28.15314317386216      -12.52198459886248
C          -17.59611646193152      -27.89300528142481      -14.57220595051120
H          -17.25087478442702      -27.28255444504532      -15.39313300179343
H          -17.95995953326253      -28.88762450628379      -14.81167349911387
C          -16.53041469386777      -28.36551308049656       -8.10956099172679
H          -16.41238554343057      -28.73099735954109       -9.13294082546063
H          -17.49219195827318      -28.71417821683881       -7.71579638951688
H          -15.72316177431184      -28.78067938115250       -7.49782638163407
C          -15.87733962122018      -26.71771336094021       -5.64637731145042
H          -16.14130576965068      -27.76800575490480       -5.51434641929684
C          -15.29321114236460      -26.10039811998536       -4.62661287210633
H          -14.98237081057563      -25.06874611358110       -4.70327153780775
H          -15.10316468226016      -26.61346870087807       -3.68902513485666
C          -15.50563097456456      -21.17679464285612       -4.71295737860332
H          -14.57549302689820      -21.67631682939019       -4.41441077741430
H          -16.34635409685292      -21.70521442344920       -4.25080018811722
H          -15.48125939467690      -20.15288280857475       -4.32400844149349
C          -15.31869920278349      -18.64917537125377       -6.61647635706858
H          -14.69175751814527      -18.62476023397450       -5.71895079499342
H          -16.26611076123427      -18.14578281154877       -6.38934654751568
H          -14.80354384459865      -18.10328250323937       -7.41133267950143
O          -18.48633992079568      -22.95521200071556       -9.78200736843801
H          -18.76024372019247      -23.76987309671024       -9.36407936295730
H          -19.08957158055244      -22.27541852844503      -10.01747741469189
C          -13.01994025596315      -22.30937647864977      -11.10329546246808
H          -12.18095801098368      -22.66081158844623      -11.71516488716145
H          -12.63611956131027      -21.64620217712561      -10.32205548180376
H          -13.72775091782341      -21.76033135027691      -11.73020356549397
S          -13.87377364581368      -23.69148919867949      -10.32087417089112
H          -14.35080746786237      -24.19259471924494      -11.45803124896409
72
 energy: -105.963028550692 gnorm: 0.024404188468 xtb: 6.7.1 (edcfbbe)
Fe         -16.29800909725566      -23.06895078593367      -10.00114802136756
N          -16.20322509710278      -21.45281159197510      -11.19869558434328
N          -16.71297302492881      -24.24017197847083      -11.59897973732355
N          -16.45642862586841      -24.68718561845557       -8.76201458111449
N          -15.96739902519754      -21.89607177687107       -8.39519343030243
C          -15.98345837869640      -20.16042000737722      -10.81606924386131
C          -15.96745230306602      -19.29277369774010      -11.97465482616504
C          -16.19232754960820      -20.08343381156514      -13.06146147263016
C          -16.33743397050385      -21.43403958540675      -12.55657057750526
C          -16.78556421628579      -23.84055369484167      -12.90063250788977
C          -17.11176381225934      -24.95524492720277      -13.76106976431979
C          -17.23986388321910      -26.05549538849060      -12.94367863253057
C          -16.99603180827416      -25.57390058885641      -11.58974300090398
C          -16.66402771691513      -25.96862848029713       -9.17068747352807
C          -16.48348083526568      -26.87244042201954       -8.06496998196863
C          -16.18113165394905      -26.11126645913066       -6.96162659772788
C          -16.19150981044409      -24.73119745118485       -7.42693376774073
C          -15.89707545648201      -22.29789460051330       -7.09805433428716
C          -15.65404989062778      -21.16144115366669       -6.22620567024674
C          -15.56954774342165      -20.07182727819513       -7.03809221221410
C          -15.77797626612519      -20.54996820402884       -8.39121357538027
C          -15.79106660241662      -19.73619666538996       -9.51112721313608
H          -15.65050960544488      -18.67635897545974       -9.35049604737354
C          -16.58363674645821      -22.54270759897796      -13.34736234408259
H          -16.63880044999244      -22.37807111788872      -14.41304423560199
C          -16.99611480468585      -26.37220488556692      -10.45949110078692
H          -17.25497283140248      -27.41241875321455      -10.59074379463084
C          -16.00635581371684      -23.60120591557014       -6.64253380846780
H          -15.93981970622120      -23.73909231055535       -5.57664776026117
C          -16.25633424409403      -19.60816853994076      -14.47445100978545
H          -15.25230698227850      -19.45201603548069      -14.87165217536961
H          -16.77880777404717      -18.65464635356263      -14.52477022214831
H          -16.77061366118601      -20.31370772594157      -15.11714685169762
C          -15.73733708114519      -17.81976550765846      -12.01043879606244
H          -15.23635398960225      -17.47403438682570      -11.11363158865527
H          -16.68246367040229      -17.28529558636616      -12.10530919892309
H          -15.12266680925956      -17.56028284346529      -12.87011261400527
C          -17.27575681879896      -24.86321015336762      -15.23889892315246
H          -16.37628798037035      -25.21824872782444      -15.74480908397247
H          -17.45779343597639      -23.84281104989140      -15.55812354797879
H          -18.11648202368045      -25.46925463232375      -15.56864304357961
C          -17.56852684769919      -27.41264882363969      -13.31521922102054
H          -17.82973990654930      -28.08946952699567      -12.50952858981665
C          -17.58841624054149      -27.89283137443591      -14.55836451893183
H          -17.26750868104985      -27.31352551560244      -15.39935196048272
H          -17.91877002124793      -28.89448430689477      -14.78002666914263
C          -16.53621333919460      -28.36029799860944       -8.11696360062395
H          -16.41779085420372      -28.72786941526989       -9.12962334773923
H          -17.48704925445195      -28.72041067200792       -7.72479972327687
H          -15.73845182976832      -28.78174220558613       -7.51112729088733
C          -15.88609858875746      -26.67855938954649       -5.66384054502411
H          -16.16455308613450      -27.72207184847117       -5.55581701342696
C          -15.28809579643534      -26.09128642846570       -4.63193692821979
H          -14.94632374898538      -25.07652084810146       -4.67726826745617
H          -15.10632195408551      -26.61309055152994       -3.70795093546526
C          -15.51063520908227      -21.18930175708726       -4.73941861885523
H          -14.58825195550622      -21.68622868430571       -4.43978426759938
H          -16.34216807633527      -21.71078400803641       -4.27131345716045
H          -15.48680685749990      -20.17667771044923       -4.34385187950987
C          -15.31850196718520      -18.66004101787246       -6.62801397670274
H          -14.69870053695419      -18.62847945275638       -5.73545097392817
H          -16.25596203338559      -18.15172247225288       -6.40330988475718
H          -14.80924969943052      -18.10715784076507       -7.41031488841488
O          -18.45828405924795      -22.93481683667930       -9.76336780342712
H          -18.78130094435598      -23.74872669313663       -9.37158083352926
H          -19.10456052819217      -22.27342101298240      -10.01673268659760
C          -13.01747095316203      -22.29193463987200      -11.11415687851841
H          -12.18820753958947      -22.66524744411219      -11.70840491866218
H          -12.64285028530275      -21.64991465438823      -10.32502524470219
H          -13.72127402672534      -21.74642216551300      -11.73048871317024
S          -13.87651570020062      -23.68274998133467      -10.31760065022630
H          -14.32218828206353      -24.21914945580434      -11.45823735970245
72
 energy: -105.966952978673 gnorm: 0.022870856204 xtb: 6.7.1 (edcfbbe)
Fe         -16.30929393902303      -23.07064718788103       -9.99354853073495
N          -16.20442997073537      -21.45337936403009      -11.19560373415294
N          -16.71297138807206      -24.23917638661551      -11.59973284747046
N          -16.42439723088207      -24.69033384472102       -8.77294795095527
N          -15.96704187759994      -21.89634697385198       -8.39831886046488
C          -15.98219944058817      -20.16544861029821      -10.81546991129679
C          -15.96248568576181      -19.29564750329860      -11.96838955570245
C          -16.18907343735607      -20.08797178955054      -13.05544953087790
C          -16.33612222788654      -21.43392483997522      -12.55140952506853
C          -16.78309069553218      -23.83630278812619      -12.89835190071903
C          -17.10628004595246      -24.94357405633700      -13.76066048411204
C          -17.23995300932289      -26.04699823384216      -12.94600626296535
C          -16.98939043006212      -25.57031469092809      -11.59322356413338
C          -16.64237580952686      -25.96942607450872       -9.17611700247040
C          -16.48039787930782      -26.87315403750539       -8.06927860136171
C          -16.17635972361006      -26.10489365667651       -6.96704865371797
C          -16.17569912108590      -24.73015965781053       -7.43819594195002
C          -15.90096849071853      -22.29778296433012       -7.10496862913483
C          -15.65940624881711      -21.16458802289129       -6.23422441056190
C          -15.57030522835652      -20.07301506261199       -7.04370505078110
C          -15.78044146096760      -20.55229546589716       -8.39340273852201
C          -15.79035999797869      -19.74106809661884       -9.51250678940255
H          -15.64490392439331      -18.68302233464567       -9.35488150588492
C          -16.58363094219328      -22.53878204743510      -13.34320254997848
H          -16.64536996764683      -22.36931994169198      -14.40717900186450
C          -16.97453507797010      -26.36982552076464      -10.46573962633657
H          -17.21898253622314      -27.41258761300658      -10.59885922316630
C          -16.00532574140631      -23.60063953253348       -6.65251872003833
H          -15.94843516934543      -23.73575039094665       -5.58640814892439
C          -16.25820968174193      -19.62391473176813      -14.46947149226358
H          -15.25462302814290      -19.47032230095779      -14.87038420725296
H          -16.78307734157705      -18.67126749300217      -14.52074145532456
H          -16.77465723868333      -20.33306483306682      -15.10853332723624
C          -15.73615141156857      -17.82343884548889      -11.99641778270614
H          -15.23607303211498      -17.47490584346407      -11.09849890178707
H          -16.68358791215042      -17.29097431199018      -12.08977704678708
H          -15.12297827540476      -17.56044919562558      -12.85685739661437
C          -17.28251666617035      -24.84362733686970      -15.23336231179133
H          -16.39222199047731      -25.20859632927725      -15.75009721086414
H          -17.45427355075983      -23.81738308238068      -15.54355463489001
H          -18.13656028850730      -25.43674985683493      -15.55612720931522
C          -17.58149336423384      -27.39701617389395      -13.30797223335817
H          -17.86751296436917      -28.04843908509104      -12.48801126996648
C          -17.58391963772800      -27.91259810113147      -14.53972572289572
H          -17.25785323297861      -27.36373647472970      -15.40239458497379
H          -17.88455698546772      -28.93121339446609      -14.73012729594715
C          -16.54377572268701      -28.36057615842913       -8.12361439690392
H          -16.42706139616805      -28.72598041673472       -9.13883705930119
H          -17.49590288402835      -28.72350902426651       -7.73382527108245
H          -15.74767396944072      -28.79080521742236       -7.51947577438646
C          -15.89442838777981      -26.65527297726755       -5.66570691594297
H          -16.19967063046381      -27.69111237432680       -5.56190727133186
C          -15.27893892049628      -26.08741826390374       -4.63000183985426
H          -14.89068847915759      -25.08385765469321       -4.66210479411496
H          -15.11005614494171      -26.62542533594944       -3.71291767689424
C          -15.51609709905259      -21.20546327063645       -4.75224234198793
H          -14.59367765149330      -21.70935036305673       -4.46257138744994
H          -16.34894266694850      -21.73153969592364       -4.28985511901797
H          -15.49073239045968      -20.19490788934362       -4.35119396775719
C          -15.31786094786392      -18.66182418764770       -6.63866070230610
H          -14.69978466188116      -18.62883259938286       -5.74411594423240
H          -16.25636234911008      -18.15100015123297       -6.41889500979358
H          -14.80703068556877      -18.10928360150139       -7.42206018976629
O          -18.46015704925947      -22.88687938459359       -9.69643184843284
H          -18.83373482875002      -23.73032510291362       -9.39561174543970
H          -19.12533582746005      -22.27040230895958      -10.03136086022355
C          -13.01960603410029      -22.27898829132653      -11.11959671220245
H          -12.18881219140530      -22.66502156330773      -11.70308084696414
H          -12.65037539323049      -21.64147475737672      -10.32417892715448
H          -13.71705640150733      -21.73132221896735      -11.74126745376542
S          -13.88679613190289      -23.67065112680109      -10.31898891903803
H          -14.26694785444439      -24.25770198466546      -11.46809368793121
72
 energy: -105.967659718248 gnorm: 0.058494558170 xtb: 6.7.1 (edcfbbe)
Fe         -16.30266686774593      -23.07365763146333       -9.98895348052132
N          -16.20664069405749      -21.45436551747857      -11.18957621013558
N          -16.72403339968713      -24.23143897379985      -11.59562065516180
N          -16.39397540703332      -24.68807926897860       -8.79026658109689
N          -15.95779788831852      -21.90092112574490       -8.40699578448916
C          -15.97943084870491      -20.16948825430355      -10.81276511971763
C          -15.95659074431037      -19.29892490223144      -11.96171309908843
C          -16.18570261115897      -20.09122957582279      -13.04719069965640
C          -16.33743329312327      -21.43338034089937      -12.54426416250308
C          -16.78842974934071      -23.82750933032268      -12.89389979341107
C          -17.10796774518864      -24.92902492426096      -13.75756668253846
C          -17.24565901269369      -26.03263810689021      -12.94660408578450
C          -16.98852329354926      -25.56313840815988      -11.59484247060735
C          -16.61648902516579      -25.96975546914429       -9.18649366663677
C          -16.47444018782826      -26.87082208780878       -8.07652702404414
C          -16.17061965111931      -26.09551779551382       -6.97841313682219
C          -16.15641230648733      -24.72635368037946       -7.45453804596706
C          -15.90054680101471      -22.30095142198722       -7.11411025503194
C          -15.66624963725141      -21.16918927986206       -6.24388330883521
C          -15.57233391849956      -20.07719635543518       -7.04971845836504
C          -15.77802952685570      -20.55582929313460       -8.39817227734767
C          -15.78564504933476      -19.74379024955093       -9.51315187601077
H          -15.63721646212576      -18.68694717012047       -9.35787696241034
C          -16.58773411098657      -22.53245921434538      -13.33839941423386
H          -16.64912399578941      -22.35822380630081      -14.40080514317370
C          -16.94673565626299      -26.36934915986155      -10.47411919068378
H          -17.16845660632375      -27.41670412731177      -10.61125455790803
C          -15.99931747948400      -23.60274184335491       -6.66353958505270
H          -15.95245056291772      -23.74089331223740       -5.59706827684703
C          -16.25954992809927      -19.64092993236104      -14.46538862704467
H          -15.25694603769827      -19.49422562711774      -14.87297108461327
H          -16.78615318312791      -18.68907247882849      -14.52335553251896
H          -16.77987791079580      -20.35823675767588      -15.09463737070345
C          -15.73375141451710      -17.82621697752698      -11.97981225771328
H          -15.23390952601638      -17.48029762211383      -11.07898750220744
H          -16.68450840807770      -17.29647899362818      -12.06678635872695
H          -15.12192983689023      -17.55499847758679      -12.83964679416668
C          -17.29377835251009      -24.83049479177820      -15.22940163742384
H          -16.41229003126283      -25.20208299405173      -15.75638322757363
H          -17.45853173235592      -23.80014072174662      -15.53576698581023
H          -18.15528665895277      -25.41924700394097      -15.54194909004941
C          -17.58952534930387      -27.38516122850880      -13.29627486894323
H          -17.91005363969688      -28.00786432368983      -12.46485362464798
C          -17.56350646342943      -27.93587084157664      -14.51230321108487
H          -17.24930620017828      -27.40719667194268      -15.39544357916039
H          -17.86197633040555      -28.95919363666922      -14.66947189220686
C          -16.55336070479327      -28.35902258051559       -8.13144467189067
H          -16.43993813048203      -28.72264419731848       -9.14974562816290
H          -17.50982791337989      -28.71751549639892       -7.74505771745697
H          -15.76102262144930      -28.80111341312398       -7.52829832726415
C          -15.90100412679815      -26.63228633440834       -5.66761065787573
H          -16.25529036254746      -27.65276076685383       -5.55229080990004
C          -15.25583274442091      -26.08396888707073       -4.63844641200652
H          -14.82983545802360      -25.09319241792268       -4.65834485831116
H          -15.12377585390628      -26.63120629157814       -3.71891042453185
C          -15.52441899366387      -21.22791833362101       -4.76365528001105
H          -14.60296882407376      -21.74177128865808       -4.48518355100214
H          -16.35973087670819      -21.76085604111528       -4.31142380180943
H          -15.49610965038970      -20.22231807209715       -4.34992236658462
C          -15.31865179776428      -18.66379329071583       -6.65091542292914
H          -14.70446171008784      -18.62702279901032       -5.75287920953288
H          -16.25844086546183      -18.14869610037949       -6.44116918662828
H          -14.80218150522720      -18.11660050866572       -7.43643475364177
O          -18.45871872120579      -22.81671760377916       -9.58541337394574
H          -18.88564461226051      -23.70547927262346       -9.43473771991706
H          -19.14950836549035      -22.29018435049979      -10.08402569521855
C          -13.02108032595889      -22.26382029930286      -11.12449094291603
H          -12.18839675242094      -22.65778027733243      -11.69885801308867
H          -12.65811970829417      -21.62821616893904      -10.32398660012485
H          -13.71211660866775      -21.71375971190600      -11.75275031109751
S          -13.89264645701295      -23.65681595285237      -10.31948761450560
H          -14.21138277383344      -24.28930983586162      -11.46875300096878
72
 energy: -105.969520329932 gnorm: 0.023211859880 xtb: 6.7.1 (edcfbbe)
Fe         -16.29571929207018      -23.07366937039895       -9.98990710946982
N          -16.20872333980216      -21.45428717136269      -11.18598228351077
N          -16.73055510269604      -24.22538969707944      -11.59224278388101
N          -16.38023846232135      -24.68396413049327       -8.80329317084627
N          -15.95070003928161      -21.90605820508512       -8.41499934879469
C          -15.97734401156873      -20.17008361110520      -10.81045485705035
C          -15.95294160871197      -19.30105934725119      -11.95919561957701
C          -16.18297491737737      -20.09184723663394      -13.04224461837471
C          -16.33851815859816      -21.43315434543674      -12.54089482459255
C          -16.79220355028024      -23.82115268196208      -12.89165718214344
C          -17.10997980576879      -24.92078685053599      -13.75525197257949
C          -17.24911736490528      -26.02209676694217      -12.94734089757497
C          -16.98754484459097      -25.55927289482311      -11.59564734471706
C          -16.60085383688469      -25.97061934262741       -9.19561868626161
C          -16.46846897968170      -26.86771774526615       -8.08217799600883
C          -16.16732321180552      -26.08908417691912       -6.98835558166168
C          -16.14602216285623      -24.72231681719624       -7.46526659556709
C          -15.90002213093241      -22.30455977212767       -7.11984419512547
C          -15.67147844003190      -21.17215437808257       -6.24992895385294