78
 energy: -115.924503569414 gnorm: 0.329253005227 xtb: 6.7.1 (edcfbbe)
Fe           6.43800000000000       -1.36300000000000        9.40700000000000
N            5.40100000000000       -3.14000000000000       10.03800000000000
N            7.45800000000000       -1.42400000000000       11.31600000000000
N            7.52200000000000        0.47200000000000        8.95300000000000
N            5.33700000000000       -1.29500000000000        7.52200000000000
C            4.46800000000000       -3.71300000000000        9.19500000000000
C            4.02300000000000       -4.83600000000000        9.89100000000000
C            4.67800000000000       -4.89400000000000       11.09000000000000
C            5.56300000000000       -3.80100000000000       11.17000000000000
C            7.26800000000000       -2.39700000000000       12.24300000000000
C            8.11200000000000       -2.10700000000000       13.30600000000000
C            8.84100000000000       -0.89900000000000       12.96900000000000
C            8.38900000000000       -0.48200000000000       11.66400000000000
C            8.41700000000000        1.06700000000000        9.71500000000000
C            8.84200000000000        2.19300000000000        8.98900000000000
C            8.14900000000000        2.20900000000000        7.78500000000000
C            7.29500000000000        1.10100000000000        7.75400000000000
C            5.52000000000000       -0.34400000000000        6.60800000000000
C            4.65700000000000       -0.64800000000000        5.53300000000000
C            3.96900000000000       -1.82600000000000        5.89300000000000
C            4.42800000000000       -2.20600000000000        7.16900000000000
C            4.00700000000000       -3.32900000000000        7.90600000000000
H            3.25400000000000       -3.96700000000000        7.44300000000000
C            6.39200000000000       -3.49400000000000       12.19000000000000
H            6.38100000000000       -4.15900000000000       13.05300000000000
C            8.83900000000000        0.65900000000000       10.95400000000000
H            9.59600000000000        1.27300000000000       11.44100000000000
C            6.40300000000000        0.77800000000000        6.66100000000000
H            6.40500000000000        1.45000000000000        5.80300000000000
C            4.49300000000000       -5.96200000000000       12.14800000000000
H            4.04000000000000       -6.86600000000000       11.68700000000000
H            3.81700000000000       -5.58700000000000       12.94600000000000
H            5.47800000000000       -6.23400000000000       12.58300000000000
C            2.98300000000000       -5.83300000000000        9.41100000000000
H            3.48400000000000       -6.65100000000000        8.85000000000000
H            2.25900000000000       -5.32600000000000        8.73800000000000
H            2.45000000000000       -6.26800000000000       10.28300000000000
C            8.21200000000000       -2.88300000000000       14.47900000000000
H            9.10800000000000       -3.53700000000000       14.41600000000000
H            7.30800000000000       -3.52000000000000       14.58600000000000
H            8.31400000000000       -2.21700000000000       15.36200000000000
C            9.81400000000000       -0.18500000000000       13.72800000000000
H           10.23500000000000        0.75200000000000       13.33400000000000
C           10.25900000000000       -0.62100000000000       14.95200000000000
H            9.99700000000000       -1.62600000000000       15.31600000000000
H           10.88200000000000        0.02900000000000       15.58300000000000
C            9.81900000000000        3.12900000000000        9.43300000000000
H           10.55000000000000        2.61600000000000       10.09400000000000
H            9.32600000000000        3.94300000000000       10.00500000000000
H           10.35800000000000        3.55200000000000        8.55900000000000
C            8.25900000000000        3.15500000000000        6.75000000000000
H            8.42500000000000        2.83300000000000        5.71100000000000
C            8.16200000000000        4.49000000000000        7.01300000000000
H            7.99600000000000        4.84600000000000        8.04000000000000
H            8.24900000000000        5.22700000000000        6.20100000000000
C            4.50500000000000        0.08100000000000        4.34000000000000
H            5.50400000000000        0.27900000000000        3.89600000000000
H            4.00700000000000        1.05100000000000        4.55400000000000
H            3.89900000000000       -0.50500000000000        3.61600000000000
C            2.98800000000000       -2.49900000000000        5.13600000000000
H            3.47700000000000       -3.25100000000000        4.48100000000000
H            2.43900000000000       -1.77100000000000        4.50100000000000
H            2.28000000000000       -3.01900000000000        5.81600000000000
O            4.92600000000000        0.02100000000000       10.16700000000000
H            5.31300000000000        0.89400000000000       10.10500000000000
H            4.11500000000000       -0.17400000000000       10.47400000000000
C           10.87700000000000       -3.64700000000000        6.64000000000000
H           10.58400000000000       -4.14200000000000        5.68900000000000
H           11.57500000000000       -4.31200000000000        7.19200000000000
H           11.37700000000000       -2.68300000000000        6.40600000000000
N            8.82800000000000       -4.41400000000000        7.90200000000000
H            8.98500000000000       -5.38500000000000        7.72400000000000
C            9.65400000000000       -3.39500000000000        7.47000000000000
C            7.81400000000000       -3.90100000000000        8.57700000000000
H            7.01800000000000       -4.48600000000000        9.03600000000000
N            7.94400000000000       -2.58600000000000        8.58900000000000
C            9.08100000000000       -2.24300000000000        7.89300000000000
H            9.37400000000000       -1.20900000000000        7.76500000000000
78
 energy: -116.010617302167 gnorm: 0.138424745261 xtb: 6.7.1 (edcfbbe)
Fe           6.45211865306560       -1.37191334129585        9.41841457857219
N            5.39785397973999       -3.08955830564956        9.99854766646420
N            7.43577640746690       -1.40864036425785       11.26447744666720
N            7.46849571247118        0.41199749574245        8.93950471338167
N            5.38022848724135       -1.29582019157676        7.58586833880484
C            4.47050646073015       -3.70280943298306        9.19474819498241
C            4.00707347954766       -4.85443608524272        9.89484353305902
C            4.66495470287705       -4.91362914213466       11.08952614081382
C            5.54983953416815       -3.78531680709488       11.14177005746346
C            7.27120253908545       -2.36759789821570       12.21624136717641
C            8.13074783849872       -2.07713948094518       13.29818723046962
C            8.84788617312160       -0.90740841991367       12.97056463197234
C            8.37451967223397       -0.50091767162271       11.66084867653864
C            8.38737033285156        1.03747812031206        9.69845014331410
C            8.83213403972926        2.18978884896784        8.97861257910373
C            8.15162709296550        2.20816937065535        7.78099804766409
C            7.28711260794366        1.07242095937751        7.75552107583798
C            5.53730433575174       -0.34987918985610        6.64024405801440
C            4.65893806111265       -0.66138172636309        5.55219991597615
C            3.98201458186041       -1.81131029025415        5.90392768926874
C            4.45495054485211       -2.19768032793761        7.19562162231327
C            4.02830777684699       -3.31520178909745        7.92169988343312
H            3.27653924085579       -3.95067113753151        7.45630539811871
C            6.39990066568886       -3.46969169860080       12.17437159098306
H            6.38775467960210       -4.13897403465667       13.03366019449898
C            8.81857369065455        0.63008931274712       10.95469143510820
H            9.57471153792513        1.24999473596481       11.43589734226900
C            6.40831653473906        0.75623422061030        6.69217696131562
H            6.40819309743921        1.43006816686227        5.83534292590326
C            4.49285466278183       -5.96431048283346       12.14632534527901
H            4.04701511186276       -6.86056188675904       11.70219873811654
H            3.82929567613961       -5.59665165912299       12.94050153505164
H            5.46213928700925       -6.23231034764253       12.58256813448650
C            2.98109248149874       -5.83606884851976        9.41111290960652
H            3.47204903202260       -6.64519182117872        8.85408838719865
H            2.26336393358981       -5.33946335452396        8.74961191709997
H            2.44855417182634       -6.26602532602207       10.26529958488343
C            8.21788161843896       -2.88769697047564       14.49892277728262
H            9.10139364861780       -3.54095275738470       14.44072356798110
H            7.32593862591703       -3.51739434272233       14.60260643606635
H            8.30021112103837       -2.24044074963631       15.37757340467856
C            9.81721616848107       -0.19816293732611       13.74686981199728
H           10.21232227820974        0.73931807932272       13.34965876077483
C           10.26758732128975       -0.61336385824367       14.94727733156895
H           10.01900276614528       -1.59444468498604       15.32370468262676
H           10.88975267138960        0.02013044049245       15.56821842543686
C            9.83498700989198        3.14216510706956        9.43733381318454
H           10.55586453971927        2.63663719667038       10.09128610125648
H            9.35083389119782        3.94881999751396       10.00462309369717
H           10.36234138637911        3.56815000373653        8.57587954689970
C            8.26403909468453        3.18426969257249        6.74245799955748
H            8.41524661362488        2.84560140261357        5.71688308947983
C            8.17173907454218        4.49181799176955        7.00244370062198
H            7.99805669905859        4.84392630136654        8.01512799507209
H            8.24788950780233        5.22718494500779        6.21076441581801
C            4.50418919637134        0.09069714753731        4.32158004376506
H            5.48998710025304        0.28971090324394        3.88144357898391
H            4.01179067473368        1.05159834429104        4.52984172086026
H            3.90437217527983       -0.48138879793391        3.60493327566332
C            2.97402800684124       -2.50684325478740        5.12242769028838
H            3.45417859072562       -3.25492202970748        4.47456851951971
H            2.42601331422909       -1.79385043719335        4.49571505676763
H            2.27271112808721       -3.01967083020835        5.79097928832536
O            4.94689881937645        0.01768239869060       10.16779781349325
H            5.30261341102300        0.90276940037200       10.10869252963837
H            4.08456520710267       -0.16839936657602       10.48655134283309
C           10.87495013919424       -3.64986465646240        6.63991107616399
H           10.59456743690221       -4.13776586925140        5.69755097208951
H           11.57173666630038       -4.30287821306345        7.18024264404884
H           11.36992942095239       -2.70054353746756        6.41156302053423
N            8.84420595255540       -4.41943550060211        7.89388871918878
H            8.99813644322164       -5.39566712366598        7.71818703400066
C            9.65665492293946       -3.39948202728514        7.46077759487242
C            7.82054505660715       -3.88986459617462        8.57307052811931
H            7.03386847418870       -4.47068902879891        9.02750661396472
N            7.93033186916543       -2.57848746117618        8.59052914937518
C            9.06876016016147       -2.25132722138327        7.89978041927958
H            9.36434497956273       -1.22462326916532        7.77313642301340
78
 energy: -116.038499203984 gnorm: 0.032605477025 xtb: 6.7.1 (edcfbbe)
Fe           6.46243111734453       -1.37648462207648        9.42108113475827
N            5.39682017296853       -3.04161787598230        9.96800471615711
N            7.41750730866692       -1.40165807526220       11.21378611014659
N            7.43555505752866        0.34941704875999        8.92658704271198
N            5.42351843537976       -1.30327534435057        7.63831322364178
C            4.47478051067722       -3.68660443164073        9.19898793261596
C            3.99929272348004       -4.85898367256776        9.89726781063273
C            4.66233114061990       -4.91436849963501       11.08570922669679
C            5.54045628907471       -3.76135439385725       11.11565573807239
C            7.26952177940709       -2.34585163464805       12.18632995045374
C            8.14220278954867       -2.05890435538526       13.28495454706995
C            8.84551068265704       -0.92039361393461       12.96284642370951
C            8.36009644355243       -0.52043255069688       11.64805559948303
C            8.36206800707533        1.00302982343640        9.68370396584914
C            8.81821061211690        2.17531198526110        8.97542904285724
C            8.15010105161633        2.19670471937613        7.78169315697512
C            7.28374170741989        1.03984337484501        7.76120485347073
C            5.55687802927116       -0.36083419106295        6.66864456773574
C            4.66429796945279       -0.67116105344280        5.57242382410268
C            3.99575100972651       -1.80149267366625        5.91816704217467
C            4.48213514683414       -2.19184171435993        7.22058466298495
C            4.04807146041541       -3.30022016421947        7.93672978382701
H            3.30052293858018       -3.93132544851586        7.46678035723849
C            6.40333722309998       -3.44241301853798       12.15046496763140
H            6.39333428747291       -4.11379139348802       13.00282156674534
C            8.79640508636163        0.60025975169267       10.94643961844839
H            9.54681393058076        1.22484647816564       11.42211287438758
C            6.41635380901269        0.73067722881511        6.72095978522905
H            6.41099058420247        1.40662855853676        5.86963750350411
C            4.49998245538631       -5.95549426617981       12.14314754917583
H            4.05673928352607       -6.85191995095680       11.71565640252330
H            3.84351639302387       -5.59783869394829       12.93811554585021
H            5.45730211987672       -6.22454806482897       12.58381477499669
C            2.98113888615310       -5.83224317819900        9.40769438722979
H            3.46093359083459       -6.64028004857386        8.85287502637499
H            2.26252663799791       -5.34773701531778        8.75291044381821
H            2.44529783283874       -6.26518597387364       10.24837993267566
C            8.21557002635465       -2.89248694860852       14.50860191435472
H            9.09348765406475       -3.54064532698418       14.46375893269459
H            7.33366137989280       -3.51838988024199       14.60883392163641
H            8.28006527498840       -2.26061656335253       15.38917569924260
C            9.81244510790693       -0.20728416644472       13.75625503965251
H           10.17236769867372        0.73763795606255       13.35880350479610
C           10.28086188981440       -0.60384997230329       14.94004629720379
H           10.04252798919204       -1.56528673227465       15.34435012425877
H           10.91900629149405        0.01836194436177       15.54203635667323
C            9.84059553008646        3.14204268725822        9.44513967943537
H           10.56324125636412        2.64889474926856       10.09004153058964
H            9.36899248596353        3.94807238959838       10.00881132953965
H           10.35863698774055        3.57620456698984        8.59234134448094
C            8.25665808098458        3.19803477172639        6.73925221105177
H            8.40251346448312        2.84497558530009        5.72413624679461
C            8.17335546350399        4.49487857524479        6.99313852440247
H            8.00494423891113        4.85118201470545        7.99565890543624
H            8.25387369242887        5.23356417354041        6.21617139611656
C            4.51098561935523        0.10136495353227        4.31642460885356
H            5.48505785728066        0.30049939191431        3.87384378793198
H            4.01979103638581        1.05465220260060        4.51566359573353
H            3.91401522559619       -0.45968595589021        3.60293509264908
C            2.96733862745185       -2.51464390846222        5.12106192211413
H            3.43865439253572       -3.25762791193775        4.47486883937671
H            2.41925412247517       -1.81285897885004        4.49769818529258
H            2.26519629396061       -3.02259052229407        5.77619667661672
O            4.96412111490336        0.00646070048871       10.19809179246766
H            5.26557087214721        0.91381710507897       10.11650417838378
H            4.06677988980909       -0.14999562242960       10.48810614296049
C           10.87327958035803       -3.64846285620630        6.64000252073702
H           10.60421021895457       -4.13467546602005        5.70243688124814
H           11.56913776057162       -4.29496331226313        7.17365757068665
H           11.36633578308266       -2.70856794149057        6.41593702336514
N            8.85701008125440       -4.42402810120034        7.88726506020331
H            9.00991849135822       -5.40351517491157        7.71465266719988
C            9.65596101542354       -3.40017829648253        7.45343224848467
C            7.82607048075887       -3.88444952100829        8.56828935699256
H            7.04842128018427       -4.46396344229166        9.01979322196479
N            7.91759856598682       -2.57650365915800        8.59230587831251
C            9.05420608800836       -2.25825342953256        7.90443936338239
H            9.35480658552765       -1.23758312671283        7.77986933472669
78
 energy: -116.044933619788 gnorm: 0.032330365220 xtb: 6.7.1 (edcfbbe)
Fe           6.46140954384452       -1.37869742184253        9.41964870233654
N            5.39137580420048       -3.01786047850588        9.95467662757927
N            7.41601043016433       -1.41040014599020       11.18814210792172
N            7.43597993200954        0.30785866744840        8.91962408367414
N            5.44702847421951       -1.31412208657283        7.65949393972627
C            4.47116420376411       -3.67436790845038        9.20015713620714
C            3.99229984673369       -4.85165165159311        9.89564852728125
C            4.66028568924657       -4.90199859712387       11.08048859816905
C            5.53250381466389       -3.74319744400950       11.10088327682904
C            7.26607320832353       -2.34572670930720       12.16706563086311
C            8.13626716737021       -2.06424428116104       13.27844875718609
C            8.83678306933961       -0.92862291935683       12.95742782583623
C            8.35607122434183       -0.53663952866667       11.63597097787412
C            8.35747842674282        0.97385610468219        9.67685617106987
C            8.81151232885728        2.15821690463814        8.98173923626564
C            8.14612875101546        2.18453441073453        7.78818922747742
C            7.29086419565086        1.01464094447916        7.76645097969590
C            5.57350747034163       -0.37547289300373        6.68179529012387
C            4.67540795512061       -0.67411687260868        5.58336907084938
C            4.00430714860555       -1.80252763704202        5.92802603306788
C            4.49850790382605       -2.19273104396869        7.23180921194120
C            4.05360485978054       -3.29404749263645        7.93895248607997
H            3.31040887424573       -3.92002955174169        7.46408180464489
C            6.39949198835782       -3.42957235321738       12.13093605219240
H            6.39271572508130       -4.09985630234249       12.97852879158391
C            8.79015673362414        0.57701714584803       10.93705294814281
H            9.53060289891018        1.20597225805816       11.41260151797278
C            6.42743745573123        0.71073714612270        6.72990670194160
H            6.41479058033805        1.39002762664411        5.88656572196449
C            4.51243291630660       -5.93867890836092       12.14383179851925
H            4.07073061168668       -6.84115920907862       11.72681723157581
H            3.86059356940823       -5.58299256293764       12.94302039948558
H            5.47136385754974       -6.20262818680642       12.58324354116042
C            2.97703379949589       -5.82484501851051        9.39963248499804
H            3.45480784110495       -6.63257362846185        8.84268998662674
H            2.25601071482171       -5.34330665535933        8.74577673541987
H            2.43735200341368       -6.26407807574727       10.23521921130963
C            8.19722166221315       -2.90016788234668       14.51337388268657
H            9.08325711356175       -3.53755357549713       14.49273351373583
H            7.32256214257092       -3.53582069440804       14.60114655677877
H            8.23429223226773       -2.27247437404397       15.40028521330699
C            9.79914817165892       -0.20290587281937       13.75245554111294
H           10.11785425024982        0.75523788631756       13.35304615388892
C           10.30864310382055       -0.58306087205510       14.92612451520925
H           10.09832463078275       -1.53784590324006       15.36631591144361
H           10.98017229691458        0.04386680474689       15.48949590392525
C            9.83776550933547        3.13186042756672        9.45685014282073
H           10.57333423014904        2.64564199504675       10.09164102122621
H            9.37405732743537        3.93628299242203       10.02822062295882
H           10.34667803704279        3.57937234977382        8.60493922702610
C            8.24535740594296        3.19332109981897        6.74298209838012
H            8.37518666200923        2.83265763668549        5.72892653496038
C            8.18008623129806        4.49473974890247        6.98818374723702
H            8.01552381932489        4.86342421091447        7.98577004891225
H            8.26175379692100        5.23321722319240        6.21007981795317
C            4.52632897997534        0.11317783113422        4.32314421801336
H            5.49708427228251        0.31403472354508        3.87604534140138
H            4.03689971209868        1.06699360238386        4.51864928343917
H            3.92711632329461       -0.43874986344244        3.60436953757202
C            2.96600924731061       -2.52105342181890        5.12913554110881
H            3.43010870266756       -3.26568528606330        4.48126197863107
H            2.41563441977439       -1.82327287498171        4.50335586129697
H            2.25783826766347       -3.02794106755172        5.77766644815124
O            4.98958629587649       -0.00466177649566       10.30502229392768
H            5.20304373717411        0.93012192740434       10.10125532477273
H            4.03486031997919       -0.13304354634504       10.46576835414006
C           10.87396430452341       -3.64074057438385        6.63973816865761
H           10.61472773389535       -4.12892596354627        5.70058192984499
H           11.57041473882065       -4.28490011132219        7.17470103270485
H           11.36617209706119       -2.70061853152938        6.41906359912484
N            8.86359793790808       -4.42872369440281        7.88161172318641
H            9.02334447626416       -5.40821611847040        7.71182805813980
C            9.65258401334178       -3.39777945827577        7.44802968193002
C            7.82771568821383       -3.89280776836488        8.56228504693925
H            7.05640734939671       -4.47700446498519        9.01456628825225
N            7.90572699877731       -2.58473021475174        8.58807797600409
C            9.04056289996132       -2.26185837521559        7.90237223252542
H            9.34155184200156       -1.24212381774946        7.78213080107989
78
 energy: -116.047455701651 gnorm: 0.018132039012 xtb: 6.7.1 (edcfbbe)
Fe           6.45878606675942       -1.38474008718304        9.41953908119595
N            5.38389669723979       -3.00694709751668        9.94689074002645
N            7.42032618655905       -1.42518508581965       11.17473102570956
N            7.43877689349405        0.28268339440501        8.91796720280274
N            5.45058192346923       -1.31677081705480        7.67398828849020
C            4.46240902827837       -3.66688117244526        9.19885074234005
C            3.98334038506544       -4.84364168280284        9.89264398114521
C            4.65576511880641       -4.88979158182955       11.07514671574936
C            5.52443968530960       -3.73213914773197       11.09100190048484
C            7.26290760504698       -2.35310810021797       12.15685535237178
C            8.12567899801825       -2.07257500574578       13.27774151255382
C            8.82377746627372       -0.93369480642526       12.95621991509556
C            8.35340239677334       -0.55006494118995       11.62873422530696
C            8.35733080456036        0.95121630498210        9.67429753342797
C            8.80647338648772        2.14328231767673        8.99089880415527
C            8.14030126694002        2.17539829930022        7.79683858490502
C            7.29650143511938        0.99799585567249        7.77134114843020
C            5.58248911556810       -0.38590955401773        6.68970933672762
C            4.68695060697911       -0.67600816032049        5.58888990410430
C            4.01058038091033       -1.80491743700109        5.93285986672479
C            4.50424839747384       -2.19255635196623        7.23734047748792
C            4.04969366749386       -3.29204411949966        7.93570451567506
H            3.31230520958333       -3.91566165353883        7.45429032295416
C            6.39305501360616       -3.42714581273501       12.11750676450750
H            6.38611246547828       -4.09714108511778       12.96199146173034
C            8.78950871128158        0.55929280423192       10.93081190143670
H            9.52337542503346        1.19143580578333       11.40651823466629
C            6.43577718869813        0.69820962517620        6.73180051077567
H            6.42271761261743        1.37662928526714        5.89181297165718
C            4.52464626858888       -5.92054905501560       12.14665313022181
H            4.08467465634042       -6.82988573855274       11.74056030593322
H            3.87978154005165       -5.56223249457754       12.95111752034694
H            5.49086081711818       -6.17411104724833       12.57858532100855
C            2.97013410596553       -5.81684694947793        9.39013870797097
H            3.44987904086815       -6.62129876331855        8.82870145301195
H            2.24813900147290       -5.33360316877778        8.73699876307511
H            2.42874000481734       -6.26298276120548       10.22239731960119
C            8.18099160553014       -2.89856245102614       14.52167956618278
H            9.07677491480573       -3.52413183042001       14.52515230814301
H            7.31454084817001       -3.54865985586930       14.60104787416223
H            8.19715363915865       -2.26521843590578       15.40770424946472
C            9.78364355755707       -0.19647123683767       13.74374091043715
H           10.06583981872455        0.77252009657819       13.34215954704957
C           10.33894588650899       -0.56618204097610       14.90157985592203
H           10.14993745274571       -1.51456533363779       15.37306769700741
H           11.02755114730453        0.07680230581980       15.42993986029186
C            9.83133343776813        3.11877868038625        9.47077751290653
H           10.58113230258627        2.63328531808172       10.09191620971312
H            9.37166471541517        3.91580263744789       10.05744708815040
H           10.32859913274833        3.58206029256688        8.61829003173010
C            8.23212945382564        3.18341827455276        6.74942237500100
H            8.33961314991111        2.81639627843967        5.73416166798167
C            8.18718849513997        4.48969661995608        6.98316324003205
H            8.04308916817106        4.87478073116519        7.97871110652889
H            8.27098017934961        5.22186621203087        6.19746293158086
C            4.54627526180080        0.12277433856849        4.33201218867412
H            5.51835564778604        0.32419188912563        3.88567845669678
H            4.06088157389187        1.07941556891217        4.52886667687010
H            3.94510639947128       -0.41985680387049        3.60574943781019
C            2.96851695856154       -2.52546835435778        5.13651805642554
H            3.42798532382272       -3.27570339486488        4.49068369943030
H            2.41816996491986       -1.82988231772653        4.50606246789705
H            2.25445139049301       -3.02913487906894        5.78331424956089
O            4.97388233492666       -0.00348561928812       10.32423234946000
H            5.17696852335986        0.91804704884773       10.14551457199418
H            4.02219963474729       -0.12017165323199       10.46255121726671
C           10.87759159719400       -3.62857152384165        6.64121107056168