72
 energy: -105.979927502720 gnorm: 0.000089624810 xtb: 6.7.1 (edcfbbe)
Fe         -15.85979150846657      -23.21238683897850      -10.38240147284413
N          -15.82433740352486      -21.60745394962753      -11.56388592661935
N          -16.33372374578861      -24.36552948780024      -11.96629101327634
N          -15.96259362345050      -24.82983030507794       -9.18699118436480
N          -15.47342292476742      -22.06595798442220       -8.79890442024610
C          -15.57881150857697      -20.32624556626081      -11.19019514372411
C          -15.61898151432794      -19.44125223726664      -12.33408167781975
C          -15.89940615116215      -20.22178525297999      -13.41073005079207
C          -16.02996907426695      -21.57269287052490      -12.90806545320109
C          -16.47348913558417      -23.96047408584523      -13.26010095755410
C          -16.79852262213962      -25.07268206808427      -14.11244727730791
C          -16.85075585855716      -26.17728469252942      -13.30249249191682
C          -16.55905019917946      -25.70744314167506      -11.96427404454087
C          -16.19628157266206      -26.11715051642312       -9.56871203757549
C          -16.12763773725785      -27.00571313734401       -8.43781964958305
C          -15.84243089043478      -26.22307036530205       -7.35057567637944
C          -15.73123409739395      -24.86772427080495       -7.84996571345093
C          -15.35078752923972      -22.46927738874627       -7.50838092038200
C          -15.06766547368305      -21.34250708915080       -6.64459943598124
C          -15.01903321596217      -20.24905031393664       -7.44951035702728
C          -15.27684292390658      -20.72298378841685       -8.79252047604200
C          -15.31687752295236      -19.90226743156216       -9.90174914171767
H          -15.14110465023309      -18.84867100281917       -9.74990875090974
C          -16.32299336612544      -22.65913364981652      -13.70669676977188
H          -16.45030179604571      -22.47847147614271      -14.76257730298123
C          -16.48436187951972      -26.53005465509334      -10.85678369017902
H          -16.66026583610244      -27.58306173425230      -11.01015923294461
C          -15.46596266434627      -23.76872587071773       -7.05546956838228
H          -15.33450878463776      -23.93809485081792       -5.99831119549362
C          -16.06069977356466      -19.83822196080732      -14.84132907707830
H          -15.89717127551855      -18.77197270230262      -14.97557924479201
H          -17.06547548185652      -20.07720705031919      -15.19036666983315
H          -15.34827779576622      -20.37602460843835      -15.46763289634108
C          -15.38917473808463      -17.97113635596914      -12.26642792138622
H          -14.39866533038246      -17.75506008830010      -11.86519302817589
H          -16.12728237214226      -17.49957636509583      -11.61774421161383
H          -15.46438356941714      -17.52194499391702      -13.25355210418739
C          -17.08829263271107      -24.97938663259772      -15.56934261149284
H          -16.16478484272598      -24.97049151007341      -16.15070868017435
H          -17.63764987077996      -24.06681764911159      -15.79548519724133
H          -17.68455032647956      -25.83269950653044      -15.88594037146473
C          -17.15882901386058      -27.54861924579939      -13.64462459239709
H          -17.69037004754308      -28.11245267401642      -12.88675831605789
C          -16.83759305607052      -28.14717291489631      -14.78654042734847
H          -16.26932734175668      -27.65115623172883      -15.55390403275048
H          -17.11127559683762      -29.17060302871745      -14.98172667336827
C          -16.27261263439184      -28.48551167922016       -8.50173661668193
H          -15.80271842359747      -28.87960349646393       -9.40150261046880
H          -17.32492491815068      -28.77483262934125       -8.51485389038203
H          -15.80182817695635      -28.94285042662440       -7.63414532412220
C          -15.64721373803904      -26.61025430962521       -5.97044688797081
H          -14.91404947293693      -26.03095541458755       -5.42188266255856
C          -16.29144890797876      -27.59222524077315       -5.34908270334207
H          -17.06141002416489      -28.16858448350628       -5.83183863120796
H          -16.08653653320032      -27.83739302878580       -4.32031368459191
C          -14.87760453105926      -21.44172621926331       -5.17058067538663
H          -14.03077079622816      -22.08728903685353       -4.93673721955709
H          -15.76490917679757      -21.86243218652219       -4.69729798674525
H          -14.69073342967074      -20.46191968544950       -4.73834471710245
C          -14.76467240723021      -18.82423234971130       -7.09680015674829
H          -14.60132252396906      -18.71416227014909       -6.02774734263987
H          -15.61448402921735      -18.20321863282461       -7.38031643727765
H          -13.88331300821988      -18.45061662342317       -7.61870293822778
O          -18.06710285477872      -22.99577123135654      -10.04044667094494
H          -18.41186657765410      -23.52636791112893      -10.76803602091230
H          -18.18194333528766      -23.51131020077726       -9.23383383531598
C          -12.73568143549690      -22.26708680133833      -11.48642227000031
H          -11.73598093173124      -22.57150877849626      -11.78105933546229
H          -12.68528054082100      -21.47724410255236      -10.74414180028508
H          -13.31209777116521      -21.93148442051661      -12.34110575153534
S          -13.57615838153304      -23.67819754279040      -10.68413831666382
H          -13.64938716394269      -24.42370175687474      -11.79302842514796
