78
 energy: -115.983684649796 gnorm: 0.215083728849 xtb: 6.7.1 (edcfbbe)
Fe           9.38900000000000       17.03700000000000       25.92500000000000
N           11.39200000000000       17.52000000000000       25.96900000000000
N            8.97500000000000       18.93600000000000       25.55400000000000
N            7.53900000000000       16.49200000000000       25.56200000000000
N            9.94100000000000       15.07300000000000       26.05400000000000
C           12.45500000000000       16.67000000000000       26.21200000000000
C           13.65500000000000       17.45400000000000       26.46100000000000
C           13.31900000000000       18.74400000000000       26.37000000000000
C           11.90000000000000       18.80500000000000       26.06100000000000
C            9.82000000000000       20.02700000000000       25.65100000000000
C            9.06600000000000       21.25100000000000       25.42700000000000
C            7.79800000000000       20.90300000000000       25.20100000000000
C            7.72300000000000       19.45100000000000       25.27800000000000
C            6.48300000000000       17.33700000000000       25.27400000000000
C            5.25500000000000       16.56200000000000       25.17500000000000
C            5.56800000000000       15.28200000000000       25.39800000000000
C            7.00000000000000       15.22000000000000       25.64300000000000
C            9.07300000000000       13.99600000000000       26.09000000000000
C            9.81900000000000       12.77600000000000       26.35600000000000
C           11.10400000000000       13.11300000000000       26.47700000000000
C           11.19900000000000       14.55400000000000       26.29000000000000
C           12.36200000000000       15.28900000000000       26.34800000000000
H           13.29000000000000       14.74100000000000       26.51500000000000
C           11.16900000000000       19.96300000000000       25.91900000000000
H           11.70200000000000       20.90700000000000       26.02800000000000
C            6.58000000000000       18.70200000000000       25.10300000000000
H            5.67600000000000       19.23300000000000       24.80400000000000
C            7.71200000000000       14.07000000000000       25.91100000000000
H            7.14800000000000       13.14100000000000       25.98700000000000
C           14.26000000000000       19.91800000000000       26.55800000000000
H           15.28600000000000       19.62400000000000       26.24900000000000
H           14.27800000000000       20.21700000000000       27.62800000000000
H           13.92500000000000       20.77100000000000       25.93000000000000
C           15.03900000000000       16.92200000000000       26.76900000000000
H           15.66000000000000       16.94700000000000       25.84800000000000
H           14.96700000000000       15.87200000000000       27.12600000000000
H           15.52000000000000       17.55500000000000       27.54500000000000
C            9.60200000000000       22.67000000000000       25.44300000000000
H           10.66400000000000       22.66900000000000       25.11600000000000
H            9.54300000000000       23.08200000000000       26.47300000000000
H            9.01100000000000       23.30200000000000       24.74600000000000
C            6.65800000000000       21.86200000000000       24.91900000000000
H            6.57800000000000       22.81800000000000       25.45800000000000
C            5.73500000000000       21.55700000000000       24.01100000000000
H            5.78900000000000       20.60800000000000       23.45700000000000
H            4.90600000000000       22.25000000000000       23.80300000000000
C            3.86900000000000       17.09200000000000       24.87500000000000
H            3.94800000000000       17.99400000000000       24.23200000000000
H            3.36000000000000       17.36900000000000       25.82300000000000
H            3.27900000000000       16.31800000000000       24.33900000000000
C            4.59500000000000       14.12100000000000       25.39300000000000
H            3.77700000000000       14.06900000000000       26.12600000000000
C            4.71600000000000       13.14200000000000       24.49700000000000
H            5.52400000000000       13.16500000000000       23.75000000000000
H            4.01000000000000       12.29900000000000       24.49299999999999
C            9.25900000000000       11.37200000000000       26.47700000000000
H            8.35400000000000       11.27700000000000       25.83900000000000
H            8.97800000000000       11.17000000000000       27.53300000000000
H           10.01800000000000       10.63500000000000       26.13800000000000
C           12.24300000000000       12.15400000000000       26.75900000000000
H           12.53600000000000       11.64000000000000       25.81900000000000
H           11.91800000000000       11.39200000000000       27.50000000000000
H           13.11800000000000       12.71500000000000       27.15100000000000
O            9.48100000000000       17.19000000000000       22.93000000000000
H            8.72300000000000       16.69600000000000       22.61700000000000
H           10.08300000000000       17.60500000000000       22.42500000000000
C            7.84600000000000       18.85500000000000       31.22800000000000
H            8.60800000000000       18.77400000000000       32.03300000000000
H            6.87200000000000       18.48800000000000       31.61600000000000
H            7.75600000000000       19.91900000000000       30.92300000000000
N            8.47300000000000       16.65000000000000       30.13600000000000
H            8.33700000000000       16.10600000000000       30.96400000000000
C            8.27200000000000       18.01900000000000       30.04500000000000
C            8.86700000000000       16.20000000000000       28.96200000000000
H            9.11600000000000       15.16000000000000       28.75300000000000
N            8.90200000000000       17.20500000000000       28.11800000000000
C            8.56200000000000       18.35400000000000       28.76000000000000
H            8.55600000000000       19.30800000000000       28.24800000000000
78
 energy: -116.021034655150 gnorm: 0.080818853241 xtb: 6.7.1 (edcfbbe)
Fe           9.40580727710690       17.02760932448774       25.83856560737679
N           11.39196636843995       17.52556858194759       26.01357924924043
N            8.96185766209200       18.94885049194736       25.56519359949139
N            7.52634426688916       16.48610693604097       25.56174057425580
N            9.93662588485635       15.06565457888539       26.06471457469971
C           12.44627755408695       16.67755059977612       26.23644604366777
C           13.65716062852440       17.44456056891623       26.45872533058949
C           13.31863414185410       18.75114252785728       26.36511148067855
C           11.89896626961983       18.80004410944687       26.07766368239143
C            9.80758715011263       20.02816329318557       25.65603881167517
C            9.06744395616455       21.25592320057238       25.43574955591405
C            7.77862324119666       20.90487033306210       25.20000649209737
C            7.71986129125965       19.45370594454353       25.27673925867231
C            6.47943733919961       17.32587700957680       25.27722539723421
C            5.24861852034426       16.56616775338639       25.17675207691973
C            5.56413379699575       15.26926651804629       25.40965425675021
C            6.99468936668360       15.22262076480598       25.64588282875771
C            9.07580219854027       13.99668095844845       26.09780747640692
C            9.81154598181574       12.77411969092439       26.35309704854405
C           11.11325322390559       13.11778359703121       26.47640554473531
C           11.19113722393474       14.55574210552128       26.28759688900945
C           12.35500414294593       15.29730766651947       26.34522064288593
H           13.27852666519893       14.75260050213749       26.51260985168557
C           11.16430513811152       19.95967002849516       25.91992074303173
H           11.69714289674193       20.89891318488711       26.02141682240112
C            6.57724903186559       18.69449504157505       25.11162223667536
H            5.66988456428616       19.22048703608601       24.84621207534812
C            7.70966656295914       14.07100072833293       25.91438860347011
H            7.14659972537191       13.14659486111672       25.98098480476528
C           14.24838765329014       19.91556760374104       26.55068381452821
H           15.26378623071372       19.63457294750551       26.25250025827231
H           14.27452950650707       20.21958259514203       27.60408006624249
H           13.93185228165866       20.76747812840013       25.94364665370717
C           15.02807213687381       16.91500041473878       26.76299498314449
H           15.65290898827993       16.93919414032452       25.86217810265625
H           14.97847010691143       15.88492786929636       27.12374794482431
H           15.50935025074351       17.53393542649671       27.52775189423019
C            9.60990214006863       22.65642061711763       25.44474037483827
H           10.65474711740249       22.67451705697092       25.12230134523625
H            9.54952232220496       23.07905601654913       26.45453294816522
H            9.02647669439719       23.28749453563183       24.76656388325924
C            6.65801524147858       21.83090357102505       24.91667265671001
H            6.61115204593250       22.77745758166941       25.45586491482992
C            5.73166021252438       21.55860555537785       24.00645255505096
H            5.78003087854617       20.64709804608311       23.42569673930623
H            4.91514876118009       22.24231043655680       23.80355858362946
C            3.87988152490832       17.09874918301018       24.87345210832437
H            3.93825377972180       17.98744190339386       24.23906973185039
H            3.36493380982326       17.36893434708723       25.80261847736703
H            3.28961935200943       16.33564297693803       24.35543461539195
C            4.62386577597276       14.11960697597326       25.39172624451627
H            3.80719672983224       14.09909746606671       26.11353539617888
C            4.72668657299616       13.14178757194051       24.50262575828657
H            5.51115364444696       13.15305072475577       23.75549738564495
H            4.02536380836226       12.31387385452457       24.48669754838026
C            9.25148380429192       11.38561817805150       26.47031279998795
H            8.35949098953923       11.27255185672291       25.84815213356955
H            8.97920060016638       11.16940949799438       27.51055708612181
H            9.99633637234662       10.65183404253265       26.14637483027521
C           12.24362446669555       12.16928915386488       26.75485153448736
H           12.53828163646271       11.65047750694639       25.83480351035624
H           11.93119166578936       11.41383817547634       27.48422175175541
H           13.11331922787000       12.70064055984609       27.14794899555775
O            9.46865150932764       17.17162784815480       22.99408874016687
H            8.72359770224082       16.69970532793023       22.62902086175236
H           10.08936123352178       17.61131122860305       22.43913156720277
C            7.85107966573860       18.84414343902728       31.22073543760789
H            8.59375144961454       18.77615316596140       32.02415653408958
H            6.88822275611582       18.49731599379609       31.61147614843744
H            7.75656289497097       19.89131377370770       30.92467007692186
N            8.47278374089231       16.66196792260675       30.13930790578542
H            8.33462139798501       16.11356993958248       30.97177315923793
C            8.27491731895490       18.01970974002878       30.04592438108943
C            8.86930275650990       16.21258029112317       28.93976651884564
H            9.10892510709831       15.18228921807146       28.73710091384289
N            8.93666125236042       17.20441882310586       28.07853508639955
C            8.56812165154406       18.33711357888037       28.74921674286542
H            8.55439116207333       19.28773525410739       28.25017673970064
78
 energy: -116.033222242932 gnorm: 0.025097207042 xtb: 6.7.1 (edcfbbe)
Fe           9.42352000812655       17.02215253545116       25.79025961492480
N           11.38747381495892       17.53035918548165       26.03198001675651
N            8.95603034354871       18.95306426793736       25.55281252231689
N            7.52405931158119       16.48156635571451       25.54504849417864
N            9.93386804787683       15.06041523601853       26.04419684819015
C           12.43213784834323       16.68595339465759       26.25750380212447
C           13.65134283817406       17.43937119164312       26.46003895215496
C           13.31231165021595       18.75547189961663       26.36218977960037
C           11.89131050373453       18.79504102543802       26.09406935036483
C            9.79573822341568       20.02453537901513       25.65845958875826
C            9.06749859998362       21.25345969269321       25.44418709845187
C            7.76816208390549       20.90019609735008       25.19299537405304
C            7.72089453988971       19.45133858333093       25.27134674693052
C            6.48107459746222       17.31760051486155       25.27809030240921
C            5.24806630603135       16.57157534789286       25.18108443776992
C            5.56702852127670       15.26439792031162       25.41293510652434
C            6.99683359586642       15.22732080349834       25.63647064378560
C            9.07898016878533       13.99916542044627       26.09064961289959
C            9.80581438691610       12.77671554028678       26.34672848539245
C           11.11733247534224       13.12528328851607       26.46986381991900
C           11.18093441575793       14.55930462915376       26.27797449223425
C           12.34401715579287       15.30643761211593       26.34670402556049
H           13.26476936886619       14.76430365868031       26.51153580622882
C           11.15531235921396       19.95535996398386       25.92617795500932
H           11.68888274929145       20.89149299274474       26.01433040270001
C            6.57362640592126       18.69029768314187       25.12900590086677
H            5.65798299378703       19.21637868858534       24.90651363366134
C            7.70886956916763       14.07304499055908       25.90954019163964
H            7.14353134585233       13.15381827935001       25.97484498328673
C           14.23392216937325       19.91504634776918       26.54118619422076
H           15.24408629986596       19.63994734266726       26.24858955992454
H           14.26164874724278       20.22222513462328       27.58690366951522
H           13.92485969856285       20.76730083455848       25.94571032503142
C           15.01435463640369       16.90765253794271       26.75635551981748
H           15.64011024122076       16.93063453803052       25.86418286749737
H           14.97653711874095       15.88660493764417       27.11798770529608
H           15.49707045978872       17.51946132987261       27.51544502691397
C            9.61499526322278       22.64167290126948       25.45164178735167
H           10.65112187960391       22.66517983143389       25.13054001016325
H            9.55844761225442       23.07110288588080       26.45195878986589
H            9.03619790387461       23.27368838067059       24.78271437620044
C            6.66724460916390       21.80044939339572       24.90616904793317
H            6.64381340724934       22.73057228539751       25.46419573718619
C            5.73172652611665       21.56414360337538       23.99289861445845
H            5.76062413109966       20.67549718909633       23.39001389655226
H            4.92131566793170       22.24647643807698       23.80820050117203
C            3.88963717551933       17.10546119168749       24.87688470132409
H            3.93907672690874       17.98628221499200       24.24510406485457
H            3.37089393947707       17.37560009518641       25.79614391743909
H            3.29907054970086       16.34668750215179       24.36879204631576
C            4.65039338141779       14.12725168502428       25.38521947765403
H            3.84047539499797       14.13295028132871       26.10746040789291
C            4.73800962206794       13.14236143266955       24.50468554685458
H            5.51509104823335       13.13186209577963       23.76166399854542
H            4.04049401280098       12.32251778513918       24.48800719708963
C            9.24338372405527       11.39969203120892       26.46355302874659
H            8.35736778589507       11.27985931867310       25.84932088598503
H            8.97388076447914       11.17750672411874       27.49644187839567
H            9.98164630231171       10.66730802800722       26.14715718633536
C           12.24477552824740       12.18725654938255       26.74830335291674
H           12.54196281851888       11.66624594181856       25.83802631755022
H           11.93757491859859       11.43588925753657       27.47291084928811
H           13.11176272706357       12.70503351891122       27.14198586443511
O            9.48279807586933       17.11955780317387       23.11622533829749
H            8.72433124398510       16.72129022286642       22.67408692372650
H           10.06631271400503       17.61582215868362       22.53216390480136
C            7.85706692845704       18.83512564267203       31.20589549541094
H            8.58966408251501       18.76964827494178       32.00886447661548
H            6.89997348948000       18.49376298979579       31.59580561461647
H            7.75947494816318       19.87430036117198       30.91483113084448
N            8.47863319886197       16.66562241010643       30.13211120568125
H            8.33905772299804       16.11232853758021       30.96379087936825
C            8.28300916997261       18.01801369236209       30.03898119669289
C            8.87826678016515       16.22140088414289       28.91874508128832
H            9.10771194357295       15.19654179446257       28.71521748797871
N            8.95288785470682       17.20373460166547       28.05242574886679
C            8.58181742888714       18.32745978602497       28.73982762546738
H            8.55701739726751       19.27854709654869       28.25113555092697
78
 energy: -116.037977259228 gnorm: 0.050539647149 xtb: 6.7.1 (edcfbbe)
Fe           9.43277686052484       17.01855739379853       25.76356170590209
N           11.37747182163726       17.53290282969155       26.04567570217119
N            8.95488099612578       18.95130686995393       25.54282150417076
N            7.52553465981808       16.48033625706815       25.52703725160113
N            9.93181725592680       15.06085778274526       26.02599196441251
C           12.42056958574971       16.69030206391670       26.26664930630075
C           13.64185681126090       17.43859983846042       26.46347309859051
C           13.30359798672241       18.75689237375088       26.36234054790555
C           11.88280710572992       18.79357849769696       26.10091939380536
C            9.79000818732897       20.02075665398726       25.65724207801999
C            9.06591166276817       21.24806092969922       25.44859354669279
C            7.76487170570662       20.89254378190622       25.18622677846469
C            7.72250415603643       19.44615125833078       25.26441675586748
C            6.48200844308800       17.31614066096691       25.27860427902889
C            5.24890751845110       16.57590926668589       25.18691352368768
C            5.57232256016271       15.26502188548054       25.40773156964759
C            7.00202201050460       15.22998790078626       25.61879774826258
C            9.08026872324149       14.00147780727311       26.07329795612976
C            9.80326259399109       12.78098414817150       26.33688103659996
C           11.11719469346007       13.13171101326814       26.45959548108699
C           11.17520761944603       14.56261233430344       26.26361740571439
C           12.33685721908075       15.31140174486008       26.34313129089873
H           13.25642022641870       14.77137054395067       26.51098107231710
C           11.14925572034927       19.95402641574604       25.92733839439509
H           11.68202477109813       20.88934246438619       26.01151385558440
C            6.56874323188022       18.69065309743551       25.14516171206221
H            5.64364639031964       19.22152603167732       24.96923046063446
C            7.70933984540637       14.07349734054851       25.89363651556601
H            7.14027234903650       13.15824153545679       25.96547474175114
C           14.22037052317886       19.91835832902358       26.53301889618894
H           15.23039841558836       19.64506910674653       26.24059753679177
H           14.24750037491737       20.23010799917369       27.57744877162665
H           13.90956789970630       20.76989888797701       25.93746174319513
C           15.00256488582362       16.90121144668283       26.75054734180655
H           15.62480583037219       16.92305804622284       25.85613968592606
H           14.96632308694798       15.87970673681097       27.11099911199951
H           15.49065608164469       17.50985955874639       27.50838983098226
C            9.61832937840412       22.63152814611803       25.46027072336579
H           10.65377541481617       22.65212513130637       25.13704541937331
H            9.56818343017996       23.06024813791086       26.46127291516279
H            9.04048602348670       23.26813890413709       24.79554714044232
C            6.66753106227601       21.78335343464571       24.90007404425763
H            6.65904982327613       22.70548437480899       25.47037499317404
C            5.72474810246849       21.57149088065273       23.98666941484281
H            5.74802397030740       20.70418810720555       23.34876538470904
H            4.92410918640062       22.26690089151331       23.81276794820767
C            3.89350940077903       17.11239937323820       24.88436706331450
H            3.94278615111170       17.99078364012572       24.24936637093008
H            3.37474291412510       17.38748957621594       25.80210004694041
H            3.30094622925672       16.35291450495064       24.38044183003241
C            4.66538798031742       14.12995275692449       25.37995073087399
H            3.85294632746041       14.15550795791051       26.09844729954274
C            4.75241186704529       13.13314872815156       24.51274936739752
H            5.52686195488685       13.11070009756160       23.76676907784762
H            4.04715932984573       12.32158407152717       24.49387585087134
C            9.23526989672736       11.40921118380719       26.45602934326498
H            8.34876539862659       11.29053407656723       25.84258112753808
H            8.96384912178271       11.18844604879990       27.48859759677421
H            9.97112018450867       10.67383701987442       26.14227135371506
C           12.24772107355919       12.20183509352111       26.74029060829534
H           12.54898782338084       11.68135576172854       25.83130905841228
H           11.94276703690573       11.45061391082824       27.46537743532306
H           13.11335940501728       12.72112388154275       27.13491658088728
O            9.53982059095879       17.00988971012534       23.26745164106667
H            8.71145317973420       16.76371851425102       22.78093175795739
H           10.02502055479889       17.63892711764352       22.67100450221488
C            7.86592701702887       18.82594538833395       31.18665816823469
H            8.59464105170072       18.76113568185909       31.99303484681811
H            6.90863839996895       18.48201136664193       31.57362966381380
H            7.76523724430005       19.86478521395498       30.89708774837386
N            8.49075437769574       16.66039801934226       30.11211576364348
H            8.35032175251053       16.10347294691978       30.94120652906700
C            8.29603996106583       18.01286994450805       30.02109716884682
C            8.89089633644132       16.22181738048231       28.89356844526186
H            9.11219523694283       15.19706461213048       28.68489207500769
N            8.96844155639780       17.20414146917240       28.03181144875897
C            8.59678667998187       18.32417498316067       28.72331735697658
H            8.56544776407669       19.27873112650627       28.24250456267174
78
 energy: -116.040857592455 gnorm: 0.030279232640 xtb: 6.7.1 (edcfbbe)
Fe           9.43947887811244       17.01583801514694       25.75200730894707
N           11.36485786823015       17.53452546417281       26.05618655683941
N            8.95548271704588       18.94649648876644       25.53286649078824
N            7.52881027485028       16.48127857859239       25.50978739691519
N            9.92953162926622       15.06399321828779       26.00853126179727
C           12.40869676150405       16.69365338225717       26.27398011005904
C           13.63042136637337       17.43973822547525       26.46838081669025
C           13.29347103072605       18.75730676416934       26.36401362303360
C           11.87299136219844       18.79320930673826       26.10633042115000
C            9.78592381223214       20.01667288980295       25.65595210493442
C            9.06358148985509       21.24137083812424       25.45177786938847
C            7.76455653749715       20.88361127856575       25.17864841632159
C            7.72406014674599       19.43998087443902       25.25729298015588
C            6.48249004936892       17.31781535889588       25.27981977153287
C            5.25027949743763       16.58023174010545       25.19367560978916
C            5.57890509491535       15.26804733172964       25.39804854475458
C            7.00859483993070       15.23261358786883       25.59785795949020
C            9.08050652262255       14.00439102462712       26.05324969958270
C            9.80176942170466       12.78614758431222       26.32535082600809
C           11.11515903303371       13.13810580808561       26.44796912220832
C           11.17019095904323       14.56656261136388       26.24905253358152
C           12.32986603314307       15.31563916978564       26.34077211047129
H           13.24908388868317       14.77751182455955       26.51131153178915
C           11.14344590326368       19.95361546255011       25.92920113974621
H           11.67501867572981       20.88892187173963       26.01122394749475
C            6.56282115786003       18.69345279625511       25.16202285300123
H            5.63104453469733       19.23067429030885       25.02912596965437
C            7.71009028189119       14.07395477094976       25.87419989732881
H            7.13672989153818       13.16220256524306       25.95298004064912
C           14.20593796529040       19.92342227223564       26.52554331295092
H           15.21750789326003       19.65150200962822       26.23180448175921
H           14.23179962266942       20.24108920432243       27.57014344180176
H           13.89009913120513       20.77318308473535       25.92577820327956
C           14.99050132293120       16.89500974210569       26.74569221640941
H           15.60752598947931       16.91483053737226       25.84559648874124
H           14.95240839779844       15.87044366790963       27.10464908618206
H           15.48606580214948       17.50118249659692       27.50311949351191
C            9.62143852261355       22.62236850942780       25.46966755243577
H           10.65844718632310       22.63729090634583       25.14288215030325
H            9.57919992864481       23.04748086012883       26.47455637266993
H            9.04398484080571       23.26547725495605       24.80829083038573
C            6.66718265069675       21.77154471300156       24.89079506380254
H            6.66660741756216       22.68489925157822       25.47609446377712
C            5.72088686305743       21.58142655451570       23.97544025793976
H            5.73097333604510       20.72636369904484       23.31498092291130
H            4.92537351378398       22.28964186123205       23.81790454461797
C            3.89572495282726       17.11996503603513       24.89293497000258
H            3.94802811822853       17.99692018844278       24.25219900972342
H            3.37808213235402       17.40276189229736       25.81109011647295
H            3.30022924807366       16.35852879836749       24.39190815977203
C            4.67590244443770       14.13247464571007       25.37161547059914
H            3.85939362740457       14.17519789090294       26.08589939795782
C            4.76681654739501       13.12251922780007       24.51906497252656
H            5.54607417124199       13.08555529520539       23.77472779022802
H            4.05563448475113       12.31487472118657       24.50374735870668
C            9.22663969353518       11.41777566627718       26.44775356342601
H            8.33785949783310       11.30311561313419       25.83276898693344
H            8.95139432275726       11.20105638783528       27.48196728206689
H            9.96058510467108       10.67747727138509       26.13551686343258
C           12.25131463042911       12.21630822110750       26.73208004551389
H           12.55847321513929       11.69776888346575       25.82209935272241
H           11.94850379108794       11.46363004991013       27.45883341595774
H           13.11521680461541       12.74232500945611       27.12840698897584
O            9.48911169342070       17.08338939465790       23.42396675433572
H            8.76854582611031       16.71370510923862       22.93526652135825
H           10.03907071126549       17.56020703527703       22.80159464373801
C            7.87483158122787       18.81640622632040       31.16473804291866