78
 energy: -116.056983756038 gnorm: 0.000101858223 xtb: 6.7.1 (edcfbbe)
Fe           9.37675424305967       17.02577122448719       25.87453043534801
N           11.26894794643906       17.55506344584559       26.19062036876935
N            8.87821014464641       18.95265037924088       25.58796877035623
N            7.46972084728161       16.48565602218387       25.49512507448767
N            9.86598367561341       15.10405841173461       26.09698033342135
C           12.30886095817178       16.73092833813562       26.47170022067949
C           13.53270935024678       17.48689905369626       26.64005773563884
C           13.20298844095377       18.79160771685889       26.45513214897205
C           11.78174127759276       18.81392316254440       26.17751530094804
C            9.70827789732058       20.02711405301299       25.67913613432836
C            8.98778417065343       21.24996950274376       25.44666074052706
C            7.69095612798349       20.89371247509896       25.18860574796740
C            7.64296649332967       19.45005616069372       25.30858622987590
C            6.41159502835470       17.32524887645537       25.31145814312881
C            5.19176137927160       16.57993269822530       25.16130124767384
C            5.53542186999910       15.25454624038116       25.22121724193356
C            6.96285990561707       15.22384790502129       25.46313091271259
C            9.03452551523731       14.03029911881425       26.01988279805145
C            9.75313684354834       12.80530869784167       26.29679980537445
C           11.04040724744140       13.16715611468560       26.54202753954930
C           11.08890526075673       14.60756266522894       26.41530312784151
C           12.23635299768265       15.35652687285897       26.58963483295273
H           13.14577136217098       14.82708926930144       26.82934813696674
C           11.06581275232623       19.97156261276074       25.94882573073357
H           11.60238391871927       20.90758569480855       25.98396559282026
C            6.48279801073871       18.70506172056329       25.22901793017185
H            5.55712011902238       19.24282826098930       25.09797070214653
C            7.68455875597231       14.07270046440393       25.72580367476700
H            7.14310325743298       13.13978536923844       25.72943619949098
C           14.06858342073803       20.00377271459543       26.50751682841924
H           15.09938983337336       19.73364874053197       26.72298394082983
H           13.72480245721187       20.68920330262457       27.28288349904514
H           14.04462545238717       20.53223558838317       25.55435967763948
C           14.85859437101408       16.88144782614331       26.94980512967996
H           15.14878772741297       16.17844073002865       26.16894556023978
H           14.82153806044751       16.34019755851215       27.89556576556731
H           15.62663376979389       17.64751206509129       27.02350322236156
C            9.59249734044492       22.61138421914384       25.44125506652303
H           10.33243631556322       22.69956393946572       24.64499234236623
H           10.09256159415416       22.81389484722846       26.38882871515151
H            8.82920560461018       23.36869682240498       25.28116547591742
C            6.59764352398300       21.78163775068939       24.85070551515068
H            6.59445856927687       22.73109458860915       25.37567428968613
C            5.65595044384369       21.54557986029278       23.94423504860596
H            5.64149803879716       20.64473030960239       23.35439739177574
H            4.87583426996416       22.26083857322000       23.74249864366564
C            3.84903361597184       17.17730681988822       24.91886661898454
H            3.81849310707646       17.67504795587002       23.94876517385610
H            3.61490241071670       17.91852536576199       25.68308217753730
H            3.08011042675173       16.40874541774632       24.92900987957927
C            4.64740240782443       14.12077922351826       25.06680874000881
H            3.66017720353034       14.24501706587687       25.49959291588878
C            4.92730015682933       12.99660573390967       24.41710277659352
H            5.87015135340108       12.84145197001862       23.92063282499543
H            4.20900633575940       12.19744964712021       24.33851072456947
C            9.13636331743476       11.44839775591308       26.28680446764968
H            8.72666652420343       11.22065720675876       25.30249268183358
H            8.32339322710712       11.38896410357683       27.01108834769087
H            9.87228091588414       10.68756223279061       26.53477331950225
C           12.21477639829470       12.31263289029907       26.87551272678496
H           12.99328065072022       12.42254628280745       26.12043705592292
H           11.93019115296251       11.26432615324194       26.92349429578683
H           12.63615630526788       12.59906878220282       27.83936930163921
O            9.69353659722469       16.87428764406419       23.60727108592922
H            9.06603681846455       16.17317884624528       23.40131024637599
H            9.29492251064476       17.70403730241208       23.32329882570239
C            8.92873638169750       18.69288588097470       31.17546064234030
H            9.40683708752439       18.09128322588507       31.94842229392551
H            7.94030069207558       18.98262889791518       31.53185711156691
H            9.51874035234160       19.59028122419049       31.01827595794093
N            8.14182610292600       16.75323932578869       29.80080200826423
H            7.64982570905869       16.29162574522639       30.54806326497217
C            8.82905892580130       17.93429115641257       29.90291479794689
C            8.24533715644036       16.32800942041829       28.52150978863640
H            7.80311752317872       15.42604534094485       28.15145480611888
N            8.95592204568893       17.16753166905442       27.80806303063760
C            9.32638338906104       18.17167458518720       28.65363361096469
H            9.92127660765493       18.99158316357452       28.30825952961172
