87
 energy: -128.196415003219 gnorm: 0.323779058471 xtb: 6.7.1 (edcfbbe)
Fe          14.54100000000000       51.26200000000000       43.10800000000000
N           13.83900000000000       50.92599999999999       41.19899999999999
N           15.00300000000000       49.37300000000000       43.19400000000000
N           15.28600000000000       51.58599999999999       45.01800000000000
N           14.04800000000000       53.22200000000000       42.99700000000000
C           13.52300000000000       51.95500000000000       40.37300000000000
C           13.25900000000000       51.37700000000000       39.10099999999999
C           13.43800000000000       50.01799999999999       39.20500000000000
C           13.83900000000000       49.75000000000000       40.53899999999999
C           14.78800000000000       48.38300000000000       42.26400000000000
C           15.32400000000000       47.09700000000000       42.74999999999999
C           15.91000000000000       47.31000000000000       43.92000000000000
C           15.75000000000000       48.76300000000000       44.18000000000000
C           16.00800000000000       50.71900000000000       45.71200000000000
C           16.41400000000000       51.34300000000000       46.92900000000000
C           15.80000000000000       52.58000000000000       46.89100000000000
C           15.08000000000000       52.74699999999999       45.69100000000000
C           14.04000000000000       54.16300000000000       44.02900000000000
C           13.60000000000000       55.44400000000000       43.49100000000000
C           13.33400000000000       55.23799999999999       42.19100000000000
C           13.59300000000000       53.87100000000000       41.87100000000000
C           13.38800000000000       53.32599999999999       40.59200000000000
H           13.12100000000000       53.98099999999999       39.76300000000000
C           14.13400000000000       48.49100000000000       41.04500000000000
H           13.85500000000000       47.59700000000000       40.49000000000000
C           16.24400000000000       49.40200000000000       45.34300000000000
H           16.86700000000000       48.80500000000000       46.00899999999999
C           14.46700000000000       53.91000000000000       45.32300000000000
H           14.30600000000000       54.67499999999999       46.08200000000000
C           12.89100000000000       52.17600000000000       37.88900000000000
H           13.75900000000000       52.86899999999999       37.93500000000000
H           12.00700000000000       52.67600000000000       38.33900000000000
H           12.68600000000000       51.92600000000000       36.82599999999999
C           13.27800000000000       48.93200000000000       38.14200000000000
H           12.54800000000000       48.30900000000000       38.70100000000000
H           14.29100000000000       48.49100000000000       38.25800000000000
H           12.99100000000000       48.94800000000000       37.06900000000000
C           12.80700000000000       56.25000000000000       41.21399999999999
H           11.95500000000000       56.51600000000000       41.87500000000000
H           12.49600000000000       56.38099999999999       40.15500000000000
H           13.66400000000000       56.91900000000000       41.44400000000000
C           13.39100000000000       56.63600000000000       44.34000000000000
H           14.14400000000000       57.43800000000000       44.34899999999999
C           12.01700000000000       56.96500000000000       44.39100000000000
H           11.25300000000000       56.17400000000000       44.38300000000000
H           11.69600000000000       58.01600000000000       44.43900000000000
C           15.92400000000000       53.67199999999999       47.88799999999999
H           14.82800000000000       53.79699999999999       48.01700000000000
H           16.29600000000000       54.45099999999999       47.18900000000000
H           16.41800000000000       53.78199999999999       48.87700000000000
C           17.31800000000000       50.78899999999999       48.02000000000000
H           18.11700000000000       50.19199999999999       47.59199999999999
C           16.85600000000000       50.77099999999999       49.34200000000000
H           16.03200000000000       51.42999999999999       49.65500000000000
H           17.31100000000000       50.09799999999999       50.08299999999999
C           16.62300000000000       46.34800000000000       44.79000000000000
H           15.74400000000000       45.67400000000000       44.88000000000000
H           17.22400000000000       46.28200000000000       45.72200000000000
H           17.23500000000000       46.02800000000000       43.92000000000000
C           15.25100000000000       45.76800000000000       41.97800000000000
H           14.71200000000000       45.26200000000000       42.80700000000000
H           16.34200000000000       45.60299999999999       42.10400000000000
H           14.91100000000000       45.33800000000000       41.01199999999999
C           19.22800000000000       53.71000000000000       41.33100000000000
H           19.11600000000000       54.06300000000000       40.28400000000000
H           20.22200000000000       53.22700000000000       41.44400000000000
H           19.14900000000000       54.58100000000000       42.01600000000000
N           17.98700000000000       51.53600000000000       40.94500000000000
H           18.61900000000000       51.20500000000000       40.24499999999999
C           18.13400000000000       52.71000000000000       41.64700000000000
C           16.88000000000000       50.93400000000000       41.35399999999999
H           16.48100000000000       50.02199999999999       40.91100000000000
N           16.35700000000000       51.61699999999999       42.36900000000000
C           17.10000000000000       52.75200000000000       42.52700000000000
H           16.82400000000000       53.49900000000000       43.26100000000000
C           10.07200000000000       49.05700000000000       45.63499999999999
H            9.09100000000000       49.03600000000000       45.11499999999999
H            9.92500000000000       49.44199999999999       46.66699999999999
H           10.48300000000000       48.02600000000000       45.67000000000000
N           10.76300000000000       51.29600000000000       44.67699999999999
H            9.91300000000000       51.74399999999999       44.95300000000000
C           11.03200000000000       49.97000000000000       44.87600000000000
C           11.78200000000000       51.88199999999999       44.07500000000000
H           11.80900000000000       52.94000000000000       43.81499999999999
N           12.73900000000000       50.98700000000000       43.84799999999999
C           12.31900000000000       49.80700000000000       44.47399999999999
H           12.98900000000000       48.96100000000000       44.57000000000000
87
 energy: -128.324618525328 gnorm: 0.173941354351 xtb: 6.7.1 (edcfbbe)
Fe          14.53572954339615       51.26166418434091       43.11008274332554
N           13.83057419119305       50.93588441964017       41.21744006536127
N           15.01804333085058       49.37271083846240       43.19348963683907
N           15.26979507677759       51.57714361804314       44.99371095094609
N           14.05915925997903       53.21326611826343       42.99476115932997
C           13.51781866258403       51.94186733028112       40.36263337131990
C           13.25732315162687       51.36135091229527       39.07403015003612
C           13.43032795691249       50.02222508216337       39.18101789135746
C           13.83998559119175       49.76657161308639       40.53313557677265
C           14.77183251481587       48.38926265814668       42.27351743399764
C           15.31028446995393       47.12404070818452       42.73278916161185
C           15.90842270711178       47.35442303822866       43.92295616397449
C           15.74273025050763       48.77892625598562       44.19220951034469
C           16.01501418235700       50.71874455236729       45.70452402010219
C           16.42598118919972       51.34289586197058       46.94165281264808
C           15.82250847971111       52.56813711984603       46.91889894614123
C           15.09874685377424       52.72738581926904       45.69630233686931
C           14.04916439572908       54.14536321295581       44.01426369348616
C           13.59745226037546       55.42064500550683       43.49879429886713
C           13.33315887713107       55.21577501099341       42.18025952027924
C           13.60763079417338       53.85223199644881       41.87370239087595
C           13.39822496222844       53.30564868048081       40.60904171504180
H           13.12422008071965       53.96687285832336       39.78924381654172
C           14.13284772440208       48.51014893052042       41.05446084497589
H           13.87482917002088       47.61547195616092       40.49349489885274
C           16.24397201513478       49.39999786083786       45.33558754829765
H           16.85763426367150       48.80271833143790       46.00273934630500
C           14.46753404779301       53.89778638015979       45.31197459104564
H           14.31461060471293       54.67178192165726       46.06220172758496
C           12.89152674779002       52.20912119116564       37.90282400367407
H           13.74217588933714       52.90297874255966       37.90203341952397
H           12.00043129866209       52.70934782753233       38.30240402387837
H           12.69695436525459       51.89092302397103       36.86871066357520
C           13.28703841894156       48.91026580806277       38.17074359116769
H           12.55164209011830       48.27367971996286       38.67778393759355
H           14.28219201650164       48.45315211722829       38.23542594772610
H           12.99880077585274       48.99502262021443       37.11094266600034
C           12.81216177760281       56.28130731161555       41.25384144656003
H           11.94206461753476       56.57459928636334       41.85527549126974
H           12.52245028635245       56.32074840510600       40.18993144273931
H           13.63960238344701       56.98191970902472       41.42137135516389
C           13.34902151335596       56.65023535699456       44.27788682422516
H           14.12493855252498       57.42184155499859       44.35360147312796
C           12.03389482811893       56.97367626841334       44.39261264184285
H           11.27292108165887       56.19388498966709       44.36807999877380
H           11.70065939609878       58.00455606814481       44.47989880658753
C           15.90130043645824       53.69858492899763       47.87977093145110
H           14.82688384425969       53.84714940823009       48.04679406521077
H           16.28975164348562       54.48777897567142       47.22233820721496
H           16.42142081906030       53.74196069183177       48.84524990264533
C           17.26689010628115       50.76226003628531       48.02045821564771
H           18.10416175264624       50.19342052240957       47.62018990763676
C           16.86628489588148       50.76873515518148       49.31296432729237
H           16.04487621179618       51.40574017124946       49.63731921358090
H           17.32446386579201       50.12730424881533       50.06641448961489
C           16.60881034691718       46.32474679241071       44.75313934764214
H           15.77010510957616       45.62674652074622       44.89162135721856
H           17.19076237355255       46.34064484296496       45.68971892545718
H           17.26064832636424       45.96428376303665       43.94486689559525
C           15.27059772964230       45.76770284363141       42.02711446815667
H           14.72467995517639       45.20940203775154       42.79920472313346
H           16.34414706584797       45.54387756867024       42.09439296723374
H           14.90875886162794       45.41584845945157       41.04319691755733
C           19.22579368578526       53.70436472908597       41.33183253618355
H           19.12005542054569       54.05953167031188       40.29726520832393
H           20.21284835127009       53.23643217279281       41.44284342359950
H           19.15126089181270       54.56473283657036       42.00672873231675
N           17.99307737060967       51.54774982040073       40.93794319511494
H           18.62526657777078       51.21064390639028       40.23525789234459
C           18.14157409190649       52.71655252957483       41.64356249489475
C           16.88245497988030       50.93389931783080       41.36638631979037
H           16.48769228948894       50.02939512243407       40.92841978443443
N           16.33729799614420       51.62494224212337       42.35095012137438
C           17.10081825549836       52.74434442899574       42.52465943228241
H           16.82792431180550       53.48670499361071       43.25514579288284
C           10.07731569492073       49.06332770106513       45.63196316943268
H            9.10412764837203       49.03729218318774       45.12220948489321
H            9.92617376851950       49.43328372198420       46.65503662919576
H           10.47925069972695       48.04461031057087       45.66984743281455
N           10.74587613849829       51.29047815901689       44.67987162486108
H            9.89562982568409       51.74558702007831       44.95341035109980
C           11.03328335546834       49.97027010284889       44.90327349342744
C           11.78389500353548       51.86941262255485       44.06924162957547
H           11.81133723484192       52.91731210805675       43.80830225681396
N           12.74818866625846       50.98565220051505       43.87937225626629
C           12.31268435054730       49.80788082654454       44.46165119835687
H           12.97659739955558       48.96621002903686       44.55178662087030
87
 energy: -128.396120578968 gnorm: 0.074483134885 xtb: 6.7.1 (edcfbbe)
Fe          14.53740244333406       51.26630559746668       43.11560523703805
N           13.87768819915789       50.95154851140376       41.22441006912801
N           15.02623654433125       49.36650798418766       43.19711517939821
N           15.25853457263961       51.57473988641092       44.96947305895293
N           14.07007645321500       53.20625143918951       42.99163257400038
C           13.52399062267105       51.93039763242560       40.35029950598940
C           13.25376938568630       51.35036919081901       39.04803283423801
C           13.41497363378481       50.02188063561475       39.16132224173193
C           13.79829859648707       49.77729844515236       40.53920381267432
C           14.76093844204163       48.38769011400495       42.28409796720369
C           15.29980700058579       47.13597869267367       42.72344389391256
C           15.91088891541643       47.38405061327890       43.92784534346774
C           15.74107252599529       48.78384476263854       44.20026896985203
C           16.01799550011741       50.72015976107269       45.69794062445759
C           16.43178041147209       51.34573479498428       46.94983217563207
C           15.83615710362392       52.56413727556911       46.94300133825111
C           15.11677333593388       52.71169872692948       45.69879377566850
C           14.05877567101284       54.12603077891773       44.00049773265897
C           13.59593913017970       55.39583674991552       43.50771307009470
C           13.33083142598060       55.20274529184132       42.17172869619770
C           13.62257463164201       53.84017155916056       41.87566319735003
C           13.41056813322751       53.28390034571834       40.62403522431384
H           13.12474937938943       53.95152173771727       39.81674910907374
C           14.11981672862898       48.53168407640017       41.06598877379626
H           13.89606313297206       47.63597270567651       40.49615840939764
C           16.24584198396208       49.40125557637674       45.33170762760063
H           16.84895081353502       48.80208590832623       46.00091178437767
C           14.47132339798548       53.88178520059584       45.30064935171787
H           14.32655216930891       54.66585600130638       46.03824391164723
C           12.89119497566117       52.24289928621351       37.91642836637882
H           13.72404020512752       52.94154883295806       37.86647655966994
H           11.99235112115232       52.74815402169298       38.26350659541057
H           12.70916665578941       51.84435185050098       36.91270475882879
C           13.29543460516139       48.88794473727751       38.19992679848446
H           12.55433729061143       48.23244734284666       38.65375071180835
H           14.27431103465588       48.41170269573311       38.21459462048627
H           13.00706458003265       49.05422133825065       37.15344516209888
C           12.81914496612797       56.31179972580564       41.29869306170638
H           11.93002390511442       56.63506643946626       41.83715462996872
H           12.55511058969944       56.23999634933548       40.22904238823153
H           13.61502867138322       57.04698883085864       41.40181597481163
C           13.31197095527314       56.65757595632251       44.21790301514537
H           14.10981352963928       57.39707563371147       44.34484876421659
C           12.04500576011583       56.98189242844506       44.39046120921108
H           11.27983702135022       56.21622893342554       44.33947307001063
H           11.70460214139026       57.99639626016905       44.54088341660109
C           15.87708602474692       53.72533334544372       47.86923316578029
H           14.82438523274140       53.90131656791434       48.07865070662220
H           16.28108031901712       54.52941235514969       47.25599307423768
H           16.42823958610520       53.68912765588028       48.81278142917821
C           17.22709628766631       50.74101984498448       48.01043546096253
H           18.08805855236793       50.18007304320572       47.64476844585657
C           16.87344076229375       50.76541232870013       49.28619795718460
H           16.04656846402927       51.37693761110448       49.62318710659638
H           17.34567310712263       50.16111026953078       50.05210110376568
C           16.59424441004096       46.29929058762453       44.71149060864484
H           15.79353628438944       45.58225022959334       44.89944712960964
H           17.15349789736408       46.42108920663172       45.65422911809227
H           17.28319885391799       45.90154973543112       43.96476374223601
C           15.29071639573785       45.76985256723083       42.07945672830013
H           14.73875490145601       45.15981389744302       42.79567062980074
H           16.34625454513682       45.49027845781274       42.09047711214581
H           14.90182113348514       45.51659345764872       41.07441918148398
C           19.22383688777637       53.69971125107836       41.33474020219663
H           19.12314102582247       54.05605156493922       40.30785480468560
H           20.20714650158140       53.24263998551373       41.44363605303639
H           19.15220978114936       54.55308479959474       42.00274829032087
N           17.99832962267993       51.55812606841042       40.93077700299634
H           18.62934219938955       51.21489669202835       40.22650830784047
C           18.14594206692032       52.72241636604153       41.64052291797197
C           16.88363506538586       50.93729222554833       41.37370334533236
H           16.49550260735358       50.03506478160573       40.94396766616741
N           16.32508480609985       51.63032219380088       42.33645582495473
C           17.09802867138685       52.74058787160364       42.51819195967155
H           16.83188003142704       53.47773849797978       43.24956979009320
C           10.08344800872143       49.06798877307371       45.62958521063693
H            9.11660493962871       49.04025334356010       45.12430205441868
H            9.92498518204895       49.42475749609950       46.64818153347802
H           10.48008582431245       48.05767005246013       45.66926978455863
N           10.73093868655514       51.28490668977071       44.68177249205354
H            9.88096631425952       51.74731528371892       44.95178934797980
C           11.03564306997086       49.97101738784115       44.92737818414967
C           11.78708037741381       51.85587679237642       44.06584172678246
H           11.81245077310478       52.89452224690765       43.80063238938369
N           12.75073599704758       50.97903190672845       43.89854154772903
C           12.30899267501855       49.81215634831104       44.45704081613329
H           12.96252783472316       48.96737956089003       44.53421145403924
87
 energy: -128.427609467661 gnorm: 0.046865985964 xtb: 6.7.1 (edcfbbe)
Fe          14.54182908221927       51.27066890429916       43.11175204944509
N           13.87356293815122       50.95874607463748       41.23358924921772
N           15.02825836121660       49.36214492626129       43.20463643016090
N           15.25885421321641       51.57763955800060       44.95114420881756
N           14.08308227063353       53.20225168077050       42.98360608269591
C           13.52904391085498       51.92767236862850       40.34688735680945
C           13.25107941541249       51.35260702832051       39.04090335834849
C           13.40331081442348       50.01798513870355       39.16507893962199
C           13.79159619461139       49.78641701622529       40.54835380755118
C           14.75517168933382       48.38392610725199       42.29659318478906
C           15.29791017101686       47.13246840490545       42.72931825133069
C           15.91693978621880       47.38348067871841       43.93051464343574
C           15.74334736228430       48.77821569642154       44.20528165659402
C           16.01646739600998       50.72242135326709       45.68881119330863
C           16.42288801247862       51.34829250714250       46.94424371949878
C           15.83235692690775       52.57244917208450       46.94558038965554
C           15.12593463144752       52.70780029746565       45.68991366632318
C           14.06622584508323       54.11434754546622       43.99096815076969
C           13.59170053743822       55.38031166109807       43.50873724445283
C           13.32899473173832       55.20342967687219       42.17053527113265
C           13.63437114545878       53.83996384535361       41.87312588148699
C           13.42353958949800       53.27415137671530       40.62816076119318
H           13.12248448267237       53.94285330287124       39.83318457254606
C           14.12169032086343       48.55049567934703       41.07437123209893
H           13.92132609569052       47.65839423157789       40.49446374759041
C           16.24813695594150       49.40511198128497       45.33415087441603
H           16.84218033189754       48.80303139228392       46.00708417016074
C           14.48006104338426       53.87175161774149       45.28860405220052
H           14.34409970055930       54.66432982521272       46.01363397491216
C           12.89178586614006       52.25817616078559       37.91967476601076
H           13.70407121979621       52.98024564786358       37.82306428354238
H           11.98428155049013       52.78530974338781       38.21751246287231
H           12.72070410772584       51.78952257486267       36.94378504167442
C           13.29580095540578       48.87526585899269       38.21926462218293
H           12.55558041990908       48.18475771704067       38.62748076927426
H           14.26456834463230       48.37253547227030       38.19204128073803
H           13.00766587625661       49.11812961265982       37.18732956656338
C           12.82545013245661       56.32577454564666       41.32378143002893
H           11.92064356843318       56.69513555450453       41.81241740289020
H           12.58805583025335       56.15615181123674       40.25790050557994
H           13.58801411570773       57.10765246327823       41.38050383863178
C           13.30314633603183       56.65383268008491       44.17988041525280
H           14.10838647677529       57.37313489483717       44.32033671784991
C           12.03850874044580       56.99019722644672       44.40722647879596
H           11.26225733723628       56.24070685700598       44.29953574573604
H           11.70946187349999       57.99769952295311       44.63685504610235
C           15.86441693946026       53.73815661337932       47.86589296767079
H           14.82549159215541       53.95766894987499       48.11738590112979
H           16.27388327741238       54.57395276739020       47.29631286799037
H           16.44118010984548       53.62964810597462       48.79103426208778
C           17.20136786706574       50.71260201833054       47.99252711851020
H           18.06621260901353       50.14602887130918       47.65414863922772
C           16.87665199380796       50.76470460490907       49.28069442223734
H           16.03098820910269       51.34796452341710       49.61639350262035
H           17.38669917078481       50.20025681005260       50.05031814871442
C           16.58878332514020       46.28631189580900       44.68988503346077
H           15.82146826817023       45.53978296990790       44.91047436381253
H           17.12235453726429       46.50646387039732       45.63081860463205
H           17.30596329846215       45.84146592040916       43.99192588333324
C           15.29937809188116       45.77367239113597       42.11155962729274
H           14.75275284052264       45.11054886124294       42.78984190546104
H           16.34283752253690       45.43887657365201       42.08468576356042
H           14.88433668190279       45.62037242724065       41.09594970313696
C           19.22547065941972       53.69838832778122       41.33756829204205
H           19.12823681516169       54.05651379695384       40.31187624395966
H           20.20890819337545       53.24343229514619       41.44720021502922
H           19.15325175357331       54.54898942898926       42.00708504091304
N           18.00101294009692       51.56361195871543       40.92383655202502
H           18.63045929123361       51.21986993872105       40.21781993108264
C           18.14621417787626       52.72527096654631       41.63700006250350
C           16.88731873737603       50.94047084004728       41.37343352069625
H           16.50707520555063       50.03068265102917       40.95722208469789
N           16.32249547821507       51.63572830857926       42.32733069670093
C           17.09578066559470       52.74303619863730       42.51052453378571
H           16.83625694128157       53.47589896620735       43.24646166344917
C           10.08597147690436       49.06835341407139       45.63364772102805
H            9.12399323588150       49.04384211351167       45.12152802330198
H            9.91893383812882       49.41545848232797       46.65375947323540
H           10.48577809279261       48.06044729207950       45.66919361764020
N           10.72315449498335       51.28219681885325       44.68433324651517
H            9.87038718901383       51.74676410539529       44.94676833161624
C           11.03678583958166       49.97315131281118       44.94243879434526
C           11.78475970930278       51.84722891760612       44.06474328669533
H           11.80642312992265       52.87919469530323       43.78462311987114
N           12.75083657191791       50.97419619140684       43.91019137757756
C           12.30481206750353       49.81114823046805       44.45972393190761
H           12.94509045292489       48.95505918159312       44.51402303021212
87
 energy: -128.440762522903 gnorm: 0.039486100065 xtb: 6.7.1 (edcfbbe)
Fe          14.54644206432350       51.27418780996867       43.10972265897720
N           13.87261595447177       50.96891235505744       41.24043406937800
N           15.03465500288604       49.35674385665227       43.21529605158344
N           15.26589968490230       51.58217465009711       44.93688132471260
N           14.09317633714726       53.20438627002345       42.97069134269851
C           13.53413391915898       51.93111371844743       40.34586481561782
C           13.25068318319379       51.35717929047065       39.04158682945184
C           13.39710133821708       50.01606409935115       39.17775435604473
C           13.79239105572834       49.79554342784762       40.56136566978159
C           14.75504147961501       48.37943020406841       42.30895994103309
C           15.29877873012102       47.12467932710500       42.74181522091235
C           15.92517122429352       47.37317657860892       43.93618650206762
C           15.75164831557095       48.76993538480109       44.21367601548695
C           16.01318748504372       50.72445880519025       45.68285081276539
C           16.40413170007503       51.34830049122699       46.94217075310236
C           15.82160232608655       52.58192700841288       46.94340244793054
C           15.13546798891797       52.71031531756732       45.67720744510230
C           14.07091514665365       54.11088256260742       43.98203704662750
C           13.57858012011578       55.37440889803732       43.51007231439415
C           13.32855183074446       55.21469883924911       42.17002247216287
C           13.64293458332605       53.84948946635834       41.86497035156474
C           13.43116714681081       53.27541760681132       40.62511507691573
H           13.11781748461009       53.94127911315936       39.83666972369989
C           14.12628270361244       48.56408764643442       41.08597833729592
H           13.95125433442299       47.67830631305576       40.48999360111872
C           16.25054519548179       49.40714591710348       45.34136974059836
H           16.83623991575624       48.80506209648027       46.02089367792689
C           14.49381792795922       53.87036783074818       45.27492476771394
H           14.36894678643815       54.67100804583678       45.98945759963575
C           12.88926440904236       52.25261112387555       37.91194093684237
H           13.68442061723048       52.99174292290372       37.77315637126082