87
 energy: -128.467864571398 gnorm: 0.000071658126 xtb: 6.7.1 (edcfbbe)
Fe          14.55671709132852       51.28646619425169       43.02737434639037
N           13.86808490309862       50.98504316929937       41.16832781197440
N           15.09814075036518       49.35981887766622       43.13192450668762
N           15.24958149220521       51.58168149914789       44.88486084271876
N           14.01064029978393       53.21371974297077       42.91832913970610
C           13.32692233756907       51.91543508827629       40.33790485867965
C           12.94941613317028       51.31639784918374       39.07630495181772
C           13.27228023001098       49.99852594346680       39.16880173468244
C           13.84767372137189       49.81319295623853       40.48289732259231
C           14.90945778516820       48.40325660593659       42.18630541450690
C           15.43172211500927       47.13073375277278       42.63458619742107
C           15.94626064759563       47.34580564876595       43.87479325522850
C           15.72511011787935       48.74529196098892       44.16796858133281
C           15.86631113526985       50.67345041128752       45.67991690813212
C           16.20909025820434       51.26205350508420       46.96087971262029
C           15.78012844924840       52.56201633673756       46.90444097208494
C           15.18875192407490       52.73588201932971       45.60205642100819
C           14.11820654739947       54.14635920739830       43.89793173353865
C           13.59299432260799       55.42265840836190       43.45005139273655
C           13.18544818206588       55.22810907056054       42.15613229138557
C           13.45013987853033       53.84542703403155       41.85225524455446
C           13.13609935952482       53.24923440491833       40.64162341649466
H           12.68790163781417       53.87128215745252       39.88121282934326
C           14.32141030412230       48.60052953033285       40.95059604902452
H           14.23500022153282       47.74558937685799       40.29667205528318
C           16.09444681393447       49.34803190666793       45.35597215725178
H           16.58070744339344       48.72896284390375       46.09492501778882
C           14.64472671027256       53.92881439075585       45.15698378304910
H           14.63989016560333       54.75811201139472       45.84828330287807
C           12.33071049401090       52.05992409810376       37.94161285663370
H           12.98573005313700       52.86554340092345       37.60868677321271
H           11.38014629921721       52.50158894368246       38.24279628381976
H           12.14747406445258       51.39791918989561       37.09861391474590
C           13.10032737749484       48.91098735645590       38.16341006081190
H           12.47275501919572       48.11455328848928       38.56417556475403
H           14.06467282952802       48.47737841856806       37.89619787635191
H           12.63411228560114       49.29075998944660       37.25737433015261
C           12.64171390755624       56.22988622751993       41.19712615823061
H           11.55223098722578       56.17762653504324       41.15105480094234
H           13.02978445640061       56.05364881421265       40.19497311830511
H           12.92297300749955       57.23431745609901       41.50751877327396
C           13.56688443235677       56.62993725371103       44.24424623181691
H           14.37409032226154       56.73758161030150       44.95987591284853
C           12.64650134791327       57.58666033463805       44.17032261478858
H           11.79574126167770       57.51512941771537       43.51550017103776
H           12.70006375501631       58.46869884112900       44.78702644734906
C           15.94356568121579       53.63465450328360       47.92472725208897
H           15.02506266505806       53.77007320518598       48.49851504838372
H           16.18671148233152       54.58479169376979       47.45107324859497
H           16.74445799757137       53.37536603750947       48.61439897153775
C           16.89086464700846       50.56831178161166       48.03033107530361
H           17.60416754513273       49.81392398710632       47.71782727954186
C           16.70507002329034       50.77634505820173       49.33022771983286
H           15.97670658102724       51.47673029824118       49.70000070503924
H           17.26152168747502       50.22978947715182       50.07384727407824
C           16.61225522450460       46.38627845687502       44.80112777603956
H           16.06179084390341       46.31377500832598       45.73961987660866
H           17.62635694479561       46.71532333140220       45.02987529134979
H           16.66610463168051       45.39427138639866       44.35887738168879
C           15.38172508206911       45.87163757848251       41.83754661966076
H           15.82352009656268       45.04585532524935       42.39008067368039
H           15.92693265506513       45.98673254420026       40.89994847048644
H           14.35054118279964       45.61106623917126       41.59778400681721
C           19.48547192212714       53.67329081843116       41.90035304873641
H           19.62197374935862       54.12594521138470       40.91811830678171
H           20.39082300202265       53.11943448402666       42.14913736766006
H           19.34939784917380       54.46377017232634       42.63175786384676
N           18.19141702646512       51.69053109255096       41.08331140854503
H           18.87706893830310       51.39295178853613       40.40891897722985
C           18.30006585493246       52.77893615914977       41.90958752358858
C           17.00366705648372       51.09772937813897       41.34226270307243
H           16.64902624602808       50.21961015537454       40.84336990013917
N           16.35547535103225       51.74316056956307       42.27992436996324
C           17.14859890508450       52.79110461166905       42.64292096739656
H           16.83958166538555       53.47905766393931       43.40213526930327
C           10.32156728011561       49.24411485199562       46.05262633462489
H            9.63654543005860       48.54611093158584       45.57104439817580
H            9.73319941645074       49.94533229128744       46.64453798430608
H           10.97362135732299       48.68813444164838       46.71900642143670
N           10.58419381227353       50.75279461654721       44.07060884669983
H            9.60055342713112       50.92498600224346       43.94300285141897
C           11.13997144639373       49.96273140581206       45.04321525629118
C           11.59470103967188       51.25537330641922       43.32553500749169
H           11.45641211202564       51.90975444057618       42.48979073914794
N           12.75353335456862       50.83225373073819       43.76608040307702
C           12.48751840002611       50.02711819988252       44.83377660136099
H           13.27808750735083       49.55182468403856       45.37634463903033
