78
 energy: -115.676503347793 gnorm: 0.491718807003 xtb: 6.7.1 (edcfbbe)
Fe          14.80200000000000       28.02000000000000        4.43400000000000
N           14.91600000000000       29.41200000000000        5.80900000000000
N           14.02500000000000       26.83800000000000        5.39900000000000
N           14.46000000000000       26.59000000000000        2.94500000000000
N           15.43400000000000       29.19700000000000        3.13500000000000
C           15.89600000000000       30.51100000000000        5.83000000000000
C           16.01900000000000       31.07200000000000        7.11800000000000
C           15.25700000000000       30.36000000000000        8.02800000000000
C           14.54500000000000       29.29800000000000        7.15500000000000
C           13.75600000000000       26.99400000000000        6.76700000000000
C           13.00600000000000       25.73100000000000        7.28600000000000
C           13.00000000000000       24.86100000000000        6.29500000000000
C           13.46500000000000       25.63500000000000        5.15900000000000
C           13.86800000000000       25.39100000000000        2.97400000000000
C           14.00900000000000       24.56600000000000        1.81300000000000
C           14.68700000000000       25.28300000000000        1.00900000000000
C           14.95700000000000       26.56600000000000        1.63200000000000
C           15.75300000000000       28.85300000000000        1.74800000000000
C           16.48200000000000       29.86200000000000        1.16300000000000
C           16.78300000000000       30.85300000000000        2.09400000000000
C           16.19400000000000       30.45100000000000        3.35600000000000
C           16.46300000000000       31.04800000000000        4.61400000000000
H           17.10700000000000       31.92500000000000        4.66400000000000
C           13.98500000000000       28.11400000000000        7.64900000000000
H           13.72100000000000       28.03700000000000        8.70300000000000
C           13.37900000000000       24.97200000000000        4.09200000000000
H           12.87200000000000       24.00800000000000        4.11400000000000
C           15.63900000000000       27.63000000000000        1.08700000000000
H           16.10400000000000       27.51300000000000        0.10900000000000
C           14.86100000000000       30.80900000000000        9.39300000000000
H           14.11900000000000       31.63200000000000        9.31200000000000
H           15.75400000000000       31.18100000000000        9.93900000000000
H           14.40200000000000       29.96300000000000        9.94800000000000
C           16.33200000000000       32.50200000000000        7.35400000000000
H           15.40900000000000       33.10800000000000        7.23400000000000
H           17.08800000000000       32.84700000000000        6.61700000000000
H           16.71900000000000       32.63600000000000        8.38700000000000
C           12.49200000000000       25.72700000000000        8.68800000000000
H           11.91100000000000       26.65600000000000        8.87300000000000
H           13.34400000000000       25.68700000000000        9.40000000000000
H           11.82700000000000       24.85000000000000        8.84200000000000
C           12.71400000000000       23.38700000000000        6.30100000000000
H           12.56100000000000       22.87700000000000        5.33900000000000
C           12.61100000000000       22.47700000000000        7.61900000000000
H           12.75300000000000       22.92000000000000        8.61600000000000
H           12.39700000000000       21.40100000000000        7.53900000000000
C           14.27300000000000       23.11100000000000        1.69200000000000
H           13.84400000000000       22.58200000000000        2.57000000000000
H           15.36900000000000       22.93000000000000        1.66200000000000
H           13.79800000000000       22.71900000000000        0.76800000000000
C           15.27500000000000       24.91200000000000       -0.26400000000000
H           15.97500000000000       25.66100000000000       -0.63900000000000
C           15.17500000000000       23.75300000000000       -1.21800000000000
H           14.51200000000000       22.90400000000000       -0.99700000000000
H           15.76400000000000       23.74200000000000       -2.14700000000000
C           17.18600000000000       29.81500000000000       -0.14100000000000
H           16.56100000000000       29.26900000000000       -0.88000000000000
H           18.15500000000000       29.28300000000000       -0.02600000000000
H           17.36200000000000       30.84800000000000       -0.51000000000000
C           17.54500000000000       32.06300000000000        1.69400000000000
H           16.98600000000000       32.60900000000000        0.90400000000000
H           18.53800000000000       31.76600000000000        1.29400000000000
H           17.67400000000000       32.73200000000000        2.57100000000000
C            8.93700000000000       29.50100000000000        2.54400000000000
H            9.11700000000000       30.21700000000000        1.71400000000000
H            8.17000000000000       29.92600000000000        3.22600000000000
H            8.57600000000000       28.54000000000000        2.11900000000000
N           11.05300000000000       30.32400000000000        4.02600000000000
H           10.70700000000000       31.25900000000000        4.10600000000000
C           10.36900000000000       29.24700000000000        3.38700000000000
C           12.29500000000000       29.83300000000000        4.52000000000000
H           13.03900000000000       30.43300000000000        5.04100000000000
N           12.36400000000000       28.51300000000000        4.22200000000000
C           11.17000000000000       28.07200000000000        3.44600000000000
H           11.04600000000000       27.06800000000000        3.06500000000000
O           16.84500000000000       27.07800000000000        4.51100000000000
H           16.75300000000000       26.21500000000000        4.10700000000000
H           17.59200000000000       27.42500000000000        4.84500000000000
78
 energy: -115.866611583370 gnorm: 0.258207471198 xtb: 6.7.1 (edcfbbe)
Fe          14.75515366544006       28.02065337064669        4.40000891215393
N           14.96761601941124       29.40725645872223        5.83086438038353
N           14.01246856693457       26.82196895330205        5.45893688273252
N           14.46564777612375       26.58355122637294        2.89415703324922
N           15.47199648719920       29.20998476845826        3.12370028210506
C           15.87563971778989       30.50973345969810        5.80563929097472
C           15.98488476978820       31.07917655515782        7.10514118669211
C           15.22486363503479       30.35399807469724        7.99688235898905
C           14.59006080871315       29.27824341070622        7.15659283725258
C           13.72823155229625       26.99559823368234        6.80392832541203
C           13.02234238306928       25.75655335493018        7.32845702163678
C           12.99471127437441       24.83550505905642        6.34860349282875
C           13.46568108949590       25.60733603819380        5.21093990229523
C           13.87271089692390       25.37935290237182        2.94319530182349
C           14.02924703383816       24.54898022483173        1.80515438879331
C           14.72280131721716       25.30353758111577        0.94888125466840
C           14.96723429942294       26.57932108430155        1.60770383411907
C           15.76676279263063       28.85776836495000        1.77150078658682
C           16.50545901848282       29.87770739156641        1.17041790549868
C           16.77813167050751       30.85518725654754        2.09752566065018
C           16.18941442409925       30.43967143786491        3.34862427231016
C           16.43494641978681       31.02293854086482        4.60547776622335
H           17.09073852092839       31.89891175350808        4.66114268501557
C           13.98174772536718       28.10994774131770        7.63144473523565
H           13.72406713160487       28.03781505345881        8.68556888359443
C           13.35810056203963       24.93293071546360        4.08405520590127
H           12.86276327855695       23.98745021209075        4.09779340055825
C           15.63370960259597       27.64844001994292        1.09272473156836
H           16.09612868249135       27.52917508150887        0.11772477152278
C           14.85991185815321       30.79646186657601        9.38101293287879
H           14.12762587871663       31.62040736467364        9.31625386976652
H           15.74033650620226       31.17258089061363        9.92977696440965
H           14.40647614703946       29.97169559771532        9.94636285483744
C           16.34500735941195       32.50309751273469        7.35464545145710
H           15.42636185123290       33.10405957630881        7.23701396505794
H           17.08696862176471       32.85239802893211        6.62743607776479
H           16.71991733604934       32.64042853417808        8.37726923423038
C           12.49073917643650       25.72972948305524        8.70443291346847
H           11.91473708089373       26.64788431636874        8.87823073745474
H           13.33360353935702       25.68607205812148        9.40519461234732
H           11.83418552823270       24.86008394796946        8.84411815099120
C           12.70126948517324       23.37409270748737        6.37432994676169
H           12.56499232240602       22.87903394629497        5.39463411264619
C           12.61445957485595       22.52653246223828        7.55913778961767
H           12.75396564780735       22.92153092069191        8.57272915847134
H           12.40599209485908       21.44656486116365        7.51529627640451
C           14.25257677625135       23.08820946153944        1.70470433617973
H           13.84165478129511       22.56777994962447        2.57124070816879
H           15.34494737656522       22.92472118004620        1.66156588853296
H           13.79707980199518       22.71115158421640        0.78365037751943
C           15.28915516996160       24.89960695622587       -0.31521729056890
H           15.98252104872954       25.65437655067757       -0.66055613443187
C           15.17580049384585       23.79108385052467       -1.17978037252176
H           14.52527781615846       22.93215160446249       -0.99592204223587
H           15.75010387402728       23.75633577195952       -2.11275742998410
C           17.18205421578094       29.81754884169226       -0.15102006773142
H           16.56873676701136       29.27558465518555       -0.88189511955325
H           18.14453889109723       29.29204783048724       -0.03407151345688
H           17.36318461366860       30.83540651973684       -0.51552030300784
C           17.54474224412655       32.06855723028488        1.70635088079871
H           16.99577249599014       32.60715089447407        0.91585014266189
H           18.52785854403636       31.77593484708553        1.30319713834248
H           17.67772805036147       32.73432145709159        2.56474606399765
C            8.97697281140447       29.49571464006552        2.56887230028250
H            9.12605721300839       30.20316305867245        1.73520380690548
H            8.19341369960594       29.91575471318443        3.22189141571775
H            8.59573800277278       28.55574343194989        2.13679706296338
N           11.04328428974466       30.29894763801898        4.01338325625179
H           10.70595616434956       31.24619944268109        4.10190639288683
C           10.36169520527246       29.25248153695124        3.36467353212180
C           12.25483780410637       29.80947555164845        4.49518877368627
H           13.00494752608671       30.40903488593453        5.02151117250234
N           12.35141432152757       28.52540687323548        4.19655716480819
C           11.17601747773154       28.12675981592430        3.46502652323395
H           11.05559596473329       27.11038439064723        3.08676416651389
O           16.81672763063739       27.07582275314687        4.51412617088075
H           16.76196683078015       26.21338858437166        4.10577669481235
H           17.61483096658021       27.42940509780031        4.85109376438186
78
 energy: -115.953611626465 gnorm: 0.130778177606 xtb: 6.7.1 (edcfbbe)
Fe          14.71135286245288       28.01525957776435        4.36457722662491
N           15.01368569811153       29.40405380643723        5.85041780760288
N           13.98990710160991       26.79227039098594        5.51174039948872
N           14.45971505917707       26.57674167032036        2.84693179035570
N           15.50758429119663       29.22059760308161        3.10371106607759
C           15.85007901170851       30.49817968943206        5.78433590006709
C           15.94497037579891       31.09074545172637        7.09162969477582
C           15.19347065068977       30.34471976856129        7.96316959453965
C           14.63559069362798       29.25937855812737        7.15814874015888
C           13.70093487858220       26.98555067852601        6.83670665271878
C           13.03877385067518       25.78228428148791        7.36356326871945
C           12.99355595394946       24.81340335045780        6.40127452875353
C           13.47223685427587       25.56226647997163        5.24695902548404
C           13.87877912225506       25.36552501460823        2.92915993462406
C           14.06405991015353       24.54048913710211        1.79662497659938
C           14.75145729798688       25.31691739087599        0.90294367930272
C           14.96881379502222       26.58540990727808        1.58850168353051
C           15.78595293745035       28.86489147151644        1.79548340755337
C           16.53443743752807       29.89473179984486        1.17369598400859
C           16.77750935828703       30.85874276478637        2.09822457577779
C           16.18218321269166       30.41806111008081        3.33833985860425
C           16.40172561652650       30.99141736442420        4.59626614938053
H           17.06368479721101       31.86640467832457        4.65593270217896
C           13.98173494208273       28.10316790348728        7.61350909313455
H           13.72610510515700       28.04430703528492        8.66803454695723
C           13.34403989210347       24.89838593835571        4.08091606684191
H           12.85210169057293       23.96246369460282        4.08404045111994
C           15.62887656171260       27.67085699498308        1.09859339684948
H           16.08636439083249       27.55432371486564        0.12453547917718
C           14.85695032128237       30.78041862686819        9.36547922697883
H           14.13483279083863       31.60712646511042        9.31719991186353
H           15.73042683199206       31.15784954642959        9.91110177643159
H           14.40997676350095       29.97356077105129        9.94203964900769
C           16.35293044320084       32.50507431892635        7.35321199551783
H           15.44358029328681       33.10937463223557        7.24065600067270
H           17.08864058164219       32.85394017469994        6.63601245087893
H           16.72304726668609       32.63981284976155        8.36721437610481
C           12.48971465487622       25.73288227146535        8.72602688774081
H           11.91533437363137       26.64171178055402        8.89514680197928
H           13.32083924429841       25.68495763592470        9.42582274973073
H           11.84041406846771       24.86890751529715        8.85000016054730
C           12.69407323871610       23.35773286063943        6.45584058062286
H           12.56670075676912       22.88861385403896        5.45905999684095
C           12.61752165190830       22.59217733837048        7.49508653094309
H           12.75565920608679       22.93124641232681        8.52790245939776
H           12.41705117329491       21.50760017620327        7.48079371342849
C           14.23383998409627       23.07033162875724        1.71366499138605
H           13.83521909592399       22.55696624678964        2.57404034129851
H           15.31994141911442       22.90679818257492        1.66154977624099
H           13.78966626963086       22.69765200571323        0.79902025199052
C           15.30427267151942       24.89106053278883       -0.35923307553472
H           15.99438641687845       25.65456865648821       -0.68872437600479
C           15.17635706754258       23.83479817925242       -1.14495254396555
H           14.53811469947091       22.96673009794312       -0.99092804142607
H           15.73909926793559       23.77033092217274       -2.07968586597284
C           17.18091200447899       29.82181395549524       -0.16360941985799
H           16.57255320837005       29.28280674232541       -0.88378640111990
H           18.13710144456048       29.30020253325901       -0.04665216374754
H           17.36590570263669       30.82738640541566       -0.52687304886292
C           17.54614214492300       32.07906016340893        1.72191853643272
H           17.00462141109336       32.60901045237325        0.93026563742190
H           18.52003666206932       31.78726208931323        1.31640932766310
H           17.68252085127084       32.74215032497001        2.56571605864296
C            9.02695834399766       29.48812029647977        2.59787049942965
H            9.14738342857637       30.19036589805165        1.76049143280462
H            8.22958165058323       29.90420960170028        3.22902139538640
H            8.62794013695989       28.56475002825542        2.16109225923497
N           11.02926440403555       30.28365823334889        3.99905020787431
H           10.70271979597555       31.23695713220193        4.09751017325820
C           10.35023175879660       29.25911413853929        3.34626119153181
C           12.21127538019434       29.79539235217861        4.46447359227561
H           12.96302467027622       30.38501820484705        4.99928803462604
N           12.32936126948913       28.53531053087213        4.16558378273670
C           11.18884035232386       28.17454572069043        3.47266445432471
H           11.06516619713212       27.15323758742251        3.10623610452741
O           16.78713445191084       27.07854103987651        4.52846905347028
H           16.78301876667134       26.21700188650038        4.10712906273778
H           17.62303206165384       27.42131377279001        4.84415582150208
78
 energy: -115.988564836007 gnorm: 0.055231537082 xtb: 6.7.1 (edcfbbe)
Fe          14.67783088651510       27.99081156654062        4.33765919507171
N           15.05382789645039       29.36057092303513        5.85129852443998
N           13.96679515066258       26.76191503878781        5.53530600595654
N           14.44437473848359       26.56751525939832        2.81353753523779
N           15.52859947150232       29.20746177848880        3.08999479420352
C           15.81875647459523       30.49194161799639        5.76615806033037
C           15.90141035201873       31.10918112108470        7.06846388423028
C           15.16611182827504       30.34574837302782        7.93515004313738
C           14.67249216356625       29.22573761113635        7.15205643333207
C           13.68105939980865       26.97283379561353        6.85664568529523
C           13.04546605494833       25.79146489168051        7.40852756032614
C           12.98981271495377       24.82570663323893        6.44305042727786
C           13.47558741780762       25.52370826170559        5.26650232054892
C           13.88903247818331       25.34398798089478        2.92161324744136
C           14.10324843758971       24.53262727942839        1.77877910065425
C           14.77974454264913       25.32666916175825        0.87929308320650
C           14.96485907984729       26.59487256420960        1.56472569149260
C           15.81232404007019       28.87185417248131        1.79659454865727
C           16.56638470990044       29.90602573229126        1.16999634547471
C           16.78803497019678       30.86730972196741        2.09933067949399
C           16.17597222782586       30.40181328184164        3.32554438964952
C           16.36540897527881       30.97359254535925        4.58030186731155
H           17.02449452279876       31.83973473570950        4.64316608683390
C           13.98919968488408       28.09428038208587        7.61057780833080
H           13.72451916650013       28.05928694036670        8.66001657128388
C           13.34612987277276       24.86765607287641        4.08117899365291
H           12.84536183754753       23.92648963857946        4.06739334436276
C           15.62530021179972       27.69454435974993        1.08927255116654
H           16.07465646617047       27.59609727030802        0.11448071917225
C           14.84660470914884       30.76095367084334        9.34534127385924
H           14.13137933495168       31.58992059412223        9.31641990112174
H           15.72625558969672       31.13202578702929        9.87712619320716
H           14.41019113256376       29.95812243289842        9.93101453905433
C           16.35399639502177       32.50891049283170        7.34560036228413
H           15.46481557736792       33.13810236143704        7.24500422855119
H           17.09910567857965       32.85319077946123        6.63822932346169
H           16.73145965323072       32.62921265410640        8.35741600826313
C           12.48764150171854       25.73683431150988        8.77070996243603
H           11.90983157860337       26.64166454312989        8.93942114764088
H           13.30579101737401       25.68181138568159        9.48301570175536
H           11.83916356189358       24.87365164607467        8.87406266799209
C           12.67306896666673       23.39635227925753        6.46501677319509
H           12.55809657134613       22.92089869988660        5.48517843073262
C           12.62134219475678       22.58977685668449        7.53633399148908
H           12.76200869436848       22.93386874477857        8.55063147824354
H           12.42035830389510       21.52398538890816        7.46825170829519
C           14.21684583525620       23.04975617636878        1.71599506679587
H           13.81439734071434       22.54606958749516        2.58340908724656
H           15.29247696166926       22.85564773917527        1.66053398212062
H           13.76131013717218       22.66826749800402        0.81375654460692
C           15.33693083320530       24.93108526681003       -0.38694235188249
H           16.02869107211773       25.68364904699530       -0.73758334550994
C           15.18246328187638       23.84871882826911       -1.14469813422205
H           14.53700291325275       23.00079036584031       -0.97536211916268
H           15.73710915852050       23.77260106302914       -2.07256614661437
C           17.18646276374943       29.83299572704155       -0.18000453248995
H           16.57079163067469       29.29461243451397       -0.89201897256314
H           18.13947760098759       29.30982540174798       -0.07682994697699
H           17.37315799841388       30.83190549531848       -0.55354175992679
C           17.55086427501567       32.09806871534362        1.74627958198127
H           17.01502570546306       32.62510344789590        0.95324022524629
H           18.52264379971572       31.81032472650004        1.34227580635243
H           17.68807315419550       32.76300729567173        2.58621851321691
C            9.05871565318113       29.48350293750822        2.61658052064918
H            9.18644743169686       30.18373929091758        1.78594912327549
H            8.27630929677882       29.89416228577254        3.25944548242481
H            8.67668004186243       28.55533068192455        2.19340403434067
N           11.00816750610143       30.29025527738273        3.98295431878345
H           10.68074827286378       31.23797504764067        4.08821401448103
C           10.34810852928295       29.26706645572994        3.33135405184971
C           12.18145415320066       29.80424870295371        4.44163802514232
H           12.91717117082116       30.38218780079079        4.98301738385422
N           12.32941110010219       28.54984177384804        4.12465656203754
C           11.19507801760047       28.19519444672304        3.46041361083767
H           11.06829965451895       27.18219760377073        3.11189278001359
O           16.76323691170478       27.06987384094306        4.56038834062592
H           16.80545659532218       26.22236610652041        4.10292335702698
H           17.61608496817582       27.41990759127061        4.83361770728327
78
 energy: -116.008204581996 gnorm: 0.037587273055 xtb: 6.7.1 (edcfbbe)
Fe          14.65867600428760       27.96274300305281        4.31608483840796
N           15.06989852960798       29.32365956622214        5.84188420651521
N           13.94000903253529       26.73053732391154        5.55327067831691
N           14.43342268822031       26.55845231884254        2.79096486517088
N           15.54143876363013       29.19271784912802        3.06809711858357
C           15.78957600240071       30.47796837385397        5.74719530549842
C           15.85041419752769       31.12516850592881        7.03950411531375
C           15.13930260248834       30.34247543036420        7.90708994348943
C           14.68783206467798       29.19741130959571        7.14053840136987
C           13.66741948462527       26.95557346597888        6.87429457251476
C           13.04360278658430       25.79148225677443        7.45327437895248
C           12.98535179059142       24.82556039082297        6.48800484212648
C           13.47152686271406       25.48291087668705        5.28696338370981
C           13.91017156371887       25.31895006446980        2.92037603791926
C           14.14946550138060       24.51913496281819        1.76546142808527
C           14.80944716155190       25.33005221209968        0.86443099174852
C           14.95854918204428       26.60124789552626        1.54443885332918
C           15.83597078801827       28.87474028666412        1.78002648774682
C           16.60009027459926       29.91505326918853        1.15894866124029
C           16.80135190127714       30.87401868518896        2.09850968644069
C           16.17260568892320       30.38798576638409        3.31226690693622
C           16.33301634786875       30.96187839621973        4.56375324591867
H           16.96874827192773       31.83553422987609        4.62824045216963
C           13.99658186507016       28.08626833342474        7.61006929770152
H           13.72473959683553       28.07628286707357        8.65641658543726
C           13.35756407042586       24.83644318317718        4.08397101848078
H           12.85216251245922       23.89005191000621        4.04542241438291
C           15.61679129452445       27.70975739168345        1.07129752623177
H           16.05326050774367       27.63062917244474        0.09138638125754
C           14.83470073754648       30.73519228816783        9.32222269235471
H           14.12295242741640       31.56610889514000        9.31531868024342
H           15.72800961993056       31.09508860485404        9.83636349700334
H           14.40848543215012       29.92760726976893        9.90854123933571
C           16.34484147303833       32.50863608792022        7.32981540840599
H           15.48581132292414       33.18220866173295        7.24667149664600
H           17.10735205713586       32.83895080895755        6.63129778441907
H           16.73685134708761       32.60009905438038        8.34178309891370
C           12.48429066907681       25.73918793082592        8.82167479622713
H           11.90380622010240       26.64195450479876        8.99845162908135
H           13.28765045695237       25.67708559456308        9.55246312224405
H           11.83423082869690       24.87625238019169        8.91257400883098
C           12.67451434152478       23.41620692974790        6.51195686160349
H           12.53419434089770       22.93759799938475        5.55350522610661
C           12.60095197764221       22.61585812634814        7.56423986681629
H           12.77793445105703       22.95464494192264        8.56465149209576
H           12.42279117869088       21.55995345367798        7.44367155666445
C           14.19990913968757       23.02697228793033        1.71429686427846
H           13.78526350437343       22.55017150849338        2.59647971794901
H           15.26384446797775       22.77850110413375        1.65110855293002
H           13.71175716798682       22.63687560385781        0.83003232632063
C           15.37180153236867       24.97324811631409       -0.40902318453964
H           16.06006046735230       25.71613679291611       -0.78884344588290
C           15.19621148882872       23.87321323699740       -1.15435143314677
H           14.53866926009762       23.05032585943737       -0.94821361264076
H           15.74079918921596       23.77851365406856       -2.08078261776328
C           17.19814145962906       29.85007713975752       -0.20113273864915
H           16.56546673437174       29.31716428504924       -0.90447612607079
H           18.15028445203819       29.32123230222334       -0.12337265997847
H           17.38374301891446       30.84726478925834       -0.58329219031897
C           17.55638350343478       32.11981101882409        1.77784337634918
H           17.02594581342199       32.65343635615979        0.98683300314259
H           18.53334507775793       31.84415703992481        1.37962694685432
H           17.68708426466716       32.78183089505616        2.62322264854076
C            9.07241471697047       29.47562715910052        2.62664983418773
H            9.20208970029281       30.17806170776682        1.80073287053652
H            8.30682653323064       29.88346829487865        3.28696141058259
H            8.70562482206249       28.54050438053940        2.21462582171431