78
 energy: -116.058059921139 gnorm: 0.000071572206 xtb: 6.7.1 (edcfbbe)
Fe          14.87516332674549       27.89067724929178        4.39406324645207
N           15.08701680015017       29.26539198855965        5.81969553486316
N           13.97197808717119       26.66722666912050        5.68272949114592
N           14.74555914805624       26.48245291914929        2.95884917387576
N           15.81883090835920       29.10467072940384        3.09344784941167
C           15.68853033927597       30.47890329718766        5.71199329792182
C           15.65300490477639       31.18353450661347        6.97579870948928
C           15.00681228251424       30.36634966801255        7.84832643669901
C           14.65974953519146       29.17304740303994        7.10591743167588
C           13.66581598692819       26.93507627934693        6.97908158133121
C           12.98465794274023       25.82014072012156        7.58836755461046
C           12.88985222902486       24.85365381074364        6.62369647754766
C           13.50988817282633       25.41453601620417        5.43691955233297
C           14.19611926545987       25.24152662517457        3.08421334198995
C           14.26270304317820       24.52335379906685        1.83881143394073
C           14.85539907766522       25.36933757700474        0.93741120024477
C           15.15074852040804       26.58677352102365        1.66591606595014
C           16.04634431892710       28.86998846675249        1.77207878843895
C           16.68016051591608       30.01156210523580        1.15290049254074
C           16.83096473327234       30.94395778820424        2.13276014994725
C           16.28243876843979       30.36121589155035        3.33547489069385
C           16.24326111394517       31.00389734840865        4.55923238921767
H           16.67019440437376       31.99367605764453        4.61574314228212
C           13.98553510336535       28.10076058824938        7.65240110428647
H           13.70318300527015       28.16967485547909        8.69179304660450
C           13.62440455567998       24.73574697239697        4.23941478817713
H           13.22345627720756       23.73475348434937        4.19402034226031
C           15.74088360923848       27.70181241712373        1.09977287404594
H           15.97909977120097       27.66078843971284        0.04818979015830
C           14.68964780097155       30.58288818289279        9.28807546400832
H           13.61280196560354       30.54195436035390        9.45424016934565
H           15.05114740876832       31.55206973137229        9.62314978031215
H           15.15586232679162       29.81178387095266        9.90142503408304
C           16.23504595732865       32.53725846249615        7.20079581307349
H           15.75863521288233       33.27469887443770        6.55373570839099
H           17.30292601834320       32.53580440938053        6.98173966259792
H           16.09832477861353       32.84982735366435        8.23301970966221
C           12.44773305187996       25.79869197189984        8.97672154964662
H           12.03593406366878       26.77036299023109        9.24537192935657
H           13.23365269733656       25.55500630549595        9.69334560120759
H           11.66167902127874       25.05098253357743        9.06173086778106
C           12.28366111250921       23.54273455269119        6.69702781583248
H           11.81669720220868       23.18982442118899        5.78440569766851
C           12.26614843387764       22.75983560245393        7.77100772417100
H           12.75510733628949       23.03581777051150        8.68872131235598
H           11.78229658817794       21.79715783773349        7.75857852363531
C           13.82734722064812       23.11379175697070        1.63787456585010
H           14.04789904485760       22.51285487426966        2.51890444712761
H           14.34445524486064       22.68194115483098        0.78329193897570
H           12.75318353351446       23.05978871654029        1.45241802360981
C           15.18069117930612       25.14224249321134       -0.45297611210087
H           16.07536170332832       25.63856816020296       -0.81135819839061
C           14.47737258990322       24.39706176713616       -1.29959356242434
H           13.55617317554718       23.91979475337158       -1.01474982185628
H           14.78905973578119       24.26058415537064       -2.32191629019219
C           17.06870289677653       30.08109656911651       -0.28413308582155
H           16.19876584548441       29.93097680258873       -0.92376946589173
H           17.79975624638876       29.30780858328659       -0.52229707691067
H           17.50559418872278       31.04818996157104       -0.52079712166723
C           17.42945086756233       32.30691997580189        2.05626585629476
H           17.77757513404119       32.52057302916678        1.04871503064690
H           18.27690029792279       32.39219879154708        2.73695250440691
H           16.69674462072563       33.06528073763791        2.33404424502879
C            9.60584116918467       28.63874004869532        2.73853353870832
H            9.44587435900675       29.03141484760527        1.73443748334280
H            8.91479554787137       29.14120857693925        3.41525182093045
H            9.38078776671476       27.57692411144718        2.73668956058051
N           11.57388438109769       30.09334995496826        3.27015091311909
H           11.11201101413254       30.96545422891804        3.07094110473628
C           11.01141069523795       28.84795254552915        3.16870933926564
C           12.85200464955596       29.93360751972418        3.68133792238796
H           13.53539769542339       30.74079372856306        3.84670325854495
N           13.13257675896399       28.66368414838360        3.84621850265902
C           11.99741154878583       27.97599447346143        3.53169502136172
H           11.96619121477378       26.90766869057089        3.58628108247392
O           16.93899030105978       27.00901185853315        4.86617728859782
H           16.91882295095587       26.21346618910227        4.32319674146173
H           17.49290969802988       27.65087036942985        4.40868800380512
