87
 energy: -128.385783027671 gnorm: 0.256859764666 xtb: 6.7.1 (edcfbbe)
Fe           6.65800000000000        7.90600000000000        7.93700000000000
N            6.46900000000000        6.49100000000000        6.57800000000000
N            8.57500000000000        7.59500000000000        8.00800000000000
N            6.81400000000000        9.26600000000000        9.29200000000000
N            4.74300000000000        8.17800000000000        7.82700000000000
C            5.35000000000000        6.09600000000000        5.86100000000000
C            5.62600000000000        5.01400000000000        4.95900000000000
C            6.91000000000000        4.76200000000000        5.08000000000000
C            7.42100000000000        5.65200000000000        6.10700000000000
C            9.29000000000000        6.62400000000000        7.38100000000000
C           10.71100000000000        6.72000000000000        7.69400000000000
C           10.85300000000000        7.76800000000000        8.53000000000000
C            9.51700000000000        8.29500000000000        8.71900000000000
C            7.95900000000000        9.83200000000000        9.78500000000000
C            7.73900000000000       10.92100000000000       10.68400000000000
C            6.39500000000000       11.07100000000000       10.72600000000000
C            5.85100000000000       10.02300000000000        9.88300000000000
C            4.02200000000000        9.00200000000000        8.62200000000000
C            2.64300000000000        8.97300000000000        8.24800000000000
C            2.54400000000000        8.07500000000000        7.26700000000000
C            3.85700000000000        7.58000000000000        6.98800000000000
C            4.10800000000000        6.57900000000000        6.08300000000000
H            3.27400000000000        6.15800000000000        5.52200000000000
C            8.70800000000000        5.68000000000000        6.56200000000000
H            9.35000000000000        4.86000000000000        6.24000000000000
C            9.22500000000000        9.37400000000000        9.54300000000000
H           10.05600000000000        9.88800000000000       10.02700000000000
C            4.54900000000000        9.86200000000000        9.53800000000000
H            3.83500000000000       10.50000000000000       10.05800000000000
C            7.62000000000000        3.60200000000000        4.38900000000000
H            7.22600000000000        3.48800000000000        3.35600000000000
H            7.43600000000000        2.66100000000000        4.95000000000000
H            8.71100000000000        3.80600000000000        4.33800000000000
C            4.65500000000000        4.33200000000000        4.01400000000000
H            4.66400000000000        4.85300000000000        3.03300000000000
H            3.62800000000000        4.37500000000000        4.43500000000000
H            4.95900000000000        3.27400000000000        3.86300000000000
C           11.72400000000000        5.70200000000000        7.22600000000000
H           11.48900000000000        5.39700000000000        6.18400000000000
H           11.68500000000000        4.80500000000000        7.88100000000000
H           12.74200000000000        6.14700000000000        7.25100000000000
C           11.98500000000000        8.17300000000000        9.25700000000000
H           12.11300000000000        9.24400000000000        9.46900000000000
C           13.01900000000000        7.28900000000000        9.76300000000000
H           12.96000000000000        6.20400000000000        9.59100000000000
H           13.87400000000000        7.69400000000000       10.32500000000000
C            8.72800000000000       11.73600000000000       11.50200000000000
H            8.79300000000000       12.76500000000000       11.08700000000000
H            9.73300000000000       11.26400000000000       11.45500000000000
H            8.38500000000000       11.79400000000000       12.55700000000000
C            5.79900000000000       12.03000000000000       11.56800000000000
H            6.37700000000000       12.91600000000000       11.86800000000000
C            4.46900000000000       11.91900000000000       12.06300000000000
H            3.84400000000000       11.05400000000000       11.79600000000000
H            4.05100000000000       12.69700000000000       12.71900000000000
C            1.56700000000000        9.82600000000000        8.90700000000000
H            1.81600000000000       10.90100000000000        8.77900000000000
H            1.51700000000000        9.59500000000000        9.99300000000000
H            0.58400000000000        9.62400000000000        8.43000000000000
C            1.24900000000000        7.76100000000000        6.62400000000000
H            0.74600000000000        8.70500000000000        6.32200000000000
H            0.59600000000000        7.21800000000000        7.34000000000000
H            1.42000000000000        7.13900000000000        5.72000000000000
C            3.99700000000000        4.02900000000000       10.64500000000000
H            3.32800000000000        4.29100000000000       11.49200000000000
H            4.59400000000000        3.13400000000000       10.92100000000000
H            3.37600000000000        3.81000000000000        9.75000000000000
N            5.78900000000000        5.67700000000000       11.28300000000000
H            5.85300000000000        5.36500000000000       12.23100000000000
C            4.91000000000000        5.17600000000000       10.35700000000000
C            6.52300000000000        6.62100000000000       10.72600000000000
H            7.29200000000000        7.19300000000000       11.24300000000000
N            6.16000000000000        6.73600000000000        9.46600000000000
C            5.16800000000000        5.82700000000000        9.20800000000000
H            4.73700000000000        5.73000000000000        8.22000000000000
C            6.18300000000000       12.28200000000000        4.47500000000000
H            5.74300000000000       12.03400000000000        3.48500000000000
H            7.02900000000000       12.98600000000000        4.32700000000000
H            5.40200000000000       12.75500000000000        5.10800000000000
N            7.64100000000000       10.21600000000000        4.58000000000000
H            8.11900000000000       10.40100000000000        3.72100000000000
C            6.67700000000000       11.02600000000000        5.13200000000000
C            7.82400000000000        9.16500000000000        5.37000000000000
H            8.53900000000000        8.36600000000000        5.17600000000000
N            7.00000000000000        9.26500000000000        6.40800000000000
C            6.27000000000000       10.41400000000000        6.27400000000000
H            5.52300000000000       10.69400000000000        7.00700000000000
87
 energy: -128.441486612022 gnorm: 0.098179466250 xtb: 6.7.1 (edcfbbe)
Fe           6.66352817095684        7.91150492088553        7.93411418089768
N            6.46629485306755        6.47789928942770        6.55753532578445
N            8.59580426228008        7.59391090199530        8.01952334442727
N            6.83477276223954        9.30941373279632        9.28435094901838
N            4.73808118577598        8.19616720961133        7.81417815022614
C            5.34254962617952        6.09536424113766        5.86007315896394
C            5.61858674685075        5.01324193545932        4.95294945038319
C            6.92714014719218        4.73426774886462        5.09297956438578
C            7.43554877562019        5.64065244649928        6.10409286088701
C            9.29632193797897        6.61298549434006        7.38613218099605
C           10.70425332613197        6.68290993841416        7.70548755874874
C           10.86101045267328        7.73993624193048        8.55225172133851
C            9.53198371980956        8.30040018181026        8.71762809829080
C            7.98720697887970        9.83744387421140        9.79166227287436
C            7.74407023302113       10.92538888211630       10.68915031966768
C            6.38208214057262       11.06739886363119       10.74579420837580
C            5.84893052668837       10.04000923298087        9.87710735977057
C            4.01788546361904        9.02383111177637        8.61145792326951
C            2.62963454642121        8.98798233412303        8.26539717948447
C            2.51869995757377        8.08786301645704        7.26642459833801
C            3.83621356727349        7.59468476894303        6.99168810981295
C            4.09153471608225        6.59670894757284        6.07723489554332
H            3.26547309839315        6.17333840315464        5.52156623087424
C            8.73110666642644        5.66590142342282        6.55453045607978
H            9.37196255252203        4.85981404718651        6.22151938506911
C            9.25291037008215        9.37194004451621        9.53695978927019
H           10.07521852317185        9.87703130146856       10.02205247984181
C            4.53228361581209        9.87986883274976        9.54741965904102
H            3.81964516956561       10.51289224838081       10.05204479056316
C            7.63526816182010        3.60827316809892        4.39362315679676
H            7.24219697747897        3.49324636780293        3.37651210481516
H            7.45211744648598        2.67479837281762        4.93944463414928
H            8.71007509304931        3.79373800627142        4.33806667159946
C            4.65353815398236        4.34119774609944        4.01975698774133
H            4.65824925220130        4.84504084266184        3.04529951576577
H            3.63741517231381        4.36992365952513        4.42295586455092
H            4.94583572252703        3.29622840478361        3.86884296584891
C           11.72172853671999        5.70179389680418        7.21964606464023
H           11.49846837831632        5.39536376762815        6.19269508808167
H           11.69493999499602        4.81359611546437        7.86280811609601
H           12.72640258454306        6.13791408289628        7.25205048901736
C           12.02494800417863        8.15346430013908        9.26894428838961
H           12.12749142810979        9.21767073667208        9.48496394549868
C           12.99594627036089        7.31892990437168        9.73940871693619
H           12.94331349234514        6.24531564574812        9.59516376911724
H           13.83969493800069        7.70049673104751       10.30415855002678
C            8.72874739363057       11.72892980858549       11.48994998495699
H            8.79624854063321       12.74976914459484       11.09305532214294
H            9.72386855795580       11.27711813020915       11.46139593362181
H            8.39749734428061       11.78903483496559       12.53346317192601
C            5.74495853874048       12.03197427057144       11.57845013321741
H            6.34248474790880       12.89525566412244       11.87285296077016
C            4.48284963566564       11.93260251568273       12.05988442567845
H            3.86335645777931       11.07680834587991       11.82616460391295
H            4.06596160315485       12.69088282749340       12.70969385763036
C            1.56693327789868        9.82605026427074        8.90901675015625
H            1.80750918402150       10.88828093384547        8.78530941318589
H            1.50965243062567        9.60173171967155        9.97941495625937
H            0.59575285974340        9.62902006821705        8.44590380891355
C            1.23553513749172        7.75275369820452        6.60751284775796
H            0.73553410566787        8.68208500381466        6.31254793810833
H            0.59083199560100        7.21718892093001        7.31449254897819
H            1.39741549137837        7.13797605831280        5.71909961199210
C            3.99320774791624        4.02611453947877       10.65568395368838
H            3.32731391187124        4.27831677731418       11.48799946530658
H            4.57410200809186        3.13583894605869       10.92112701079082
H            3.38866318367948        3.81158383045507        9.76973409087459
N            5.78163235995711        5.66562309731992       11.29569687445266
H            5.84537864486752        5.36290184064768       12.25092509833214
C            4.91530536552331        5.15376105820045       10.36673576115428
C            6.52480311568240        6.61374613149269       10.70791814349006
H            7.28018195236238        7.18962969700716       11.21755864977060
N            6.18435625235215        6.71655447361865        9.44270886665241
C            5.18159931799398        5.81593729038657        9.21455702183624
H            4.74232486268466        5.71987571645488        8.24183042578072
C            6.18655260472602       12.27937099403448        4.47081327579953
H            5.74784760362429       12.04605112529448        3.49333491184359
H            7.01340695502982       12.98370314787516        4.32534848860484
H            5.42053863397925       12.74691673796910        5.09556099975222
N            7.63703005195846       10.22724374822419        4.57672477513134
H            8.12118887416279       10.40977827112904        3.71478113085673
C            6.66969058563216       11.02981950610181        5.12387977804295
C            7.81106242432927        9.16771933065844        5.38257153220177
H            8.51831190378498        8.37641891108584        5.19312354336620
N            6.99706195524430        9.25388356718687        6.41524277319922
C            6.27855727549277       10.40525960162702        6.27078266347542
H            5.53938140658646       10.68674608631105        6.99850536509233
87
 energy: -128.454712715718 gnorm: 0.035069842661 xtb: 6.7.1 (edcfbbe)
Fe           6.66570241596526        7.91953684854723        7.92762976242450
N            6.46545696533943        6.46357127903241        6.54074077312374
N            8.61238379663818        7.58790006223609        8.02524199726802
N            6.85088071079253        9.35227003257152        9.27737384881211
N            4.72862712760321        8.22098685031882        7.79783278164909
C            5.34153706887071        6.09661702502430        5.85850268226224
C            5.61626603406677        5.01182142438646        4.95191132521849
C            6.93388357592002        4.71247843058910        5.10573593183147
C            7.44384543358304        5.62626647602139        6.10341696079570
C            9.29930172567269        6.59519881416006        7.39458267502246
C           10.69871077162780        6.64732858838826        7.72301975544504
C           10.86297361168972        7.71226207767125        8.56783698179428
C            9.54209902562088        8.29238935457579        8.72257109638223
C            8.00789152682301        9.85288512414521        9.79293360977759
C            7.74804018696045       10.93150532173451       10.69876660549573
C            6.38104797311628       11.06512489008549       10.76302273788132
C            5.85120816429722       10.06621979500402        9.86274945164998
C            4.01371753812670        9.05655850490279        8.59335800154302
C            2.61543924215017        9.00646534922558        8.27165511358019
C            2.49321095877926        8.10583663857310        7.26227398527137
C            3.81687891273463        7.61578575424678        6.98738323597496
C            4.08433898314705        6.62198343923714        6.06587406282925
H            3.26279207773713        6.19982119641684        5.50988602029537
C            8.74921995642462        5.64971189452758        6.54609928680092
H            9.39819725605301        4.86450217367930        6.18880732214058
C            9.27470328103107        9.37116665095143        9.53237551082017
H           10.09861834084629        9.86486683693587       10.01958310905566
C            4.52031853005222        9.90945458673728        9.54679766368367
H            3.80599721020659       10.53629684680149       10.04612675381548
C            7.65088920598551        3.61121343750266        4.40246209112291
H            7.26333929096141        3.50008425487674        3.39120847363904
H            7.48087162745124        2.67230202758353        4.93171056612290
H            8.71847413464707        3.79048294448552        4.34551592033589
C            4.65314117671324        4.34823590561343        4.02566669999205
H            4.65222407575938        4.84473837704664        3.05420092272314
H            3.64175988007472        4.37220532551782        4.42021820403989
H            4.93589548483039        3.30866528214944        3.87339075703741
C           11.72391138377846        5.69357211081015        7.22011186652915
H           11.50934699872827        5.39518225919925        6.19695310691446
H           11.71888519485109        4.79895523245375        7.84459928068689
H           12.71594541787116        6.13715457964364        7.25548383651083
C           12.04665558403042        8.14022155775834        9.27690174043206
H           12.12774204507588        9.20403352655937        9.47995223003134
C           12.98129432395327        7.33620045578213        9.73526713558051
H           12.94002538956631        6.26936763079303        9.59891299575582
H           13.83248317150771        7.70719755411554       10.28137843558447
C            8.73278285579837       11.72654846075924       11.48593429813565
H            8.80127916968416       12.74227506029464       11.09426311959509
H            9.72223511344149       11.28275388067720       11.46001857333183
H            8.41181567141164       11.78837539412342       12.52519679095402
C            5.70972418322771       12.02905588867061       11.59490019398741
H            6.31810974830735       12.88575992590984       11.86713871176202
C            4.48336644302558       11.93932926741894       12.07827586115459
H            3.85666775490862       11.09077273276226       11.87527861576130
H            4.06330413362274       12.70249249240300       12.70766722100321
C            1.55959795997523        9.83056814274647        8.91482452918132
H            1.79026093615349       10.88878424219270        8.79666856866082
H            1.49705886668239        9.61088672032227        9.97897280580669
H            0.59400892515764        9.63257192764951        8.46021213923753
C            1.21658434628427        7.74521069119729        6.59073475940168
H            0.70571739841139        8.65806289865752        6.29009248965878
H            0.57338879698022        7.20634153624903        7.28585926095284
H            1.37959240106566        7.13218511644586        5.71254712409010
C            3.98937110490507        4.01977744890360       10.67097192138676
H            3.32363320494149        4.27094332533950       11.49367417610173
H            4.55074279733055        3.12454864286930       10.93441253501788
H            3.39457412758596        3.81075266336969        9.78768935986191
N            5.78277553869956        5.65952336307348       11.30542808741779
H            5.84480905725348        5.37514221166643       12.26914576334896
C            4.92626405150129        5.13014653725598       10.37725251026831
C            6.53348023562511        6.60052383916191       10.68520910583077
H            7.27885186330641        7.18517179882826       11.18496802522882
N            6.20356854894646        6.69007278922426        9.41876577535825
C            5.20211878734569        5.78485765405008        9.21762732830886
H            4.74981201933803        5.67951911020218        8.25749968536089
C            6.18898985568416       12.27806519427624        4.46792247191228
H            5.75220222721382       12.05592360833008        3.49490409384299
H            7.00802258743145       12.98101353349757        4.32457784091358
H            5.43176754447803       12.74404337947866        5.08941035762131
N            7.63381833609976       10.23196584752687        4.57524047820507
H            8.12410528153539       10.41117434411786        3.71364859183492
C            6.66268604765116       11.03065108043587        5.11857939210720
C            7.79920085299684        9.16874373358610        5.39384617341809
H            8.50045766316009        8.38059116003481        5.21028356471133
N            6.99160600825636        9.24810725085514        6.42151864357843
C            6.28083315438618       10.40018810507203        6.26790788973145
H            5.54764161253186       10.68795427174556        6.99190786027294
87
 energy: -128.458852859462 gnorm: 0.016059348438 xtb: 6.7.1 (edcfbbe)
Fe           6.66205615727798        7.92304732110281        7.92114772018989
N            6.46687461849527        6.45734072436172        6.53311546181335
N            8.61480660473978        7.57443009510660        8.02995729398897
N            6.85309177826324        9.37736851496370        9.26831925110663
N            4.71727434879398        8.24467663508562        7.78291425954512
C            5.34218036903802        6.10160352995011        5.85464408358494
C            5.61494389845908        5.00915647827591        4.95418510783129
C            6.93342301282517        4.70146372484204        5.11241654946802
C            7.44626888614484        5.61712879905577        6.10347482591072
C            9.29844218399434        6.57680862697024        7.40345523482473
C           10.69609495525712        6.62065455595678        7.74167230982935
C           10.85805273899721        7.69071598721009        8.58063553523533
C            9.54100876821896        8.27729803957262        8.73089577510936
C            8.01297009327013        9.86452845644170        9.79017046973454
C            7.74777159524121       10.93594039726066       10.70568246301339
C            6.38040611243564       11.06801480127853       10.77029058402142
C            5.84964739961745       10.08761609298586        9.84864531611898
C            4.00617395315907        9.08863012542946        8.57294795980201
C            2.60233322133735        9.02732555795272        8.26040998269127
C            2.47609932135850        8.12511279066559        7.24968395066926
C            3.80529102612811        7.63871113099148        6.97325691169907
C            4.08484536098254        6.64652325711300        6.05131518262986
H            3.26529339559253        6.23352897642865        5.48519425981734
C            8.75608499699693        5.63958076490146        6.53999619036216
H            9.41531132687805        4.87242481141022        6.15831112890613
C            9.27880388165132        9.36763117910284        9.53100726147325
H           10.11033880455682        9.85045787097347       10.01913437812092
C            4.51375162788166        9.94013386176392        9.53151407026233
H            3.79935809082775       10.57070594504834       10.02710035603802
C            7.66666503724034        3.61090471764087        4.40890438150292
H            7.28773938528295        3.50186075430457        3.39489784668357
H            7.51230659495435        2.66329042832851        4.92847307315724
H            8.73374850574893        3.80000983457876        4.35769630061127
C            4.64840933748173        4.35131947143033        4.02943084890098
H            4.64528018699062        4.84883478229303        3.05849472810752
H            3.63703694615243        4.37749006965067        4.42437029941512
H            4.92604889157107        3.31124596989249        3.87498570697544
C           11.73088841121887        5.68316390029091        7.22352519815516
H           11.52123293886697        5.39741072482046        6.19533918954863
H           11.74699558109562        4.77462792615823        7.82896836934174
H           12.71570681643411        6.14151185906540        7.26307787333374
C           12.04678961485849        8.13901152647583        9.27650930405987
H           12.11754939413438        9.20539598106742        9.46436238361807
C           13.00358112205946        7.33661880868462        9.73008055462307
H           12.95131005004699        6.26714381119016        9.62014463994321
H           13.85421156013700        7.71270543107683       10.27246486881025
C            8.73885271696146       11.72761121495307       11.48723357193782
H            8.80892647055176       12.74269720353127       11.09459573761220
H            9.72809120473634       11.28363737054899       11.45620104728091
H            8.42740961125212       11.79230792173523       12.52861899331308
C            5.69687043311936       12.03196145277753       11.60113825003506
H            6.30462549984997       12.89282612470994       11.85700460272009
C            4.47074243335134       11.94807719831003       12.10723170232897
H            3.84183061384635       11.08621787920123       11.95703263174406
H            4.05900739273414       12.72675455191341       12.72465012047549
C            1.54440395355535        9.83939469407821        8.91784929996052
H            1.76288783884513       10.90135763660349        8.80800920972507
H            1.48618534664299        9.61569841789076        9.98195066364924
H            0.57649521697109        9.63635767541360        8.47048863901708
C            1.20184807577059        7.74079433546950        6.57554879520506
H            0.67031627621791        8.63884034431088        6.26321594542872
H            0.55940140616413        7.19219637299874        7.26408284265165
H            1.37348994249284        7.12402699201491        5.70083064967099
C            3.98888910884986        4.00936036160395       10.69323679991587
H            3.32242446919303        4.27298029102913       11.51142368302111
H            4.53090099010481        3.10367651301094       10.96350902416763
H            3.39392910328974        3.80405809809421        9.80947709103848
N            5.79443271331046        5.65398379631439       11.30881252587673
H            5.85395577179712        5.39218216248152       12.28038517335995
C            4.94041669703370        5.10592542226559       10.38756952458857
C            6.54382673653687        6.58621245723568       10.66624310570048
H            7.28581235040605        7.18390339250904       11.15408300764696
N            6.21305847969026        6.65881716581470        9.39992591662336
C            5.21870598208471        5.74156010024752        9.21663886563554
H            4.75945963836706        5.61599706792572        8.26199889095214
C            6.19256888819367       12.27914503721589        4.46481761562446
H            5.75593997370253       12.06388394123699        3.49026645108051
H            7.01337076054178       12.98017083133294        4.32372420004787
H            5.43745294689194       12.74757169921456        5.08641548051967
N            7.63129288811212       10.22919190994991        4.57584312063732
H            8.12616324196889       10.40571276215693        3.71625227152730
C            6.65920933903866       11.02982123676183        5.11592935127445
C            7.79121808213837        9.16705237530413        5.40044771412945
H            8.48985037573740        8.37647636047894        5.22319054028265
N            6.98291773354034        9.24859878164402        6.42552193680629
C            6.27619492848972       10.40217382962166        6.26614072134803
H            5.54512546523158       10.69768197093667        6.98824484485104
87
 energy: -128.460809550316 gnorm: 0.012241364964 xtb: 6.7.1 (edcfbbe)
Fe           6.65825037147623        7.92680203021134        7.91039506974693
N            6.46968299807163        6.45646438485663        6.52360019508606
N            8.61657394329865        7.56131608794239        8.03040291578778
N            6.85048637679380        9.39304138280314        9.26620251858636
N            4.70202763575512        8.26180226974977        7.77870950800283
C            5.34354202856637        6.10798402501389        5.85053109716631
C            5.61228802127402        5.00770641611187        4.95498332751501
C            6.92995630277345        4.69472538140099        5.11424628446076
C            7.44735573422311        5.61242886136936        6.09988893395401
C            9.29818162583745        6.55889468201961        7.41052278699665
C           10.69504714153158        6.59381712199103        7.76257113601787
C           10.85309101010407        7.66528040572812        8.60033906854619
C            9.53772964440851        8.26006492306451        8.74082890903235
C            8.01247493683581        9.87064740388589        9.79178592347395
C            7.74590492536990       10.93802035978081       10.71487236095515
C            6.37916566633227       11.06891268444918       10.77922850130874
C            5.84634369302930       10.10225312002659        9.84216649879516
C            3.99495600425870        9.11805559385366        8.56004575977982
C            2.58833319079052        9.05170674045170        8.24534197508549
C            2.46058830387313        8.14597129638504        7.23690155963616
C            3.79443340593691        7.65724004147422        6.96405134165764
C            4.08892128251866        6.67050450713785        6.03926164210360
H            3.27365479340767        6.27395204497192        5.45287395162835
C            8.76032117890933        5.63368590522669        6.53110664808476
H            9.42529938103272        4.88016525607444        6.13382507530527
C            9.27557004683035        9.35914139737898        9.53377908217100
H           10.11404984490098        9.83222060754818       10.02221323032290
C            4.50715743192925        9.97016230276478        9.52053348256417
H            3.79930886257592       10.61010136186856       10.01893097133075
C            7.67976187418478        3.61178289880191        4.41373365517460
H            7.31248947075207        3.49932969147836        3.39502613802355