78
 energy: -115.929457568422 gnorm: 0.365211105608 xtb: 6.7.1 (edcfbbe)
Fe          28.18700000000000       93.94799999999999       52.99499999999999
N           29.25500000000000       95.61300000000000       52.37600000000000
N           29.29600000000000       93.89000000000000       54.74200000000000
N           27.14000000000000       92.29799999999999       53.65699999999999
N           27.07400000000000       93.98799999999999       51.25200000000000
C           28.97100000000000       96.36000000000000       51.30499999999999
C           29.70600000000000       97.53199999999998       51.30399999999999
C           30.41800000000000       97.51100000000000       52.49000000000000
C           30.06200000000000       96.34199999999998       53.12100000000000
C           30.17800000000000       94.80899999999998       55.12499999999999
C           30.80000000000000       94.47499999999999       56.30700000000000
C           30.28900000000000       93.19799999999999       56.62400000000000
C           29.33600000000000       92.90800000000000       55.64800000000000
C           27.45000000000000       91.51899999999999       54.71300000000000
C           26.56100000000000       90.45600000000000       54.83100000000000
C           25.65300000000000       90.62800000000000       53.74999999999999
C           26.13500000000000       91.70199999999998       53.01199999999999
C           26.12300000000000       93.10899999999999       50.90100000000000
C           25.71200000000000       93.31699999999999       49.59200000000000
C           26.39500000000000       94.45600000000000       49.17399999999999
C           27.18200000000000       94.85400000000000       50.25699999999999
C           28.02300000000000       95.98300000000000       50.32200000000000
H           27.93000000000000       96.67400000000001       49.48599999999999
C           30.48800000000000       95.95500000000000       54.39200000000000
H           31.16400000000000       96.65199999999999       54.88600000000000
C           28.50100000000000       91.78500000000000       55.60500000000000
H           28.69100000000000       91.02100000000000       56.35900000000000
C           25.66900000000000       92.09500000000000       51.75500000000000
H           24.82100000000000       91.52400000000000       51.38000000000000
C           31.37800000000000       98.55200000000001       53.00200000000000
H           30.93000000000000       99.07199999999999       53.87499999999999
H           31.58299999999999       99.29800000000000       52.20500000000000
H           32.32500000000000       98.06499999999998       53.32000000000000
C           29.71200000000000       98.61700000000000       50.23200000000000
H           28.72000000000000       98.65200000000000       49.73400000000000
H           30.48900000000000       98.38900000000000       49.47099999999999
H           29.91600000000000       99.60399999999998       50.69900000000000
C           31.87300000000000       95.34699999999999       56.95500000000000
H           31.51100000000000       96.39500000000000       57.01800000000000
H           32.79800000000000       95.32200000000000       56.34100000000000
H           32.08800000000000       94.97799999999999       57.97999999999999
C           30.62500000000000       92.30199999999999       57.64500000000000
H           30.00200000000000       91.40300000000001       57.74600000000000
C           31.71200000000000       92.41000000000000       58.60599999999999
H           32.39100000000000       93.27500000000001       58.58600000000000
H           31.86700000000000       91.62800000000000       59.36400000000000
C           26.53500000000000       89.49200000000000       56.03100000000000
H           26.51500000000000       90.07599999999998       56.97599999999999
H           27.44500000000000       88.85499999999999       56.02099999999999
H           25.62600000000000       88.85599999999998       55.98200000000000
C           24.49400000000000       89.92800000000000       53.35699999999999
H           23.86000000000000       90.40300000000001       52.59600000000000
C           24.01500000000000       88.63199999999999       53.83600000000000
H           24.57900000000000       88.07599999999999       54.59900000000000
H           23.08500000000000       88.19900000000000       53.43900000000000
C           24.75300000000000       92.46400000000000       48.76300000000000
H           23.70500000000000       92.70699999999998       49.04100000000000
H           24.93900000000000       91.38699999999999       48.96400000000000
H           24.89800000000000       92.67899999999999       47.68299999999999
C           26.30300000000000       95.10599999999999       47.80500000000000
H           25.29300000000000       94.92799999999998       47.37700000000000
H           27.06400000000000       94.66300000000000       47.12700000000000
H           26.46800000000000       96.20099999999999       47.89700000000000
O           26.92000000000000       95.14799999999998       53.87000000000000
H           26.18000000000000       94.60200000000000       54.13500000000000
H           27.00200000000000       96.02399999999999       54.00200000000000
C           30.77700000000000       90.22899999999998       49.75100000000000
H           31.11500000000000       89.26399999999998       50.18600000000000
H           31.58100000000000       90.63100000000000       49.09800000000000
H           29.85600000000000       90.05200000000001       49.15500000000000
N           31.19700000000000       91.58499999999999       51.92300000000000
H           32.09300000000000       91.20699999999998       52.15199999999999
C           30.48300000000000       91.21700000000000       50.87200000000000
C           30.56200000000000       92.50200000000000       52.60200000000000
H           30.94100000000000       92.98099999999999       53.50400000000000
N           29.42100000000000       92.72600000000000       52.00899999999999
C           29.33100000000000       91.96299999999999       50.95500000000000
H           28.45400000000000       91.98999999999998       50.32000000000000
78
 energy: -116.011120293043 gnorm: 0.151564085252 xtb: 6.7.1 (edcfbbe)
Fe          28.19623279490617       93.93775796165211       52.97900728702724
N           29.21417054599157       95.60353826145986       52.38448909322268
N           29.27646018647089       93.89309274465424       54.72411026299103
N           27.16353921239417       92.30679359379791       53.64214456372847
N           27.06931203634850       93.99839796744732       51.28291531903817
C           28.95176819681845       96.34540948868168       51.28625013391446
C           29.70839802738508       97.54659077286065       51.29767212731837
C           30.42213879244072       97.52978606531839       52.47586388762224
C           30.06370365595449       96.33069917013697       53.13058633912748
C           30.17346592668837       94.82235100709703       55.11442655643867
C           30.81506194376261       94.46602082999090       56.31679845718664
C           30.31177930092000       93.20131684904941       56.64390133942216
C           29.32718181709564       92.90395374602461       55.64309420228248
C           27.45649494101617       91.53090951035527       54.71843877101561
C           26.54365158225567       90.45293241206203       54.83749165316008
C           25.64830863462247       90.59555693491835       53.76268463179056
C           26.12643917304156       91.71612152738979       53.01276160052053
C           26.12974173509965       93.09563437784860       50.91581097629513
C           25.70957358357211       93.32345487691754       49.57812615060961
C           26.38301983358140       94.45516475231587       49.16271086703227
C           27.20151691463578       94.85867090942544       50.25802115943105
C           28.02773694295203       95.98227731498990       50.30335065715029
H           27.93247771486959       96.67314482427985       49.47606137446473
C           30.49625407157099       95.96519443627062       54.39497677170665
H           31.17051711420618       96.65574959006686       54.88358824085115
C           28.50293849628241       91.78403385357622       55.60789395230567
H           28.68169649062715       91.02450927551570       56.35902416825679
C           25.65835959284563       92.09265865801456       51.75663240930901
H           24.82579871725623       91.51956334794897       51.36959323193357
C           31.37609173980343       98.55582774480555       52.99798403233029
H           30.94074305083844       99.06999324143234       53.86539255025945
H           31.58839709249968       99.29343465309006       52.21875320480217
H           32.31316981880612       98.07894200857825       53.31327964217883
C           29.71113274081896       98.61384251826789       50.23768745755902
H           28.73578945163712       98.65556278787460       49.73984844685820
H           30.47762150870295       98.39633121280558       49.48207390275952
H           29.91536932994741       99.59165823144129       50.68742491707076
C           31.86464535728837       95.33604756470805       56.95806326459581
H           31.51497864329149       96.37522094934906       57.01783971520074
H           32.78406346919786       95.31938064410754       56.35660513948922
H           32.08725135586251       94.99281970645841       57.96948059029447
C           30.65593648028476       92.30413351903232       57.68710030863907
H           30.03054417375601       91.41369728819328       57.76398667469016
C           31.68583987925556       92.40512352727266       58.58673289401306
H           32.37280173698014       93.24357728616600       58.58035128583857
H           31.85086028073746       91.64037690400097       59.33857925214674
C           26.53049892856457       89.50175453175191       56.01588580029392
H           26.51585387748036       90.06882736273343       56.95671181440323
H           27.42680126786174       88.86615881562172       56.01610864767544
H           25.64250661599461       88.86636242261666       55.98795784952775
C           24.47781146284492       89.87930079714761       53.37783653728990
H           23.86134183752677       90.36958078487004       52.62056962278702
C           24.02659460773321       88.66367338629331       53.82713891129382
H           24.57018530188913       88.09205558946169       54.57085074467759
H           23.10988218985692       88.22609243429368       53.44266888573999
C           24.75916117840577       92.47417566983447       48.77011385727592
H           23.71838153538668       92.70240801949474       49.03728796101416
H           24.93659190986162       91.40753568109332       48.95959518536088
H           24.89476773484202       92.67269829893401       47.70129150952695
C           26.29888481731502       95.10351975336370       47.81059677012864
H           25.30649473852856       94.93407096695687       47.37801922632322
H           27.05245115657838       94.67471349748934       47.13569308820037
H           26.46708327074536       96.18367300982649       47.89070207412611
O           26.90546446150843       95.13637506618446       53.87762155146116
H           26.15261764407332       94.61572948872629       54.15214786617638
H           26.98298173893770       96.06099069005765       54.01987593499027
C           30.78552396674196       90.22457641192146       49.75776515491368
H           31.11698065206183       89.26835855894291       50.17758854709492
H           31.57225707999915       90.62019617903883       49.10374280900415
H           29.87776984293297       90.05785404842926       49.16847027769171
N           31.22003725283535       91.56615265048775       51.90773494010496
H           32.11854840070935       91.18679658258961       52.13942209747527
C           30.47152205783481       91.20390809534703       50.84741651757631
C           30.57380789593437       92.49934666696186       52.60469648839592
H           30.94856248721538       92.97211912940143       53.49302304528551
N           29.42060378906128       92.73725375284026       52.02915369005522
C           29.32711015275488       91.96172398568643       50.94986274827661
H           28.45794606066350       91.98876282395098       50.32084038197399
78
 energy: -116.032384762677 gnorm: 0.051873750201 xtb: 6.7.1 (edcfbbe)
Fe          28.19948987238936       93.93232380476361       52.96568358006231
N           29.16977787632026       95.59999290646485       52.39581082829222
N           29.26642242274345       93.89502112150028       54.70439151559394
N           27.18638203631145       92.31233198109423       53.62287620787376
N           27.07483287438959       94.00191339200775       51.30605839278119
C           28.92914815895273       96.33400594807692       51.27712918143691
C           29.70600069131158       97.55156384594423       51.29534101321490
C           30.41642970280559       97.53672255553622       52.46100437118711
C           30.05192578666109       96.32159130622793       53.13768542157291
C           30.16905829339670       94.83125400514410       55.10050666947617
C           30.82188689162741       94.45322208112849       56.31739609612403
C           30.32642189094615       93.20571620327289       56.64625007401486
C           29.32234053107419       92.90308661886083       55.63198364803728
C           27.46522117428877       91.54617697200496       54.71676712494373
C           26.52881546539306       90.46225201746610       54.83850975400179
C           25.65221429387270       90.58413892153241       53.77462520558878
C           26.12675048503342       91.72680767279090       53.00936765797189
C           26.13821354904118       93.08841297225725       50.93312507664253
C           25.71149865953173       93.33160566767205       49.57581641058577
C           26.37598191951705       94.45149995338130       49.16225813469175
C           27.21881217318203       94.85921329498925       50.26337720442550
C           28.03108129420885       95.98143522112500       50.28484647675349
H           27.94434229203879       96.66343036995615       49.45232796475457
C           30.50053070205261       95.97547737719046       54.39481196935510
H           31.18347589769492       96.65913342518132       54.87369761328137
C           28.50458342512770       91.78652362262306       55.60934536981991
H           28.66616798001432       91.03429511723446       56.36751077390134
C           25.65053211930381       92.08766551079384       51.75648350323575
H           24.83170824302375       91.50788208977404       51.35706881493371
C           31.36995199683941       98.55407167919802       52.98997237944373
H           30.94610362013949       99.06637310822745       53.85550075921721
H           31.59417067739286       99.29309969394816       52.22722771699834
H           32.30190251231146       98.08518441979771       53.30398604118629
C           29.70876237726782       98.60732772787401       50.24209855324158
H           28.74417621666966       98.65857686509307       49.74293605502687
H           30.46946532053872       98.39856354193134       49.48850666015828
H           29.91771637702101       99.58108789771146       50.67912726899139
C           31.85305561321244       95.32109865459681       56.96108337776859
H           31.50810102890156       96.35457076529880       57.01379839857899
H           32.77339131814971       95.31096710157240       56.37262037561005
H           32.08124384479454       94.99914726701638       57.96827273784209
C           30.67533228934337       92.30381535097543       57.71086497396846
H           30.04009543014632       91.42565292745699       57.77577723631497
C           31.66737729356173       92.39985960051739       58.57225729321041
H           32.36655325368071       93.21656288052267       58.57839615569711
H           31.83674142797982       91.64628274100480       59.32309502695156
C           26.52471884007822       89.51690253800021       55.99801861858121
H           26.51958054635731       90.07269093712809       56.93748096292648
H           27.41281577465639       88.88159669442749       55.99758241310008
H           25.64941456548910       88.87869095872664       55.98668825838703
C           24.47055394371176       89.84952234292059       53.39463586823604
H           23.86717974699314       90.35212120498934       52.64201247449569
C           24.04254812587249       88.68268670527884       53.82173261645404
H           24.56905031644404       88.09263466349401       54.55098502064504
H           23.12843671831488       88.24717391324381       53.45048220709487
C           24.76661303592088       92.48589335524795       48.78283947765880
H           23.72940001142979       92.70396747195646       49.04304965216414
H           24.94091668534180       91.42610509128562       48.96573025981611
H           24.89435404192692       92.67192359316250       47.71877624026421
C           26.29653728003039       95.10136422075095       47.82100908001605
H           25.31581385707217       94.93883718197723       47.37994680225211
H           27.04643550467732       94.68370753238663       47.14635531357956
H           26.46732627307327       96.17273818842494       47.89165659581175
O           26.87747468952414       95.13718008159236       53.89851906354474
H           26.10042044005051       94.65720596061888       54.18669967896904
H           26.94322107277909       96.07937251680647       54.04364827217630
C           30.79119225407800       90.22107458003714       49.76291391288526
H           31.12325899557423       89.27191818403539       50.17632563723492
H           31.57186922561551       90.60906136007067       49.10982216064186
H           29.89694383149637       90.05337158500603       49.17073352878215
N           31.24615403723943       91.54528221339548       51.88510263866250
H           32.14671823158194       91.16061434601549       52.11221530451169
C           30.45721785360900       91.19725009920775       50.82740049715549
C           30.59927535793257       92.48743423034271       52.60082549064726
H           30.97929570518542       92.95263000298823       53.48054459008161
N           29.43319108605856       92.74714359412238       52.05672962767466
C           29.32752590551769       91.96496030010709       50.95704501258152
H           28.46035874616266       91.99400615351458       50.33291565820705
78
 energy: -116.038929609889 gnorm: 0.025120193396 xtb: 6.7.1 (edcfbbe)
Fe          28.19465592313700       93.93685263185033       52.96775183899984
N           29.13761818716929       95.60845733906538       52.40419102480278
N           29.26628076079105       93.89846001149621       54.69348781031743
N           27.19726510219250       92.31566107557158       53.60777532411340
N           27.08317132443939       94.00358849136224       51.31397249245130
C           28.91224535090899       96.33499250082055       51.27559965269197
C           29.69805727333784       97.55413220353772       51.29223203912591
C           30.40556240156141       97.54037521625835       52.45382509141115
C           30.03316228348585       96.32471872528704       53.14095852181573
C           30.17032006335646       94.83421153283109       55.09066448244436
C           30.82423016450127       94.44571806048418       56.31229027101905
C           30.32668394132633       93.20680566374794       56.64047866254302
C           29.32070937498289       92.90585618593317       55.62158636976538
C           27.46846749062378       91.55934408774195       54.70997555573021
C           26.52228552363865       90.47763264120452       54.83639097390982
C           25.65597419894024       90.59037107665668       53.77544910759226
C           26.13236179647437       91.73142543514460       53.00107037223229
C           26.14645794479388       93.08932951304622       50.94092955503411
C           25.71476864761575       93.33725163896702       49.58058347476990
C           26.37687624247441       94.45081786661505       49.16490998123680
C           27.22765723182130       94.85783879595279       50.26521793765264
C           28.03554885036152       95.97948951863009       50.26867122678986
H           27.96812661864610       96.64334187265186       49.41871305502891
C           30.50089408046885       95.98205850906567       54.39127713868332
H           31.19974140077194       96.65896650799473       54.85782330880476
C           28.50052803651032       91.79413488193210       55.60799238526084
H           28.64269416820634       91.05180554280049       56.38011697729254
C           25.65211751790404       92.08423353491797       51.75075616132320
H           24.84416088426536       91.49634698458252       51.34034875514006
C           31.36458964178115       98.55291068089016       52.98152136251025
H           30.94617359981740       99.06517124149687       53.84864706950232
H           31.59624535142581       99.29521183859129       52.22426767738003
H           32.29486394565632       98.08126850826116       53.29213320771233
C           29.70538765475384       98.60494525610474       50.23719476996423
H           28.74228589544525       98.66340989208241       49.73832326214578
H           30.46489857199830       98.39315621902517       49.48460781011066
H           29.92242496186749       99.57778782635016       50.67103950190634
C           31.84457326489948       95.31311510665714       56.96638107007382
H           31.49476494772492       96.34395009242303       57.00618718499350
H           32.77275705490488       95.29963717824326       56.39219007463713
H           32.06204252392125       95.00353780082271       57.97956359371213
C           30.66693885878447       92.30220925644629       57.71424704089227
H           30.02327817691015       91.43307983744617       57.78230051644974
C           31.67428835501062       92.38602391245142       58.57666719865462
H           32.39270745022286       93.18448806592586       58.57948251514435
H           31.82938745281398       91.63437871482189       59.33082068332662
C           26.52231185097961       89.53370745436021       55.98977294678319
H           26.52986997983556       90.08773978087373       56.92863685044698
H           27.40703800776274       88.89621622405645       55.97358470280321
H           25.64612066872136       88.89797925738699       55.98771676740903
C           24.47086717149705       89.85020277271471       53.40054253989968
H           23.86150660925046       90.35625837726835       52.65992426587842
C           24.04576282699687       88.66674793563760       53.82837876035452
H           24.57987314172254       88.05874894187465       54.53576279117373
H           23.12743022478788       88.24068391805129       53.46115018957001
C           24.76768758041141       92.49295748481887       48.79693434344585
H           23.73225745641430       92.70975969565261       49.06055958518240
H           24.94614866592095       91.43572393252985       48.98113538642082
H           24.89129240282683       92.67539859416968       47.73263721842972
C           26.29687927812886       95.10399539570635       47.82756825398157
H           25.31852679762592       94.94350104040048       47.38201296867273
H           27.04845166665731       94.69055021451945       47.15378929258020
H           26.46782483966035       96.17397291873431       47.89927462092903
O           26.83487625880027       95.14333823945317       53.93178430412057
H           26.03560247486079       94.69730828694789       54.22413970223619
H           26.88799008101027       96.09168579699492       54.07099610673432
C           30.79358881652276       90.21413225832187       49.75937049410474
H           31.12985662442765       89.27004558455668       50.18051257366967
H           31.57869875672478       90.59796840819453       49.10996738737199
H           29.90795520669271       90.03692201287160       49.15925768681741
N           31.27228444998693       91.52912570811627       51.86107736230397
H           32.17495705193927       91.13537113571603       52.07119817830379
C           30.45331404067924       91.19466583266032       50.81557974536389
C           30.63895267517799       92.47348163795591       52.59427109344119
H           31.03956914261073       92.92937623287180       53.47016785562050
N           29.46105814088186       92.75249395998441       52.07991605323376
C           29.33493520061781       91.97046196773377       50.97184746136983
H           28.46028141722141       92.00497952467548       50.35791842424792
78
 energy: -116.043652849964 gnorm: 0.023236490561 xtb: 6.7.1 (edcfbbe)
Fe          28.19360665542449       93.93857472736457       52.97557781109433
N           29.10684521885327       95.62058108488384       52.41488326711273
N           29.27269383537159       93.90032348994094       54.68342006940022
N           27.20394901938267       92.31754522077510       53.59281317489867
N           27.09618374604991       94.00154578307570       51.31910255943992
C           28.89566922106617       96.33888915044236       51.27907554625275
C           29.68823983676151       97.55607003999607       51.28975726826096
C           30.39139113011993       97.54432852397885       52.45053239986688
C           30.01008315180886       96.33149231666631       53.14628926737881
C           30.17760519177658       94.83375853611464       55.08000232431804
C           30.82949149596520       94.43791172196593       56.30500509012927
C           30.32874912916166       93.20418203021859       56.63136993386212
C           29.32151353563152       92.90865827723995       55.61114541664345
C           27.46827527894529       91.57438345082984       54.70314515285728
C           26.51744862510395       90.49451839514458       54.83521327391573
C           25.66024104630554       90.59566536413172       53.77173950054699
C           26.14006688234256       91.73073448140612       52.98902193116788
C           26.15682837882195       93.09110615550910       50.94689257690598
C           25.71834587995082       93.34238351911276       49.58768936783335
C           26.38143725516359       94.45082043213667       49.16915261478452
C           27.23677931271990       94.85449763848695       50.26811167740259
C           28.04423157552024       95.97441905238925       50.25340530426432
H           28.00303468691742       96.61410767024302       49.38201859957831
C           30.50303653102581       95.98658819456820       54.38652235009943
H           31.21913525658845       96.65641659804152       54.83804645030698
C           28.49211475926310       91.80526113960144       55.60859802240144
H           28.61363755963511       91.07390174268015       56.39440638662111
C           25.65806535399867       92.07616878185051       51.74018856819919
H           24.85881384604817       91.48389596321340       51.32060125761162
C           31.35863310394215       98.55124240798891       52.97410214502621
H           30.94574184518751       99.06385062035747       53.84449493281471
H           31.59233859193637       99.29528856927772       52.21689222565130
H           32.28864450032491       98.07194523774774       53.27720273535640
C           29.70052713897790       98.60132436479644       50.22762558586554
H           28.73574686798191       98.66736291233561       49.73114729422000
H           30.45779303579389       98.38000159836932       49.47403283082985
H           29.92886845575176       99.57464850897645       50.65853191411056
C           31.83775522076645       95.30549798892444       56.97587245701561
H           31.48438153404879       96.33629603274767       56.99900748576823
H           32.78050916356253       95.28498399570351       56.42411418957897
H           32.02775759611270       94.99661045452035       57.99745043120308
C           30.65854031365981       92.29926484131718       57.71076585807551
H           29.99602942189241       91.44826475737324       57.80201074632738
C           31.67692135000228       92.37028883268583       58.56962930476880
H           32.41453005530628       93.15173649719050       58.56182951873876
H           31.80928525859227       91.61851423838938       59.33001439267350
C           26.52019004015084       89.55121218202203       55.98673809987974
H           26.54627157328071       90.10372792239083       56.92665397593959
H           27.39956081708978       88.90581655986509       55.95006723124884
H           25.63469575504454       88.92601112815272       55.98811253045545
C           24.47442517585173       89.85125143939297       53.40585144725642
H           23.84227550292886       90.36131363325634       52.69046004240310
C           24.06401282231908       88.65478792057601       53.82708597036596
H           24.60924670249800       88.03939706293532       54.51835191879484
H           23.13342805524332       88.24375619181754       53.47121626167907
C           24.76410640675954       92.49805294346241       48.81463079711912
H           23.73103450935821       92.71634135842805       49.08804530640563
H           24.94732608568469       91.44133387164160       49.00072221723652
H           24.87993639722436       92.67995191094400       47.74832288450369
C           26.30000506868600       95.11027550880587       47.83492126571767
H           25.32200530496257       94.94807312843623       47.38660935697049
H           27.05537362046368       94.70137981250971       47.16111590325640
H           26.46610689878283       96.18153304802340       47.91261692277021
O           26.77886836310003       95.14808600633096       53.98441702424422
H           25.94419446572668       94.75361501219362       54.26441778320551
H           26.80512099994195       96.10292896018989       54.09841841739094
C           30.79571299620827       90.20494412399111       49.75283121476493