87
 energy: -124.720498946567 gnorm: 0.000054889072 xtb: 6.7.1 (edcfbbe)
Fe          -3.47640977261297       64.13126673014338      113.47656193029756
N           -2.68279481018004       65.96781001198080      113.34226664869612
N           -1.95758058654404       63.41112355390857      112.38793227972968
N           -4.25353265617328       62.29821042763563      113.61331325706679
N           -4.94531134920567       64.84954559519531      114.63232832081755
C           -3.12571096805525       67.09396347986811      113.96370476685546
C           -2.29362306717322       68.22647877983769      113.62216947045306
C           -1.33074689072316       67.75487699328887      112.78531828622829
C           -1.57967672266147       66.33799348056961      112.63980423532576
C           -0.93171629731906       64.11321480966517      111.83826361097715
C           -0.01775848691022       63.23052480185572      111.14930546879978
C           -0.51058709174583       61.97294613853777      111.30900119790510
C           -1.72615681479566       62.10828147806451      112.08107768203192
C           -3.73607742725675       61.15239289072518      113.10906603781390
C           -4.62106185793744       60.03227180842718      113.36805491428053
C           -5.68823393356260       60.54639706244149      114.05384746999432
C           -5.43127289444678       61.95730470698761      114.20103032896654
C           -6.00654892741896       64.15972831697535      115.11963132129502
C           -6.85170579424944       65.02188447140311      115.92344426322205
C           -6.24359610655773       66.24960821150408      115.92491029153908
C           -5.06601136289124       66.11872571288123      115.10621346207080
C           -4.21866783964835       67.17060257797897      114.80339030097608
H           -4.44349062901924       68.13288511279644      115.23706987697443
C           -0.76063386130519       65.48314110739042      111.92413562218805
H            0.09140998785216       65.91339989642049      111.41995254109004
C           -2.55020294705120       61.04845818607743      112.40821325249732
H           -2.25334204502714       60.06837344303077      112.06761457234525
C           -6.26412531435848       62.82218070314624      114.88828303676483
H           -7.17606146839671       62.41363652785764      115.29581301770143
C           -2.51271979033946       69.61267698416478      114.12349748625722
H           -2.45017811624555       69.64062577508730      115.21170064020140
H           -3.49929578954896       69.97511245809234      113.83311411060019
H           -1.76592242307124       70.29268061849575      113.72073173175157
C           -0.21086931516393       68.48438697392115      112.12538310210762
H           -0.25621671530579       68.36008664434299      111.04312939032442
H            0.75205276792023       68.10364414942873      112.46813896596677
H           -0.25659610863726       69.54725223076363      112.34985474764545
C           -6.64432187030102       67.48171136706318      116.65863111728541
H           -7.18184916006698       68.16960101709778      116.00338754140840
H           -5.76875388262992       68.00050247602262      117.04625196617397
H           -7.29458433623488       67.22434571433941      117.49232929995735
C           -8.06105107231569       64.59977311929141      116.59401788363735
H           -8.07483943273834       63.56982821204382      116.93152603394539
C           -9.12950257956259       65.36023241978525      116.81050902730358
H           -9.19349469176312       66.37411175430780      116.45604471477293
H           -9.99415236412682       64.98143289987040      117.32984763253239
C           -6.85783838914537       59.82254191493328      114.62348597673979
H           -7.73347802697352       59.93616010722158      113.98253161215268
H           -7.11062910045746       60.21021929026031      115.60940754437642
H           -6.63270767562069       58.76185525643399      114.71439606173240
C           -4.35755231340003       58.66565736852068      112.97517102174784
H           -3.31468887353225       58.36939399669481      112.98221211445463
C           -5.27612757914553       57.77759294196093      112.60927474353160
H           -6.31938429076191       58.03038280707455      112.53618624953344
H           -5.00936323461622       56.76863236733235      112.34107203784147
C            0.02682600407560       60.67698484297944      110.80718236359425
H           -0.68426109734029       60.20468208921562      110.12868439953436
H            0.20972673101470       59.99151599551942      111.63493493562422
H            0.96190499135155       60.82631256238285      110.27272047029554
C            1.20589252067206       63.68248257155069      110.42819208138522
H            1.72890879130277       62.83733331822967      109.98759403677039
H            1.88941229403354       64.19165157962138      111.10856605561331
H            0.94517782121216       64.37760824317633      109.62958458666760
C           -1.72626182993402       62.60552925053387      118.53872152340278
H           -1.45435125535241       63.38852435871906      119.24657065386329
H           -0.97908230729810       61.81443981080295      118.60187814455020
H           -2.69031471845351       62.19705024923812      118.82494060346954
N           -0.73638393497744       63.73213004033403      116.53300190889085
H            0.18206023403009       63.85262576671713      116.92740246343027
C           -1.80612618394938       63.14652800373985      117.15835191043635
C           -1.14072881280817       64.11212358064945      115.30016083047133
H           -0.51038495768071       64.59888986066200      114.58503087325668
N           -2.39925132301920       63.80296580157955      115.10762363783593
C           -2.82747428810585       63.20194483735710      116.25398646039969
H           -3.83406864673859       62.85206047278063      116.35011874244853
C           -3.57026422534633       63.44723847162174      109.35321191023452
H           -2.93608834082061       63.61164973716108      108.48425624487018
H           -4.50419237595305       62.99538936820835      109.02775118400939
H           -3.06961618818585       62.75570486877885      110.02467612896808
C           -3.83820271361305       64.76209336276615      110.05913649428781
H           -4.39812759214037       65.44034380521086      109.41470136904647
H           -2.91160501333348       65.23549602038578      110.37984677792694
S           -4.87180858339762       64.47643398771582      111.55280869871451
C           -5.54796305475975       66.15736038636715      111.70840635286409
H           -6.14854070342951       66.38104265081263      110.83060392729199
H           -4.73842374128655       66.87157555602573      111.81969362663908
H           -6.16909520060451       66.16662066795283      112.59711038430166
