72
 energy: -105.980693856234 gnorm: 0.000185498504 xtb: 6.7.1 (edcfbbe)
Fe           5.96355361078568       24.85109666608728       -7.52630066077627
N            4.24797239001616       23.86559468099552       -7.29462760773979
N            5.59210014542546       25.05828614386828       -9.48038778374666
N            7.73069831385130       25.79197549249995       -7.76350444198483
N            6.38675093324516       24.57190265109829       -5.58690566656933
C            3.73381596049467       23.38103355306376       -6.13593104575414
C            2.45241874614298       22.74957392664409       -6.36845795607908
C            2.21321083608166       22.85349663696612       -7.70211048883367
C            3.34788387668119       23.55462667408224       -8.26357912097871
C            4.52496654106058       24.56338701746917      -10.16385120830647
C            4.61148870486852       24.89744563497641      -11.56250397754358
C            5.76492180999381       25.61913144941601      -11.71511985562529
C            6.36793441899334       25.69119758633034      -10.39840806769122
C            8.19507745182551       26.37430549945583       -8.90533085852981
C            9.47074056295112       26.99947793222721       -8.67727244791782
C            9.78030987759996       26.77468296699077       -7.36133960219081
C            8.66603544236857       26.03360199302367       -6.80804383483154
C            7.50952282737555       24.96404950482241       -4.92715545401130
C            7.42684462491097       24.61357519307406       -3.52663875813071
C            6.21671080542284       24.01828987229285       -3.35294498387140
C            5.58238318516686       24.00064431751683       -4.65191578825138
C            4.33918921895602       23.45144574011259       -4.89580909889600
H            3.80756472092136       23.03049839073445       -4.05681289927798
C            3.47103921514044       23.86391267631144       -9.60248162652391
H            2.67921025445506       23.54326335415518      -10.26136388016023
C            7.55982795219367       26.33718839614601      -10.13401534230287
H            8.05134188392435       26.82945449952712      -10.95844121717428
C            8.58340805977274       25.62595329185993       -5.48983532146352
H            9.40994584585916       25.86772856418541       -4.84050402277020
C            1.04774106199080       22.37154151021763       -8.49490806254790
H            0.32205681653058       21.87758026892480       -7.85371806104892
H            1.37161150410392       21.66181466319415       -9.25619739907225
H            0.55278524133092       23.20369050085024       -8.99636938662726
C            1.62025415562200       22.12232746044641       -5.30392992916904
H            1.37809687400434       22.84889254321320       -4.52808601369762
H            2.15583897132449       21.29527914093824       -4.83744598438210
H            0.69051767516300       21.73839199122066       -5.71620518961990
C            3.64693451037545       24.45942794026977      -12.60779354685373
H            2.76807090304716       25.10647422682083      -12.62485710697934
H            3.31256056779460       23.44067724412950      -12.41847721787755
H            4.11835760556168       24.49526888671864      -13.58766808880734
C            6.33736713681418       26.18522906222921      -12.91695810135755
H            7.42003085498436       26.18665806245291      -12.96539470276453
C            5.64580916525383       26.69411353958937      -13.93105981505053
H            4.57180460780681       26.76007646606684      -13.91666327532573
H            6.13622829544736       27.08797955068597      -14.80561031478791
C           10.23428023267655       27.77986113762851       -9.68868899381400
H            9.56056038643645       28.36469448332474      -10.31322370399906
H           10.80905065211450       27.11840324902457      -10.33918531547391
H           10.92530602478219       28.45744573332307       -9.19163465531096
C           10.94378938836807       27.19516179184536       -6.61161416982824
H           10.76747749494669       27.43574695121363       -5.56989831392332
C           12.17635943669205       27.29460310425403       -7.09776592742228
H           12.41670791319990       27.02430063631413       -8.11125294345046
H           12.99766511882497       27.62792285199287       -6.48556687368879
C            8.49473036732456       24.89412742759333       -2.52676736974882
H            8.65938611424710       25.96794673648527       -2.43580680043639
H            9.43504398270877       24.43188887266313       -2.82795593258082
H            8.21988094311192       24.50629387337282       -1.54916421377012
C            5.60295453754590       23.46787687338108       -2.11236997298861
H            4.66582640758535       23.97887074301247       -1.89151200406549
H            6.26954906571334       23.59312897030086       -1.26289278624343
H            5.38967014666728       22.40498502669830       -2.22840546940924
O            7.08735603567523       22.94655327987802       -7.91512180256427
H            7.27467751412411       22.65406678662900       -7.01560106949870
H            7.90863522108116       23.30196128410138       -8.27411346300089
C            3.30071336954817       26.96289427575739       -7.73863367873236
H            2.95289708162096       27.99024729215233       -7.78665408149170
H            2.67923166136109       26.38812945498332       -7.05993641483611
H            3.30107873296887       26.49866437888159       -8.71891655872695
S            4.99180859869827       26.93630800424861       -7.04699520669706
H            5.54342940831596       27.62867341704688       -8.05038706441180
