78
 energy: -115.968395663096 gnorm: 0.270002816384 xtb: 6.7.1 (edcfbbe)
Fe           1.33600000000000       34.35299999999999       34.77000000000000
N            1.13700000000000       35.49800000000000       33.12300000000000
N            1.80000000000000       32.76600000000000       33.59100000000000
N            1.91800000000000       33.29200000000000       36.42600000000000
N            1.04600000000000       35.96100000000000       35.97300000000000
C            0.68900000000000       36.78199999999999       33.09700000000000
C            0.66900000000000       37.28600000000000       31.69500000000000
C            1.05000000000000       36.29700000000000       30.94400000000000
C            1.33900000000000       35.18500000000000       31.80600000000000
C            1.78400000000000       32.77100000000000       32.22200000000000
C            1.95900000000000       31.41300000000000       31.78700000000000
C            2.08100000000000       30.62800000000000       32.88800000000000
C            2.09800000000000       31.51899999999999       34.04900000000000
C            2.27300000000000       31.97900000000000       36.39500000000000
C            2.77500000000000       31.65300000000000       37.70600000000000
C            2.60000000000000       32.73400000000000       38.50700000000000
C            2.04500000000000       33.81000000000000       37.68800000000000
C            1.02800000000000       35.95600000000000       37.34700000000000
C            0.39100000000000       37.16500000000000       37.76100000000000
C            0.23200000000000       37.93800000000000       36.67199999999999
C            0.64300000000000       37.15900000000000       35.46600000000000
C            0.46600000000000       37.59100000000000       34.17500000000000
H            0.13600000000000       38.61499999999999       34.00400000000000
C            1.61100000000000       33.88800000000000       31.46000000000000
H            1.70600000000000       33.72000000000000       30.38900000000000
C            2.26500000000000       31.10700000000000       35.33899999999999
H            2.39700000000000       30.04400000000000       35.53700000000000
C            1.58800000000000       35.00899999999999       38.15600000000000
H            1.67400000000000       35.21900000000000       39.22200000000000
C            1.07100000000000       36.09600000000000       29.40600000000000
H            0.84600000000000       37.06099999999999       28.90300000000000
H            0.30100000000000       35.35000000000000       29.11400000000000
H            2.07700000000000       35.74900000000000       29.08700000000000
C            0.23800000000000       38.61299999999999       31.13100000000000
H            0.06300000000000       39.33000000000000       31.96200000000000
H           -0.70600000000000       38.48899999999999       30.55800000000000
H            1.03400000000000       39.01600000000000       30.46900000000000
C            1.98200000000000       30.87800000000000       30.32200000000000
H            3.03400000000000       30.72500000000000       30.00000000000000
H            1.50200000000000       31.61600000000000       29.64500000000000
H            1.44400000000000       29.90700000000000       30.26800000000000
C            2.25100000000000       29.09600000000000       32.91400000000000
H            2.97600000000000       28.61900000000000       32.23900000000000
C            1.55400000000000       28.30600000000000       33.72500000000000
H            0.81600000000000       28.73200000000000       34.42000000000000
H            1.70700000000000       27.21700000000000       33.71100000000000
C            3.40300000000000       30.29900000000000       38.11199999999999
H            3.90000000000000       29.84200000000000       37.23000000000000
H            2.61000000000000       29.61100000000000       38.47500000000000
H            4.16000000000000       30.46000000000000       38.90900000000000
C            2.95000000000000       32.96100000000000       40.00100000000000
H            3.36000000000000       33.92400000000000       40.33899999999999
C            2.76200000000000       31.99600000000000       40.90400000000000
H            2.35400000000000       31.02000000000000       40.60199999999999
H            3.01300000000000       32.16500000000000       41.96200000000000
C           -0.00500000000000       37.40599999999999       39.23700000000000
H            0.88900000000000       37.72600000000000       39.81300000000000
H           -0.40100000000000       36.46599999999999       39.67799999999999
H           -0.77500000000000       38.20499999999999       39.29300000000000
C           -0.32200000000000       39.33299999999999       36.68500000000000
H           -0.07800000000000       39.81999999999999       37.65300000000000
H           -1.42600000000000       39.29900000000000       36.56700000000000
H            0.13000000000000       39.92400000000000       35.86000000000000
O            3.32800000000000       34.89300000000000       34.50400000000000
H            3.34800000000000       35.45300000000000       33.72800000000000
H            4.02600000000000       34.65900000000000       35.00200000000000
C           -4.07900000000000       33.58000000000000       36.21599999999999
H           -4.36900000000000       32.54400000000000       36.49200000000000
H           -4.83400000000000       33.98900000000000       35.51100000000000
H           -4.04300000000000       34.20100000000000       37.13600000000000
N           -2.52000000000000       32.84800000000000       34.39999999999999
H           -3.21500000000000       32.30600000000000       33.92799999999999
C           -2.72900000000000       33.56500000000000       35.56100000000000
C           -1.26600000000000       33.00200000000000       34.03300000000000
H           -0.84100000000000       32.55000000000000       33.13700000000000
N           -0.62200000000000       33.77100000000000       34.89899999999999
C           -1.53800000000000       34.13700000000000       35.86200000000000
H           -1.25000000000000       34.78100000000000       36.68400000000000
78
 energy: -116.023420167923 gnorm: 0.107429213625 xtb: 6.7.1 (edcfbbe)
Fe           1.35192493128479       34.34843918712883       34.76658413061990
N            1.10601257475306       35.50430457211262       33.11713313342388
N            1.79931898377513       32.76280010056414       33.59560267716450
N            1.90185562024414       33.29217553670696       36.41880224321205
N            1.04603914223121       35.94882023900710       35.95490279417900
C            0.70899884230850       36.80440887055423       33.09181664535929
C            0.65679789796908       37.28456253297881       31.69645233496646
C            1.04538138471864       36.25505747586715       30.92683664861267
C            1.32108415443531       35.15273513816742       31.81168808294685
C            1.78369392027136       32.74270846173169       32.22957241293330
C            1.96507426542221       31.38527119360716       31.77477796654680
C            2.09686003293908       30.60227884172113       32.88346115305082
C            2.04793505931071       31.50160219859735       34.03621103269860
C            2.29007394551067       31.98990888066747       36.41628732545642
C            2.77516398291615       31.64181368303865       37.73687344779641
C            2.62132376540156       32.74119411533509       38.52997470144221
C            2.04470848940926       33.78095702303707       37.68385077645032
C            1.01593356012341       35.95359339708526       37.32387881636784
C            0.39814760954588       37.17278046695309       37.77481555862929
C            0.21955147647948       37.95049551089573       36.68267799007726
C            0.61370300520436       37.15576847271115       35.50451691863690
C            0.46633459422463       37.59372173025200       34.19750665455660
H            0.13671460443526       38.61030217945460       34.02563612812791
C            1.61395481624624       33.86044701461800       31.44197735194670
H            1.70844538471673       33.70128282401296       30.37373769084360
C            2.25610641028216       31.11264694856486       35.34311448659883
H            2.41745665966473       30.05921355955226       35.53722812201863
C            1.58188221705390       34.99639329614212       38.13997408333906
H            1.66376459358739       35.20985463339047       39.20148086153253
C            1.07741847644105       36.10198314792596       29.41814607380816
H            0.85292846392006       37.04853694036944       28.91574827291130
H            0.32098208252295       35.36637471666619       29.12128611238669
H            2.06160644328414       35.75255010289485       29.09063271238843
C            0.23509820382491       38.61521601430584       31.15251298211400
H            0.06007985685522       39.33777684220731       31.95361794517625
H           -0.68965169356702       38.50023810294542       30.57310875796972
H            1.01263007000134       39.01023552883985       30.48637000682425
C            1.98114436044076       30.88694478799446       30.33784945958735
H            3.01562181184761       30.73097207142078       30.00884689218030
H            1.50731516106100       31.60371589734510       29.65999430624030
H            1.45365599729408       29.92944004552788       30.27246247754185
C            2.25398187355104       29.11688419019076       32.92329326301903
H            2.96618766505414       28.65769432605259       32.23755993819025
C            1.55746433421588       28.32062284331832       33.72526406382479
H            0.81938709373325       28.72093208368471       34.41120756669687
H            1.70094298137604       27.24320835470311       33.71358894962473
C            3.39529195149636       30.31120372080729       38.11000020442281
H            3.88876063913641       29.85443468192633       37.24468994157312
H            2.62440391026586       29.62057880200976       38.47066144842621
H            4.14022806688419       30.45825233171457       38.89864591997776
C            2.95056478552473       32.94014215856313       39.97723919396852
H            3.34334328006189       33.90633430691220       40.29598633958923
C            2.76475674041269       31.99434477434943       40.89147432204358
H            2.35679426626481       31.02980208490233       40.61675613608716
H            3.00616014047974       32.16032600029365       41.93841038139161
C            0.00663095719650       37.41341141311895       39.22017724723181
H            0.87860015994352       37.72476467788433       39.80636030765198
H           -0.38993083419166       36.49019570741441       39.65956230857945
H           -0.75944034892066       38.19214886533100       39.29070179994621
C           -0.32533871690878       39.33863527089669       36.68192936152186
H           -0.08673501703057       39.82345076935700       37.63442138719758
H           -1.41513047005296       39.31472298859919       36.56319314391494
H            0.11454202044673       39.92503306810794       35.86956676946020
O            3.33483784127486       34.91045610782356       34.50396220820760
H            3.38417766864897       35.46146520247425       33.72321798664964
H            4.08227322304591       34.66187499761888       35.01440415553197
C           -4.07452432577239       33.57863122371865       36.21609773187031
H           -4.37133132016428       32.55986335667450       36.49222888093035
H           -4.82674138183306       33.98437966459843       35.52908639974504
H           -4.04439350373555       34.19248465275226       37.11960178864693
N           -2.52937748431216       32.84944224917848       34.40325706301270
H           -3.22593728853357       32.30334442326858       33.92780632566993
C           -2.73489948326738       33.56112374444147       35.56114721161472
C           -1.25459205165413       33.00950186847375       34.03665418186138
H           -0.83104166816427       32.56133194028278       33.15293140974109
N           -0.61473315411846       33.78216621792200       34.89119314372907
C           -1.53248144270656       34.13155510843684       35.85211908254179
H           -1.24977226603827       34.76973353929937       36.66965426724440
78
 energy: -116.039679558664 gnorm: 0.027558217976 xtb: 6.7.1 (edcfbbe)
Fe           1.36633671277272       34.34551562411733       34.77240172077808
N            1.08699290753264       35.50505743912896       33.12079950842653
N            1.78201372769871       32.75861760570392       33.60382769436233
N            1.89361484598250       33.28835975140863       36.40991950125577
N            1.03222683766999       35.93909298741033       35.93603442153670
C            0.71741789798220       36.81301374685346       33.08642800371211
C            0.65533757693387       37.27445908275995       31.70380761267647
C            1.03328040304887       36.21886204050434       30.92769981995184
C            1.29008568942287       35.12023160506553       31.82667944995186
C            1.77561283865404       32.72276922586832       32.24110286150979
C            1.96991419206879       31.36922328604689       31.77312434742876
C            2.09216865741530       30.58671063739615       32.88970141959429
C            2.00571956017397       31.48981882466498       34.03112818963740
C            2.30085516819469       31.99306440722224       36.42829723660572
C            2.77379916157577       31.63141061566818       37.75003522630853
C            2.62404259998151       32.74339439070019       38.53764498217463
C            2.04326064596718       33.75988436424479       37.67426717476109
C            1.00287299394326       35.94739837232702       37.29889915920599
C            0.40596238882791       37.17310741541802       37.78051757440628
C            0.20196001469953       37.95214450749916       36.68448948224491
C            0.58130203409812       37.15341523846958       35.52787343026716
C            0.45950802496750       37.58657485090968       34.21095723685362
H            0.13653661946636       38.60210265580245       34.04155544250515
C            1.60601104485989       33.83420979305779       31.42914670121472
H            1.70818386400539       33.68181937636378       30.36337387845695
C            2.25259396564023       31.11986267712788       35.34475708220388
H            2.45084610330453       30.07431723258140       35.53300974608672
C            1.57084845700672       34.98420617240195       38.11812186385562
H            1.64276846782381       35.19839852248948       39.17631295191169
C            1.07682011250232       36.10238705794197       29.43955630197731
H            0.86056808880062       37.04765823197187       28.95032858459637
H            0.33140583396801       35.37562018584636       29.11503634047926
H            2.05180968357794       35.75620316533701       29.10260798004353
C            0.23885968354291       38.60931069182845       31.17529344557499
H            0.06404649422105       39.33093224799005       31.96425246007260
H           -0.67911724824806       38.50716055238821       30.59445822168447
H            1.00411446712326       39.00650590235497       30.50754800374995
C            1.98532660670025       30.89443234209473       30.35784821474624
H            3.00964631936374       30.73821955280749       30.01754829614446
H            1.51160153564680       31.60385969458220       29.68545193714049
H            1.46101268874968       29.94410902416806       30.27869495388682
C            2.24820143793638       29.14337451537367       32.93163204729397
H            2.95471177123869       28.70662099402987       32.23237898195913
C            1.56027883023869       28.33570206255717       33.72974338727542
H            0.82075663260757       28.71400999107414       34.41389680860338
H            1.70060925109681       27.26673664737764       33.71509263454445
C            3.38711603182698       30.32174039815424       38.11028221233033
H            3.87986693677971       29.87167827314994       37.25146517393603
H            2.62932006113819       29.62437291159628       38.46633731508133
H            4.12225499153271       30.45916579041513       38.90013776061560
C            2.93677382574327       32.92439475764646       39.94238084126575
H            3.32200203476194       33.89467869341909       40.23946862018124
C            2.76784130488634       31.99058883931274       40.87257690109587
H            2.35857449325555       31.02756170718719       40.62764188565870
H            3.00774971081647       32.16089444024558       41.90992738522644
C            0.02696031145270       37.41912043569332       39.20424303088164
H            0.88474681703070       37.72889933577220       39.79966650776783
H           -0.37361523698049       36.50622821664541       39.64358654525483
H           -0.73675774989935       38.18922634369886       39.27517953351465
C           -0.33301419449530       39.34118741457005       36.67514782773588
H           -0.09846073410262       39.82918616405478       37.61817416477974
H           -1.41565347404090       39.33231064095448       36.55273860774509
H            0.10191467214190       39.92451834548000       35.86943546958551
O            3.35774781755368       34.94907822599314       34.52684681479356
H            3.45906702520926       35.46369898260822       33.72133722659689
H            4.13815297178249       34.66716481966322       35.00471848924310
C           -4.06705473405173       33.57860561844306       36.21768671221883
H           -4.36995439094155       32.56978715084136       36.49527749184047
H           -4.81897445913521       33.98373124065768       35.54156854083286
H           -4.03636423869458       34.19060670732623       37.11132471380142
N           -2.53202050959839       32.85006839554893       34.40170445541295
H           -3.22797405303021       32.30158076243100       33.92297709874249
C           -2.73556271055267       33.55709067106098       35.55832839503996
C           -1.24387965989764       33.01766530701167       34.03593804250309
H           -0.81845032066257       32.57306600761569       33.16090313440548
N           -0.60937315894231       33.78625746605139       34.88812769791651
C           -1.52778808625387       34.12884420938284       35.84277511051538
H           -1.25191688541815       34.76111641843264       36.66081397382294
78
 energy: -116.044720669019 gnorm: 0.033629945648 xtb: 6.7.1 (edcfbbe)
Fe           1.38105558183272       34.34989517470090       34.77575009384071
N            1.06715809871234       35.49504311322017       33.12620845702674
N            1.76929380726933       32.75888685628977       33.61042649717456
N            1.88716003534666       33.28276586631396       36.39869474245308
N            1.01043400193674       35.93263693870836       35.92447090717430
C            0.70653761119919       36.80593707330240       33.08641812228213
C            0.64526966201839       37.26147634641150       31.71257356200917
C            1.01052250113146       36.19678766889720       30.93595494114257
C            1.25999245297144       35.09906599629682       31.83742485386281
C            1.76465518833427       32.71725809874442       32.24917851395260
C            1.96905132215762       31.36831727066877       31.78007902551102
C            2.08091904106198       30.58666467716005       32.89904175893312
C            1.98516479166723       31.48731706421726       34.03333508060766
C            2.29912365873592       31.98862035879548       36.42472673035425
C            2.76261133633266       31.62443359757968       37.74419293287735
C            2.60492181776710       32.73876964156248       38.52817785476542
C            2.02832391598139       33.75049342831086       37.66271327316235
C            0.98812006329163       35.94099031171283       37.28401126656875
C            0.40876708368531       37.17246201418542       37.77534336419448
C            0.18618855072055       37.94953751654349       36.67876682579553
C            0.55500561097424       37.14948109954047       35.52866617503090
C            0.44481266228016       37.57689008023749       34.21203973026723
H            0.12761746154613       38.59512490817651       34.04616239467463
C            1.58917828322606       33.81924531739816       31.42559184834364
H            1.69508646212391       33.66656966657495       30.36099216941759
C            2.25299904368167       31.12034638226569       35.34175614466692
H            2.48739873864197       30.07992610981920       35.52323517038237
C            1.54983338126805       34.97402424868829       38.10233676555048
H            1.61168633186571       35.18520774602118       39.15998669335391
C            1.07391389035355       36.10152503817977       29.45081386609744
H            0.86710932630698       37.06013106346428       28.98389432997488
H            0.33303819057340       35.38229616035537       29.09626190608590
H            2.05296969886534       35.76016980800029       29.11789574691531
C            0.24116992177858       38.60481405427158       31.19870003306253
H            0.07319202466040       39.31987204583725       31.99550243102004
H           -0.67912936659723       38.51698773283110       30.61934021076892
H            1.00722084235784       39.00395264515374       30.53413060162535
C            1.98912147147623       30.90028844896095       30.36739002126903
H            3.01347651086688       30.74909808558244       30.02423058020417
H            1.51184710761072       31.61296644515395       29.70125637983344
H            1.46741717687438       29.94871544308183       30.28111066978990
C            2.24158457376854       29.15204633344596       32.93839980020284
H            2.94001435030838       28.73052062488564       32.22194790649363
C            1.56468483862698       28.33849526740969       33.74037777543742
H            0.82587613613711       28.70985130408746       34.42910611997048
H            1.70647565831471       27.27173054365273       33.72072641748040
C            3.37834611756546       30.32193989938597       38.10960187662828
H            3.88154933945622       29.87846093060113       37.25391482691192
H            2.62415600571712       29.61640602313820       38.45866945988681
H            4.10327887754857       30.46117157646904       38.90924272383123
C            2.92107494327082       32.91900759440163       39.92332243431094
H            3.29303459759780       33.89805245442258       40.20662989527139
C            2.77358396766408       31.98793705040097       40.86120509943705
H            2.36457905684183       31.01970992388743       40.63343726055028
H            3.02193411564877       32.16725299481337       41.89301718364172
C            0.04939729544037       37.42909925325723       39.19753221587003
H            0.91020794162272       37.73844292385782       39.78856859840998
H           -0.35398683718517       36.52104569214170       39.64349374192623
H           -0.70990604493416       38.20371688780717       39.26520846004812
C           -0.34506930036445       39.34184852426097       36.66413646793283
H           -0.11294291473443       39.83631256112648       37.60439548351830
H           -1.42752252427513       39.34404995589745       36.53569506249945
H            0.09352956379551       39.92157315665786       35.85749968422869
O            3.39457592648805       35.02339363310114       34.58139970069737
H            3.55539985192384       35.43704716561135       33.70856236739490
H            4.19959679796869       34.64875211390940       34.98471347456589
C           -4.05573492824789       33.57993893140602       36.21875190046489
H           -4.36359900315637       32.57400120781525       36.50083892503069
H           -4.81140804652217       33.98816805417286       35.54878088889654
H           -4.01692950624562       34.19389633415274       37.11073052462201
N           -2.52449560548273       32.85135056014565       34.39458938627094
H           -3.21936164122346       32.30316418511082       33.91325393762120
C           -2.72792312356856       33.55407149677413       35.55315580802171
C           -1.23268682229801       33.02339185564736       34.03065589407476
H           -0.80317738190900       32.58202355579144       33.15709735489556
N           -0.60187416391713       33.78990998838456       34.88509358405309
C           -1.52026145409385       34.12635257893680       35.83875439073576
H           -1.25023595043666       34.75487531981562       36.66071069614314
78
 energy: -116.047705314212 gnorm: 0.032277715892 xtb: 6.7.1 (edcfbbe)
Fe           1.38994984860724       34.35353657088672       34.77628428070224
N            1.05770774910171       35.48160310169914       33.13393262269091
N            1.77166242353244       32.76276401367807       33.61507620486763
N            1.88414779785820       33.27861495149213       36.38477616206266
N            0.98729357999831       35.92442265072746       35.91481518548522
C            0.69522574322172       36.79225481259565       33.08905169924898
C            0.63304254259053       37.24658291878887       31.72130472082535
C            0.98530378281802       36.17884463729350       30.94539057172069
C            1.23569180839136       35.08232028759254       31.84666715931851
C            1.75935912751972       32.71644332299909       32.25410501487124
C            1.96562328976508       31.37079411605147       31.78743355958406
C            2.06936683416503       30.58977672701452       32.90707351323083
C            1.97836745262508       31.48734175164016       34.03576627284004
C            2.29871719779669       31.98343753105265       36.41576083963275
C            2.74718837579963       31.61870192908761       37.73508938161272
C            2.57569278935695       32.73180705531035       38.51641794171369
C            2.00774282113551       33.74406264221395       37.65092703623754
C            0.97419791147808       35.93499591182477       37.27229133607756
C            0.40970706902117       37.17154784789857       37.76640977992962
C            0.17092671921696       37.94494416818369       36.67072389747420
C            0.52983901063600       37.14223808604316       35.52260374538356
C            0.42692601266526       37.56427688424106       34.20919290647949
H            0.11152653778782       38.58460490935001       34.04610364798117
C            1.57205267520502       33.80857253833273       31.42327690007639
H            1.67081672481892       33.65306363547945       30.35921821785100
C            2.26197743184931       31.11870953691071       35.33635972130789
H            2.52061245615812       30.08330309333095       35.51093868503399
C            1.52361686277464       34.96350903311509       38.08954499046882
H            1.57243538188159       35.16917649646544       39.14818461107213
C            1.06919319905958       36.10246114788765       29.45938247656959
H            0.87268294714235       37.07498334265457       29.01400945318679
H            0.33353327546952       35.39163313907985       29.07408687949168
H            2.05567265931587       35.76731532313057       29.13711935774297
C            0.24273784928406       38.60031304286576       31.22528905313125
H            0.08660430266604       39.30372711959728       32.03760810513187
H           -0.68246998499161       38.53313662913740       30.64923714664601
H            1.01272421735577       39.00291213280688       30.56681703101761
C            1.99068814918128       30.90581267571396       30.37261528240529
H            3.01772886426119       30.76322141872736       30.03096059182123
H            1.50926702497749       31.62164263336699       29.71129598818981
H            1.47376959114443       29.95105376726452       30.28169059813958
C            2.23016756216658       29.15324713738427       32.94136788032866
H            2.91970743220898       28.74387192792739       32.20938380777080
C            1.56819959831881       28.33737357361857       33.75338750730394
H            0.84175005791784       28.70791580254262       34.45745604990164
H            1.71421647060307       27.27121367383931       33.73133689700141
C            3.36586574641174       30.31878990375796       38.10926360955613
H            3.88744207135216       29.88191311423397       37.25955854056445
H            2.61151040786531       29.60505836507919       38.44520069112597
H            4.07620973922177       30.46373584782446       38.92299064009124
C            2.89639049716228       32.91797743571927       39.91178890209842
H            3.25761388466641       33.90473107750670       40.18172390997145
C            2.77589020304719       31.98674336803962       40.85363965520994
H            2.38169887607813       31.00812211734286       40.63769693532192
H            3.04279619526886       32.17485041116787       41.87951157499402
C            0.07685285665199       37.44421929525206       39.19317399567208
H            0.95048535242419       37.75169903823031       39.76788132773248
H           -0.32897676187505       36.54366365157824       39.65393105655847
H           -0.67331778022270       38.22920340040648       39.26164820518238
C           -0.35846910406562       39.33999331049579       36.64876005558144
H           -0.13153064718409       39.84172659112740       37.58772891192832
H           -1.44123833804583       39.34933528091572       36.51075483913446
H            0.08804159192547       39.91512263311722       35.84063732130021
O            3.44376401818334       35.06744900303611       34.61197851261544
H            3.63265620165694       35.44017561533450       33.73490674926749
H            4.25764120429923       34.63602251940797       34.95393786569875
C           -4.04277988941686       33.58244495874825       36.22033075065822