78
 energy: -115.897297945750 gnorm: 0.297906622002 xtb: 6.7.1 (edcfbbe)
Fe           9.81600000000000        2.30900000000000       27.05200000000000
N            8.92000000000000        2.28400000000000       28.70600000000000
N            9.88500000000000        4.28800000000000       27.00300000000000
N           10.80900000000000        2.08400000000000       25.09600000000000
N            9.78500000000000        0.26300000000000       26.79100000000000
C            8.59900000000000        1.18400000000000       29.46700000000000
C            8.11500000000000        1.60200000000000       30.78300000000000
C            8.11600000000000        2.96100000000000       30.79400000000000
C            8.64200000000000        3.40600000000000       29.51400000000000
C            9.41900000000000        5.16000000000000       27.96400000000000
C            9.64900000000000        6.52700000000000       27.45700000000000
C           10.22600000000000        6.42500000000000       26.23800000000000
C           10.41400000000000        5.02200000000000       25.95100000000000
C           11.25700000000000        3.19200000000000       24.34600000000000
C           11.99900000000000        2.72900000000000       23.10900000000000
C           11.85800000000000        1.34000000000000       23.03700000000000
C           11.19000000000000        1.01900000000000       24.28400000000000
C           10.21200000000000       -0.55400000000000       25.75400000000000
C            9.85000000000000       -1.91900000000000       26.02200000000000
C            9.08400000000000       -1.90300000000000       27.33100000000000
C            9.12900000000000       -0.51400000000000       27.72800000000000
C            8.61500000000000       -0.09900000000000       28.95100000000000
H            8.17300000000000       -0.87500000000000       29.57600000000000
C            8.82500000000000        4.74600000000000       29.16100000000000
H            8.48600000000000        5.51200000000000       29.85800000000000
C           11.03200000000000        4.49600000000000       24.79799999999999
H           11.41100000000000        5.26000000000000       24.12300000000000
C           10.91000000000000       -0.21600000000000       24.66800000000000
H           11.28200000000000       -1.02800000000000       24.04300000000000
C            7.87400000000000        3.95400000000000       31.96200000000000
H            7.67700000000000        3.38600000000000       32.89700000000000
H            6.99300000000000        4.59200000000000       31.73600000000000
H            8.77500000000000        4.58800000000000       32.10800000000000
C            7.65700000000000        0.68000000000000       31.91900000000000
H            8.06900000000000       -0.33900000000000       31.75800000000000
H            6.54800000000000        0.62200000000000       31.93200000000000
H            8.02800000000000        1.06900000000000       32.89100000000000
C            9.18500000000000        7.82100000000000       28.17800000000000
H            8.66100000000000        7.55300000000000       29.12000000000000
H            8.48500000000000        8.38400000000000       27.52500000000000
H           10.06700000000000        8.45100000000000       28.42200000000000
C           10.68200000000000        7.56200000000000       25.27900000000000
H           11.00200000000000        7.34500000000000       24.24900000000000
C           10.68600000000000        8.87200000000000       25.72700000000000
H           10.37000000000000        9.11200000000000       26.75300000000000
H           11.00500000000000        9.68800000000000       25.06200000000000
C           12.51400000000000        3.71600000000000       21.99900000000000
H           13.08300000000000        4.54400000000000       22.47400000000000
H           11.65000000000000        4.14300000000000       21.44600000000000
H           13.18400000000000        3.17500000000000       21.29700000000000
C           12.32800000000000        0.21800000000000       22.02900000000000
H           12.21300000000000       -0.83100000000000       22.33800000000000
C           12.87400000000000        0.41900000000000       20.78600000000000
H           13.02300000000000        1.43800000000000       20.40000000000000
H           13.16900000000000       -0.43700000000000       20.16100000000000
C           10.13400000000000       -3.08300000000000       25.06700000000000
H           11.22700000000000       -3.28300000000000       25.04100000000000
H            9.79100000000000       -2.82100000000000       24.04300000000000
H            9.60900000000000       -3.99600000000000       25.42100000000000
C            8.40100000000000       -3.04400000000000       28.19500000000000
H            8.54400000000000       -4.02500000000000       27.69400000000000
H            7.31200000000000       -2.84300000000000       28.28900000000000
H            8.86800000000000       -3.08300000000000       29.20200000000000
O            7.48600000000000        2.58900000000000       26.14400000000000
H            7.32800000000000        3.53200000000000       26.10900000000000
H            6.91600000000000        1.95100000000000       25.90100000000000
C           15.47600000000000        2.79000000000000       27.51100000000000
H           16.15800000000000        1.92100000000000       27.39000000000000
H           15.76400000000000        3.35000000000000       28.42599999999999
H           15.56800000000000        3.44700000000000       26.62000000000000
N           13.63300000000000        1.43600000000000       28.67599999999999
H           14.26700000000000        1.07700000000000       29.36100000000000
C           13.99100000000000        2.27900000000000       27.64500000000000
C           12.33800000000000        1.18600000000000       28.60900000000000
H           11.79500000000000        0.54700000000000       29.30399999999999
N           11.84200000000000        1.83700000000000       27.57100000000000
C           12.85600000000000        2.52600000000000       26.95200000000000
H           12.67200000000000        3.13000000000000       26.07200000000000
78
 energy: -115.984060431200 gnorm: 0.135527624009 xtb: 6.7.1 (edcfbbe)
Fe           9.80367414904875        2.27880251817765       26.98183744379536
N            8.95660731750668        2.29734767241266       28.71599259380481
N            9.90235224503497        4.27968544859608       26.99187557146460
N           10.80010710616144        2.10542440285593       25.03142143904631
N            9.74718140044073        0.24933221752175       26.80025848426752
C            8.59174333225826        1.19733934286258       29.45837142170892
C            8.11288179752715        1.60768787936537       30.77802533504241
C            8.13942081807628        2.97140986472363       30.79382862231537
C            8.65588250590389        3.40575571357301       29.50383680236316
C            9.42586641592472        5.15827575680686       27.93671547060659
C            9.63898823335306        6.52786233955073       27.45500593934664
C           10.23953119977629        6.43518008445702       26.22445056071682
C           10.41720634095812        5.01475356281827       25.94268925579603
C           11.26348715484185        3.19852680955741       24.33111283893624
C           11.96453632475468        2.74269017200028       23.09056543600430
C           11.87504615811748        1.35546286198033       23.03830490448175
C           11.18992553800341        1.02298175884817       24.27905870574458
C           10.18845565864058       -0.58609513640115       25.80263188285570
C            9.81065673325855       -1.94469529414693       26.07122112241119
C            9.09930892895309       -1.91746033702269       27.31417146917720
C            9.12458362639445       -0.53350239358798       27.72895647344741
C            8.61296183290430       -0.09749413953635       28.95322451736261
H            8.17888405293726       -0.86942560791732       29.57916563811834
C            8.83478074003115        4.73903166565861       29.13578167922568
H            8.49689927964739        5.49817775308802       29.83892624264070
C           11.03941453355154        4.50240230200260       24.78742754784995
H           11.41444564411418        5.26852776905198       24.11973251578447
C           10.90573606662582       -0.24413969002347       24.68156837069327
H           11.26808677748994       -1.04689307459679       24.05286007288823
C            7.87331884709405        3.93523286516240       31.94564368516114
H            7.67647433011776        3.39094311009797       32.87734562338583
H            7.00850801566589        4.57845351607608       31.73544266550754
H            8.75416996021793        4.57302655858962       32.10118528539115
C            7.66488084880689        0.68891455954613       31.89949324813296
H            8.06257564256086       -0.32310028100576       31.75904814425105
H            6.56837406550865        0.62540385190304       31.93172359227130
H            8.01901495316635        1.06354523650754       32.86927752626200
C            9.18500062230119        7.79192419054510       28.17838889450438
H            8.66370399003970        7.54824171822242       29.10906763025066
H            8.49973856210881        8.36753311087300       27.53901403762017
H           10.04561581432793        8.42622416907237       28.43403854945867
C           10.66972536894948        7.56205438942013       25.31737422803970
H           10.98546933980485        7.33326928854521       24.29546280303504
C           10.68509551428320        8.84760382639087       25.71619150918533
H           10.38698278087658        9.12001908878664       26.71636145136068
H           11.00169031931891        9.65745604420998       25.06266876119805
C           12.50529325370440        3.70320762619450       22.02548383182962
H           13.07065231140046        4.52873323603499       22.47653067480523
H           11.66570994200417        4.13077256291288       21.46053957492265
H           13.16892115125964        3.18441736381993       21.32388323515567
C           12.33146705559971        0.27334224620591       22.04849321502597
H           12.20657218029683       -0.77244905262580       22.35553190623004
C           12.85963398345011        0.43759026015222       20.82222446775570
H           13.01973931837389        1.42335804969825       20.40315586413423
H           13.15283653676826       -0.41149028233419       20.19949608815475
C           10.12052155124193       -3.07209854610059       25.10121329615317
H           11.20259122274388       -3.27617686930717       25.05259604868571
H            9.79208612300014       -2.82473373031704       24.07882589470064
H            9.61431024094518       -3.98877110303163       25.41821377691963
C            8.42664763526656       -3.02289527686110       28.15890010110952
H            8.54821133084321       -4.00688092752530       27.69271964082839
H            7.34726410182104       -2.83715784037607       28.27589401453557
H            8.86549810777096       -3.07351150501282       29.16744144761338
O            7.52660074637962        2.59804113395144       26.15332649330564
H            7.32528690228603        3.53016291920867       26.10732352512082
H            6.90745579272676        1.93992614218185       25.89611389097065
C           15.45577993352149        2.77862625015135       27.50758774951521
H           16.14193110360769        1.93138580589511       27.38661469321943
H           15.75211547822441        3.33958692649594       28.40312189614679
H           15.55217250981629        3.43106768876506       26.63333081451909
N           13.65650704846266        1.43970448328571       28.67706899347189
H           14.28678141960877        1.07157522441858       29.36503250937109
C           14.01755745131119        2.28320050266813       27.65259870297091
C           12.33944311026042        1.20617757124047       28.60325332673510
H           11.79846859206638        0.56528670045387       29.28476231804250
N           11.83070764562464        1.87567958109246       27.59155783777420
C           12.86422437242621        2.53168195018832       26.97238831468351
H           12.68402095980212        3.12494344285686       26.09402986268155
78
 energy: -116.020002326791 gnorm: 0.051255553605 xtb: 6.7.1 (edcfbbe)
Fe           9.81604003763471        2.24837255952668       26.92835740072756
N            8.97300279025216        2.30439540916610       28.72095464989368
N            9.91241779014995        4.27049560687577       26.96172439976186
N           10.79485539447987        2.11916544523191       24.98793476697715
N            9.71353293006211        0.24360149404743       26.80387355645806
C            8.59110982946401        1.20670012643250       29.44756129963827
C            8.11226498686118        1.61261463847082       30.76546649116507
C            8.16317176831962        2.97889448442467       30.78671628778214
C            8.68449064114229        3.39961951122083       29.49326200720876
C            9.43491366824080        5.14690083884543       27.90179037151193
C            9.63206671753541        6.51546048878401       27.44951401585980
C           10.25247830805449        6.43757470401999       26.21313114030304
C           10.42432571930200        5.00687651563992       25.92673671084882
C           11.24413316245767        3.19935469753299       24.30838582309381
C           11.94070955843147        2.75666114202801       23.08594439775301
C           11.87814413672626        1.37274911233544       23.04924711821580
C           11.17397662619641        1.02422612529526       24.28249380565969
C           10.16177333553456       -0.60029110246315       25.83345184184648
C            9.77885863986428       -1.96219816194330       26.11920038121952
C            9.11241731152241       -1.93207745535001       27.30052876865679
C            9.11326064697202       -0.54354488788584       27.73001926962669
C            8.61248634800204       -0.09587846463097       28.95589655500081
H            8.18580287925194       -0.86212666411011       29.58781693195023
C            8.85777615651554        4.72623395172196       29.10691241640175
H            8.51457212619533        5.48130561643363       29.80888988173354
C           11.04066623737188        4.51054308910149       24.76619640140995
H           11.42309270724554        5.27893053653380       24.10923267490740
C           10.88806332251628       -0.26007297010854       24.69572390807531
H           11.24995767673530       -1.05924841817755       24.07113062315452
C            7.87720041405280        3.91749637205935       31.92373607505466
H            7.67565114930831        3.38128366289662       32.84892779096403
H            7.01915843450404        4.55987217502301       31.72068329012517
H            8.74090366039071        4.56319712196696       32.09332563769032
C            7.67186220377206        0.70062864108801       31.87573577047258
H            8.06267964053694       -0.30611088857939       31.74767168689473
H            6.58269623484528        0.63307126864036       31.92072857327217
H            8.01545551040836        1.06920392025060       32.84342545693392
C            9.18577286365990        7.75290670194805       28.17625543725418
H            8.66154576311052        7.52136376034870       29.09823522012378
H            8.51344148185006        8.34365294715845       27.54706946726808
H           10.03269508080141        8.39004691279155       28.44251393802343
C           10.65929908632494        7.54433820836097       25.35377154171905
H           10.96941885160608        7.30215330198108       24.33906007031320
C           10.68544680489993        8.82416112573187       25.71065078830458
H           10.40319636641259        9.13812537872535       26.69365040669472
H           10.99805278111273        9.62151022827010       25.05352252386526
C           12.49256914288084        3.69116261097279       22.05231329933311
H           13.05429652121141        4.51230698029069       22.49644016720782
H           11.67384603013869        4.12478382191123       21.47296930317402
H           13.15519754613679        3.18124158837714       21.35700909808488
C           12.32299970119442        0.34184018145276       22.08290286338649
H           12.19587507217045       -0.69648134096382       22.39868648509799
C           12.84770307835927        0.47276804383323       20.86532876477363
H           13.01912725277319        1.42870956971794       20.40325419351283
H           13.13037366438484       -0.37870212149212       20.25218755189304
C           10.10069356075549       -3.06879067528968       25.14705447121755
H           11.17764531237091       -3.26038519029772       25.08662590072980
H            9.77945870824885       -2.81709911891433       24.13055465954474
H            9.61049072488797       -3.99437241516399       25.43230176372023
C            8.45346832767411       -3.00882819510498       28.12184432875385
H            8.56297132051288       -3.99274022795974       27.67342411900051
H            7.38198224401292       -2.82065071655875       28.24827445485117
H            8.87847004434853       -3.05781768024045       29.12972120801954
O            7.58224738140435        2.59291649033486       26.14976297902190
H            7.31859850173444        3.51391156757572       26.10559583417327
H            6.91688822324677        1.94770894288482       25.90040244371243
C           15.43624828431463        2.76678980162850       27.50176266875038
H           16.12730081918586        1.93380862698124       27.37943945594862
H           15.74171888849138        3.33126375946961       28.38365065004358
H           15.52761318661842        3.41610402772274       26.63633225409047
N           13.67577549318875        1.44003963710638       28.67820600210788
H           14.30134239981125        1.06171853755261       29.36866556501317
C           14.03909209567141        2.28611679273378       27.65957136601736
C           12.34139556545972        1.23240182942028       28.60213466573423
H           11.80030167870703        0.59122002705033       29.27179698352333
N           11.82993092407217        1.90743257332079       27.60427752182112
C           12.87331603385136        2.54927072171488       26.99674332577978
H           12.70222449154689        3.13621274227186       26.11970808014621
78
 energy: -116.034167157996 gnorm: 0.030019748239 xtb: 6.7.1 (edcfbbe)
Fe           9.82862113147788        2.22720334203274       26.89354907507478
N            8.99224958987955        2.29513295396753       28.71474946521534
N            9.92554498354839        4.25386947965956       26.92720989044854
N           10.75022041967963        2.13243826609118       24.96923653915011
N            9.68533869009466        0.24079805586963       26.80266074196809
C            8.59988721714275        1.20730547605982       29.43885853771525
C            8.12354130328299        1.61710530810115       30.74976922298454
C            8.18958521013105        2.98045306687224       30.77071258473002
C            8.71567687768120        3.38862363545290       29.47798271167231
C            9.44585652836880        5.12054859053990       27.87134054043718
C            9.63307537826135        6.48806312713999       27.44388849035089
C           10.25952380544123        6.42775531285845       26.21143538549443
C           10.43028531239615        5.00265221543789       25.90624159226100
C           11.21916126515911        3.20979268096456       24.29865026001329
C           11.90866944955848        2.77636748870788       23.08786925716208
C           11.85982045250398        1.39681572704689       23.06727397009853
C           11.14596361141229        1.03315091135527       24.29034830078380
C           10.13999521729095       -0.59913634664509       25.83681395478229
C            9.76781216091792       -1.96774782686136       26.13088677212503
C            9.10732861911258       -1.93572729720531       27.31760318666108
C            9.09637961115768       -0.54295539759349       27.74033763196362
C            8.60867634505207       -0.09729541340232       28.96312931159883
H            8.19123881201092       -0.85733033196791       29.60809475828179
C            8.88200951815494        4.70786872685170       29.07867300959560
H            8.54287961140429        5.46593832558980       29.77495089917779
C           11.03998398856981        4.52523093717355       24.74365529728412
H           11.43326897109878        5.29168663762439       24.09047229775702
C           10.86568605669195       -0.25707967215750       24.70341355574281
H           11.22991947329927       -1.06072076674868       24.08497176664538
C            7.88247841852368        3.90881314110381       31.90135050023072
H            7.67231435786312        3.36123399932296       32.81745405557844
H            7.02055411807311        4.54166768128774       31.68873029668124
H            8.73606278514271        4.56280105659625       32.08650740305188
C            7.67634268352193        0.71142294330479       31.85376034114099
H            8.06781965012109       -0.29454263004503       31.72763506232485
H            6.58784565582601        0.64541050103626       31.89704694736769
H            8.01767898480093        1.08357474407167       32.81960430319429
C            9.18182563731300        7.70721913791484       28.18368617427253
H            8.64346378571155        7.46286445850872       29.09411472672440
H            8.52397474077237        8.31141097628018       27.55250505708348
H           10.02822347536334        8.33414537390372       28.47219142333337
C           10.65793177160285        7.52571766403127       25.36588559709275
H           10.96294533536043        7.26377566864056       24.35803922596522
C           10.69067371819315        8.81800655814546       25.69361911071712
H           10.42510259558769        9.17277983730210       26.67045576543769
H           11.00459174361904        9.58913151583177       25.01009261083550
C           12.48371824278465        3.69883946779457       22.06943163802207
H           13.04032608310830        4.51302218919901       22.53043861857228
H           11.67743587547850        4.13474598976987       21.47494730068738
H           13.15378900367939        3.17603379416175       21.39350847922057
C           12.32050006580067        0.39611143621938       22.12248521247052
H           12.18831810834162       -0.63089159957783       22.45586182359602
C           12.83738093619464        0.51502077365236       20.89997154913933
H           13.01289197490557        1.45709783848508       20.40914596773479
H           13.11237845346130       -0.34932674740485       20.30973172645011
C           10.08461431520283       -3.08067471744821       25.18209490851537
H           11.16193094023441       -3.25445967434759       25.13120130019052
H            9.75488037614938       -2.81938121941839       24.17456846772059
H            9.59972474186332       -4.00795328127501       25.46837437402637
C            8.46400295279444       -3.01760649576708       28.11267151713247
H            8.58196110072290       -3.99070993075010       27.64691917893731
H            7.39713216850831       -2.81588971099864       28.22706905940394
H            8.89724486341590       -3.05976767538475       29.11341451070008
O            7.64454595468307        2.58181007801055       26.10907448894321
H            7.32306443278179        3.49211605592980       26.11569232684091
H            6.94192687535039        1.94863530702930       25.91429328820678
C           15.43619474601858        2.76065415057515       27.49228114610585
H           16.12414999669344        1.92649601616543       27.36351000877704
H           15.75132703773912        3.33073324627555       28.36708793562276
H           15.50510941586300        3.40565320406051       26.62207488706350
N           13.68026713669409        1.44068299403052       28.68470100639599
H           14.30559900011678        1.04677302768349       29.36877631805365
C           14.04427347171900        2.29046991328285       27.67072445675816
C           12.33896976703256        1.25918052549615       28.61216041130588
H           11.79312361070949        0.61759326369944       29.27360588991684
N           11.82990836244734        1.94896653048972       27.62387189855444
C           12.87920746666423        2.58014789428030       27.02058351876764
H           12.72207345466462        3.17563751602795       26.14826917796049
78
 energy: -116.041965357216 gnorm: 0.032323397151 xtb: 6.7.1 (edcfbbe)
Fe           9.84409198938090        2.21656238612026       26.86650592605313
N            9.00596858112532        2.27944313564167       28.70208090467439
N            9.93709493673735        4.23800800438615       26.88962449271760
N           10.73294692236569        2.14873831742316       24.98928721928955
N            9.67151982153393        0.24602992654427       26.80812641551605
C            8.61004159938739        1.20239187941694       29.43010699765638
C            8.13733040032130        1.61899555418240       30.73399108796638
C            8.21706667954736        2.97905310221708       30.75282863032778
C            8.74623534395681        3.37499489892231       29.46206374421726
C            9.45990162216499        5.09115745300044       27.84374387252516
C            9.63713900253342        6.45952618091656       27.43662370784608
C           10.26364782598182        6.42009179294394       26.20862207049800
C           10.43397907500079        5.00459148926143       25.88376802880592
C           11.18786320015561        3.22405981605168       24.29847586938243
C           11.87775269604033        2.79689545339897       23.10169743494121
C           11.83358395498120        1.42156903331887       23.09038424705238
C           11.11532072199941        1.04974061491641       24.30619700364635
C           10.11942468701371       -0.59064975470065       25.83957775490997
C            9.75929737349638       -1.96288749984350       26.13988345304442
C            9.10141880950363       -1.93047782262027       27.32908034926434
C            9.08688743013299       -0.53978238364994       27.74962995195014
C            8.60780352537466       -0.10440727367974       28.97073942404419
H            8.19709036405082       -0.85847351214876       29.62689721513374
C            8.91140571047411        4.68715625811782       29.05455675956922
H            8.58182292856913        5.45053160565106       29.74556251997105
C           11.03226630662364        4.54365352008148       24.71885506021684
H           11.43700755893487        5.30154361755615       24.06296261592345
C           10.83536029051533       -0.24406794372689       24.70972728310328
H           11.19664887346528       -1.05367591157699       24.09500026036778
C            7.88949342992461        3.90440968464877       31.87660013059461
H            7.66941180692151        3.34472037506740       32.78371155137953
H            7.02169833865744        4.52442027022816       31.64819481657501
H            8.73189440252315        4.56790594759920       32.07870658726694
C            7.68063041479094        0.71966513558748       31.83433873644513
H            8.07323265062071       -0.28640261874418       31.70973155773164
H            6.59171439212532        0.65731820864476       31.86813032591053
H            8.01894207238838        1.09658051386762       32.79925497521723
C            9.18099245409092        7.66379470110736       28.18931750157381
H            8.62393939126314        7.39792556754129       29.08441241146425
H            8.53771775265740        8.27985594230869       27.55615832400966
H           10.02976587633602        8.27679568380091       28.49936949381990
C           10.65997110080192        7.51563303251102       25.36560329127868
H           10.95966793233846        7.24143074851939       24.36161869849359
C           10.70048179572772        8.81112245492666       25.67892192137329
H           10.44140376257617        9.19339218450050       26.64883322324170
H           11.01067549290993        9.55642411738848       24.96461343771055
C           12.47498024575615        3.71493024291216       22.09256285143533
H           13.02326671578116        4.52547701726438       22.56985225495935
H           11.68613312364817        4.15344081921306       21.47585223508271
H           13.15952134524420        3.18288773757412       21.43931728115990
C           12.30405412641190        0.43542495533656       22.14958781896564
H           12.19645282339616       -0.58407311111996       22.50263997686320
C           12.82334999372731        0.55697940793591       20.92839740429077
H           12.98908073360331        1.49042060259117       20.42056607916299
H           13.10862377836027       -0.31797411670416       20.36473115528182
C           10.06944129387739       -3.09073763914258       25.21670408744886
H           11.14594684620858       -3.26083834817125       25.17241931745042
H            9.73142914462578       -2.84131168084050       24.21094434605033
H            9.58731111127431       -4.01428667836121       25.51977029041645
C            8.47032040712225       -3.02726262583945       28.11037351077931
H            8.60006698752933       -3.98862531085090       27.62269445416789
H            7.40320542697101       -2.83463650426156       28.22266127419875
H            8.90649753091086       -3.08271732701262       29.10745804682705
O            7.71749022598838        2.56335267847700       26.03552221141815
H            7.34377173826598        3.45926065963745       26.13558066299999
H            6.96638282790323        1.94616397693108       25.93629335269041
C           15.43818100815213        2.75606265530460       27.48357835584845