87
 energy: -128.467848747324 gnorm: 0.000200174090 xtb: 6.7.1 (edcfbbe)
Fe          27.18086587283627       -7.68635719827114       17.21914577965410
N           25.51404166924452       -7.06278732296049       16.29566685013514
N           27.39832816163013       -5.87041558746705       18.03823430569017
N           28.84632111666310       -8.30415264250971       18.14875279316963
N           26.95945994131676       -9.50188692601572       16.39445635060062
C           24.73836863408963       -7.77999704325092       15.44004346903760
C           23.62082350531398       -6.98679968450956       14.97652545820948
C           23.73837192719192       -5.77382498889986       15.58023173335380
C           24.93074039660118       -5.84087169877539       16.39635798012138
C           26.56600962163207       -4.80558046991930       17.90323308175617
C           27.06850229215311       -3.66689735142127       18.64061772736606
C           28.23135876594426       -4.07050940799625       19.21866007999911
C           28.41674336691980       -5.45281117458385       18.83360979632157
C           29.66203303795974       -7.56509289687623       18.93993861664875
C           30.77363089097559       -8.36476467825230       19.41981264105249
C           30.58590338898512       -9.61895027474379       18.90111362212090
C           29.38368450005543       -9.55308753312321       18.10975665891480
C           27.75126896048899      -10.58603635344829       16.59028740829698
C           27.28124861668159      -11.71218680893375       15.80551948034355
C           26.16977372236311      -11.26788816974320       15.13833215383394
C           25.99050360014847       -9.89155469703967       15.52317722187858
C           24.95661540210293       -9.09118419604900       15.06477000919009
H           24.26198999508982       -9.52771917235645       14.36268289384977
C           25.40638273297241       -4.78317836383736       17.15052958234111
H           24.83700256921611       -3.86577729292341       17.13800042784992
C           29.48313896326810       -6.22857375609288       19.24865417373989
H           30.22602610970108       -5.75512423956662       19.87283422237294
C           28.87999550100125      -10.62114468833639       17.38692787379280
H           29.42798413607968      -11.55041227162789       17.43157501607112
C           22.57930623608131       -7.47176765833153       14.02615326242502
H           22.04746544584621       -8.32862525264844       14.44148781742924
H           23.03375041664728       -7.78169370333928       13.08479296222287
H           21.85370557771274       -6.68996654334761       13.81457426085584
C           22.86028615963819       -4.57397119875224       15.46863174667238
H           23.41607995223466       -3.72601499178920       15.06677525022686
H           22.47398309839791       -4.28955502920996       16.44770858534058
H           22.01627535415587       -4.77091394383329       14.81186065800550
C           25.25704830493050      -12.03824655360641       14.24814249998881
H           24.21946253531214      -11.75300147289768       14.41695682627080
H           25.36019620652333      -13.10454344285173       14.43998631941004
H           25.48970929619013      -11.85373710219179       13.19790614439946
C           27.89040605531289      -13.02298409921950       15.79593034454878
H           28.35253154492148      -13.33069950286118       16.72723399026339
C           27.93109206133693      -13.85088905133020       14.75637802437989
H           27.53285579692355      -13.58235362577490       13.79355671640108
H           28.39093727835644      -14.82285012647095       14.82785083938656
C           31.39110482541442      -10.84906247079892       19.13882627671410
H           32.08214913637584      -11.02956022203183       18.31340611995510
H           30.74452714552184      -11.72036280622129       19.23297008272921
H           31.97024494825457      -10.74521828063070       20.05435642599360
C           31.81782290423779       -7.88473794264814       20.29657514372976
H           31.52079758734823       -7.11701728657372       21.00220828891843
C           33.08153061488816       -8.29784504214051       20.29439772654059
H           33.44699493791188       -9.02073340678333       19.58623239856788
H           33.80453793368145       -7.90370293458737       20.98953613359281
C           29.17080227221409       -3.30448581789561       20.08639741990602
H           30.16958951944951       -3.28859910809541       19.64941525906830
H           29.24218016075963       -3.76227851260683       21.07365424708063
H           28.83467824522357       -2.27767667670737       20.21006330420211
C           26.39138006199786       -2.34011981752480       18.70599737137202
H           26.95317162146604       -1.64890360446292       19.32969288813150
H           25.38939110742585       -2.44183954751203       19.12372865798035
H           26.29855426423874       -1.90487741618230       17.71023260553668
C           30.85252584977163       -7.34416461744159       13.01572748751750
H           31.65127819530347       -6.60686476665439       13.09792432310332
H           30.46730767455791       -7.31713922517464       11.99634092491863
H           31.26770735329206       -8.32912867739200       13.20494712151538
N           29.05560131220547       -5.89600778393407       13.98904749859737
H           29.18008587896334       -5.13276793847366       13.34449890038849
C           29.77278640551953       -7.06421464463466       13.99595042145369
C           28.16061433747855       -5.95996202716069       15.00095310521354
H           27.46257570318648       -5.18306524067977       15.23532879098716
N           28.26750969014796       -7.09481290263862       15.64641765969218
C           29.26570066465031       -7.79254453248424       15.03336215855832
H           29.54995537165871       -8.76548364869698       15.37670887937404
C           25.18027459484090       -8.64963273858396       22.35149141682178
H           25.15346821782019       -9.68045299319375       22.70500312436379
H           24.24406621580736       -8.16804094421524       22.63422148570071
H           25.99914046200831       -8.13445795200030       22.84381939191291
N           24.49453752716159       -9.17315381989723       20.00015325545728
H           23.65397282164596       -9.66888703962385       20.24753601223710
C           25.37608180812704       -8.60101931306669       20.88026004289487
C           24.96240776156559       -8.95123007416883       18.75078003079279
H           24.47478548761977       -9.28644787770729       17.85879015968893
N           26.08375304022362       -8.27496914179142       18.78642513966711
C           26.35404764070675       -8.04937824353638       20.10359901144405
H           27.22814998016866       -7.50877277542395       20.40164965173317
