72
 energy: -105.835086817385 gnorm: 0.368432806158 xtb: 6.7.1 (edcfbbe)
Fe          14.20000000000000      -25.20200000000000      -22.29700000000000
N           14.66100000000000      -27.15700000000000      -21.73300000000000
N           15.79200000000000      -25.19100000000000      -23.53400000000000
N           13.82900000000000      -23.15300000000000      -22.76300000000000
N           12.70700000000000      -25.19800000000000      -20.94800000000000
C           14.01700000000000      -27.88400000000000      -20.79700000000000
C           14.64400000000000      -29.19100000000000      -20.88300000000000
C           15.65900000000000      -29.19000000000000      -21.72100000000000
C           15.75800000000000      -27.79900000000000      -22.28000000000000
C           16.74900000000000      -26.20500000000000      -23.82000000000000
C           17.76500000000000      -25.77300000000000      -24.74400000000000
C           17.43800000000000      -24.45800000000000      -25.03100000000000
C           16.24900000000000      -24.11500000000000      -24.32800000000000
C           14.43100000000000      -22.54000000000000      -23.76600000000000
C           13.68100000000000      -21.28600000000000      -23.92800000000000
C           12.72200000000000      -21.28200000000000      -23.01400000000000
C           12.74600000000000      -22.55700000000000      -22.27600000000000
C           11.88400000000000      -24.10800000000000      -20.59800000000000
C           11.00200000000000      -24.39600000000000      -19.48699999999999
C           11.35800000000000      -25.82300000000000      -19.11600000000000
C           12.37300000000000      -26.23600000000000      -20.03800000000000
C           12.92600000000000      -27.55900000000000      -20.03300000000000
H           12.46800000000000      -28.32400000000000      -19.40700000000000
C           16.65200000000000      -27.49200000000000      -23.20200000000000
H           17.35700000000000      -28.26400000000000      -23.51000000000000
C           15.54900000000000      -22.84800000000000      -24.40100000000000
H           15.98400000000000      -22.07800000000000      -25.03800000000000
C           11.92400000000000      -22.87800000000000      -21.26100000000000
H           11.22700000000000      -22.11000000000000      -20.92500000000000
C           16.71200000000000      -30.30100000000000      -22.14400000000000
H           16.50100000000000      -31.24200000000000      -21.59200000000000
H           17.73900000000000      -29.95900000000000      -21.89400000000000
H           16.63300000000000      -30.49800000000000      -23.23500000000000
C           14.18600000000000      -30.41600000000000      -19.97900000000000
H           13.08300000000000      -30.53000000000000      -20.04100000000000
H           14.47000000000000      -30.22900000000000      -18.92100000000000
H           14.66600000000000      -31.35000000000000      -20.34200000000000
C           18.95499999999999      -26.55800000000000      -25.32700000000000
H           18.78000000000000      -26.74900000000000      -26.40700000000000
H           19.05700000000000      -27.53100000000000      -24.80100000000000
H           19.88800000000000      -25.96500000000000      -25.21300000000000
C           18.17800000000000      -23.50700000000000      -25.99200000000000
H           17.96200000000000      -22.43700000000000      -25.87600000000000
C           19.04600000000000      -23.78300000000000      -26.94900000000000
H           19.33800000000000      -24.82300000000000      -27.15500000000000
H           19.48800000000000      -22.97600000000000      -27.55200000000000
C           14.07100000000000      -20.23800000000000      -25.03000000000000
H           14.68000000000000      -20.73500000000000      -25.81600000000000
H           14.66900000000000      -19.42000000000000      -24.57500000000000
H           13.15200000000000      -19.82300000000000      -25.49500000000000
C           11.63700000000000      -20.16700000000000      -22.73200000000000
H           11.13000000000000      -20.11300000000000      -21.75800000000000
C           11.31500000000000      -19.26600000000000      -23.67700000000000
H           11.67600000000000      -19.38600000000000      -24.70900000000000
H           10.68700000000000      -18.39800000000000      -23.42900000000000
C            9.99200000000000      -23.53200000000000      -18.71500000000000
H            9.44500000000000      -22.87700000000000      -19.42600000000000
H           10.52800000000000      -22.89600000000000      -17.97800000000000
H            9.26100000000000      -24.18600000000000      -18.19200000000000
C           10.71700000000000      -26.61000000000000      -17.96700000000000
H            9.73100000000000      -27.00600000000000      -18.29300000000000
H           10.56600000000000      -25.94100000000000      -17.09300000000000
H           11.37200000000000      -27.46200000000000      -17.68500000000000
O           15.65500000000000      -24.45300000000000      -20.75200000000000
H           16.50000000000000      -24.38600000000000      -21.19600000000000
H           15.49100000000000      -24.25600000000000      -19.90100000000000
C           12.62000000000000      -27.68000000000000      -24.12700000000000
H           12.23800000000000      -28.00600000000000      -25.11800000000000
H           11.88400000000000      -27.99100000000000      -23.35600000000000
H           13.58200000000000      -28.20300000000000      -23.94100000000000
S           12.87400000000000      -25.79600000000000      -24.07100000000000
H           13.91100000000000      -25.79500000000000      -24.89600000000000
72
 energy: -105.924571959824 gnorm: 0.174235229082 xtb: 6.7.1 (edcfbbe)
Fe          14.21512336030781      -25.20382320190527      -22.28576255098469
N           14.67490821000934      -27.12623614838163      -21.73084610752900
N           15.82351661260385      -25.18209487320106      -23.55544077359907
N           13.81033049720716      -23.20941761453019      -22.76684966488391
N           12.70237452026113      -25.19840481612643      -20.92124711159560
C           14.01717336039593      -27.89556148252922      -20.82889782119433
C           14.64651790503920      -29.22122207481656      -20.85571735906218
C           15.67899235335750      -29.20305356285199      -21.71608773851010
C           15.72353921769055      -27.82388025052903      -22.27809681631156
C           16.74802023238668      -26.19700363569039      -23.81911423929850
C           17.75657931890402      -25.76223924005541      -24.74854917638319
C           17.44312895714321      -24.44418001777387      -25.05132706185398
C           16.25369791469642      -24.10632264449515      -24.32594557682377
C           14.42039540151136      -22.53072317311869      -23.74877840035319
C           13.67923462444429      -21.26711226402549      -23.93821856460164
C           12.68556902556226      -21.25849487495903      -23.01853300587359
C           12.75738875294077      -22.53724362844516      -22.27497159217190
C           11.88689713677425      -24.12557708200227      -20.58460337437988
C           11.02164247439604      -24.44122969504902      -19.47294176415957
C           11.34755233638065      -25.79386604333634      -19.12563586097994
C           12.36379896191718      -26.22571528023769      -20.04272159557423
C           12.92870469824277      -27.53198997076354      -20.05390700466840
H           12.48200167567834      -28.29252117528769      -19.41660979361815
C           16.64604127289079      -27.47394865879633      -23.21350673626046
H           17.35608615530109      -28.23850241494426      -23.51286087098356
C           15.56626896948442      -22.86471399139204      -24.40342476703470
H           15.99277329827081      -22.10194744567603      -25.04419225174891
C           11.92053405946156      -22.88828908591555      -21.24816128596877
H           11.22086666016165      -22.12748170981358      -20.92084793593065
C           16.68985704556630      -30.28617666992982      -22.13116732093812
H           16.49968442728650      -31.22377446143573      -21.59738698517085
H           17.71138902765849      -29.95949267527925      -21.89571635084822
H           16.62698369460671      -30.48739581880330      -23.20971485801964
C           14.18794822814093      -30.40376144301237      -19.98897248533140
H           13.09995331557004      -30.52511352529872      -20.04406832098723
H           14.46701337585156      -30.22858970106561      -18.94250019736798
H           14.65923610326108      -31.32980127928644      -20.33518623246649
C           18.92970182986210      -26.55056907430866      -25.31042734539531
H           18.77580839624319      -26.74890457240896      -26.38120692178946
H           19.05237499016227      -27.51443896470943      -24.80312169609638
H           19.86206500890351      -25.97612151053549      -25.20859054138130
C           18.16546559346203      -23.51227984703282      -25.97589184905268
H           17.94424721809108      -22.45178039516420      -25.85517257797380
C           19.03989717339203      -23.79272747088999      -26.93682187493019
H           19.33752747490800      -24.80914497438328      -27.16202406341025
H           19.47889949639272      -22.99829630658098      -27.53820126291080
C           14.06946944866132      -20.25195307045436      -25.01481965963236
H           14.66880698790214      -20.73052262529761      -25.79786266059787
H           14.65512385652938      -19.43342228357548      -24.57780626261876
H           13.18028248901751      -19.83292603990376      -25.49278682943740
C           11.65496669845170      -20.17714241951591      -22.75308907738967
H           11.17326438458556      -20.12614559715215      -21.77372713141063
C           11.31607511446486      -19.27382427980880      -23.66998139509469
H           11.66487559277091      -19.36437265249041      -24.68960175475298
H           10.68045985577374      -18.42459889966420      -23.43217429299751
C           10.01911055277395      -23.55684929849919      -18.73839610311770
H            9.46437457825687      -22.89570954055348      -19.42067301492862
H           10.52255205103835      -22.91518829554865      -17.99745020028811
H            9.28365054439940      -24.17604155424645      -18.20701488834190
C           10.72734464957982      -26.59162880142448      -17.99177514657725
H            9.74861197373769      -26.99609247289196      -18.29108643860592
H           10.57194497811004      -25.95237483524470      -17.11266581940944
H           11.36190049122730      -27.43812327214436      -17.69501143926491
O           15.65065382117527      -24.46420571031836      -20.77414168456204
H           16.50749324885819      -24.38113769894705      -21.18862461274623
H           15.49516484681933      -24.24691905984829      -19.87451003547186
C           12.62362531623546      -27.68873512820651      -24.13114255401836
H           12.24127839852432      -27.98624007795761      -25.11299820219793
H           11.89739517375586      -27.96970482920959      -23.36236698749641
H           13.57612285723940      -28.18876936788126      -23.93804320338122
S           12.86407815380445      -25.83402667855393      -24.06667996154036
H           13.90166357352751      -25.80518076388743      -24.90260295771225
72
 energy: -105.956589302441 gnorm: 0.047540232159 xtb: 6.7.1 (edcfbbe)
Fe          14.22425610982353      -25.20238633396773      -22.27336625312290
N           14.68697223992924      -27.10175596343275      -21.74304840372801
N           15.84930176718125      -25.17081633368183      -23.56987445348667
N           13.79261937419830      -23.26196368824339      -22.76973212316988
N           12.69885782914660      -25.19785691707834      -20.89824817360544
C           14.02399379628122      -27.89838077591622      -20.85947152061139
C           14.63796710480751      -29.23592653243571      -20.84864406915696
C           15.68016022763933      -29.20067823483682      -21.72659169867289
C           15.70051049153750      -27.84046981805063      -22.27680638538922
C           16.74010966735192      -26.18429036141449      -23.81532277483510
C           17.74598822847202      -25.75206088685669      -24.75389566925748
C           17.44774186762021      -24.43409616097818      -25.06826195001102
C           16.25148274774667      -24.10020859754629      -24.31879844091005
C           14.40689514655860      -22.52850859664677      -23.73307850438250
C           13.68494841201548      -21.26703994125954      -23.94055539485193
C           12.66577031051594      -21.24839568697529      -23.01764527674125
C           12.76417495913612      -22.52481581174570      -22.28064207789856
C           11.90125301810516      -24.13620575482655      -20.57636344535319
C           11.04132194407264      -24.48275661249641      -19.46147146140248
C           11.33801650101525      -25.76595447240980      -19.13495938404748
C           12.36676162913441      -26.21477269832145      -20.05019774148816
C           12.94171841527875      -27.49827326419666      -20.07598830742537
H           12.50437595470990      -28.25308836012804      -19.42836657061853
C           16.64012799471645      -27.44580090533059      -23.21747744056000
H           17.35366498082444      -28.20312995314768      -23.51417745515155
C           15.57046843627706      -22.88666869633877      -24.40014081489808
H           15.99239662849088      -22.13022382639186      -25.04593974655921
C           11.92131426520143      -22.90286851533847      -21.24369918100463
H           11.21520739989184      -22.15190135299325      -20.91842127611580
C           16.66206796111582      -30.26144337942546      -22.11528370396567
H           16.48364807334956      -31.19844679184274      -21.59267370683328
H           17.68497216993314      -29.95172360321617      -21.89149188473154
H           16.61264457960149      -30.46946728048765      -23.18659229061040
C           14.19269361019567      -30.38025544134572      -20.00210851949939
H           13.11316823456407      -30.51125547293035      -20.04943258564272
H           14.46440267962006      -30.22280065938132      -18.95773048969642
H           14.65618274392413      -31.30699111614793      -20.33301317563773
C           18.90234197836416      -26.54325719543929      -25.29389133374863
H           18.76056862186306      -26.74994184956296      -26.35782509579914
H           19.03246730792486      -27.49741300292713      -24.78976463875311
H           19.83260687660659      -25.97812732301695      -25.19768586141958
C           18.14776375044622      -23.52276549142085      -25.95761874510234
H           17.92003139096690      -22.47004839518785      -25.82886074360137
C           19.02778233496705      -23.80451499510143      -26.92007382121335
H           19.33393893672570      -24.80214758116605      -27.16642606251703
H           19.46696355821575      -23.01771367687756      -27.51606756178233
C           14.06837727713297      -20.27399251430042      -24.99406121870464
H           14.66698213851485      -20.73847750118002      -25.77384128026761
H           14.64402804259013      -19.44993922829454      -24.56991489216387
H           13.20032350585604      -19.84790749707554      -25.48589406847206
C           11.68685930062668      -20.20261876069322      -22.77156750872063
H           11.23114687330189      -20.15432474511888      -21.78466120001283
C           11.31906129209149      -19.28568090389159      -23.66271435744230
H           11.65560289508463      -19.33495442455743      -24.67919305893777
H           10.66488913970517      -18.46121226717967      -23.42585641641387
C           10.04710506120333      -23.58512961590742      -18.75989700750850
H            9.50100456184390      -22.92726015058993      -19.43865207595305
H           10.53730246343512      -22.94032868623025      -18.02240157177925
H            9.30752943624905      -24.18169262806490      -18.22461020006419
C           10.73578332117474      -26.57341273005773      -18.01575282877659
H            9.76354224537449      -26.98297930583393      -18.30275518799142
H           10.57954898442994      -25.95140216828630      -17.13409012669096
H           11.36607823857959      -27.41133295507040      -17.71878998223368
O           15.64032217532048      -24.47959733472188      -20.78798757956688
H           16.51571788264612      -24.36812948420774      -21.16247968589908
H           15.50911896785428      -24.23789348791444      -19.87014969555671
C           12.62965558644191      -27.69065059248473      -24.13354874623894
H           12.24602860835166      -27.96879900544499      -25.10886742012082
H           11.90916681832733      -27.95097562528412      -23.36665068190324
H           13.57342242166402      -28.18027161120818      -23.93485418252405
S           12.85086761976576      -25.86522854083427      -24.06598787294211
H           13.88591288637058      -25.81919992710404      -24.91409493810508
72
 energy: -105.964338441664 gnorm: 0.025103970040 xtb: 6.7.1 (edcfbbe)
Fe          14.23101339420753      -25.19649035475267      -22.27066623106270
N           14.68933156023320      -27.08759448432924      -21.76081739570255
N           15.85087914519807      -25.16221243411382      -23.56447862950076
N           13.78923147119680      -23.28220879731700      -22.76985033029514
N           12.72097869360279      -25.18959436585915      -20.89358997078709
C           14.02844402410793      -27.88431410671097      -20.87751631301050
C           14.63381387345918      -29.21600337828470      -20.85365831891015
C           15.67539533437123      -29.17978992435089      -21.73102354932587
C           15.69412298611813      -27.83582841776957      -22.28969133380497
C           16.73036255362305      -26.17408883772776      -23.81287189483841
C           17.73314682251396      -25.74774110114939      -24.75400309495800
C           17.44092790130934      -24.43544301232659      -25.06929803250948
C           16.24761668086241      -24.10008761310840      -24.31197543158943
C           14.39933957193487      -22.54417644897782      -23.73467917881814
C           13.68830422726606      -21.29389392258278      -23.94746973372189
C           12.66620900410460      -21.26990528388460      -23.02749099009270
C           12.76402407598272      -22.53470969982811      -22.28842824399645
C           11.92355531056623      -24.13376578535485      -20.57996840731969
C           11.05992004539140      -24.48332467953981      -19.46886049225507
C           11.34876311471324      -25.77433814275181      -19.14537434301157
C           12.38443119832149      -26.21088392482097      -20.06235211753500
C           12.95475303489627      -27.48123281488427      -20.09286433828324
H           12.53194521780390      -28.22586198372228      -19.42940232879580
C           16.63408943734795      -27.43124431933236      -23.22723079941326
H           17.36072963331851      -28.17557014797179      -23.51886750901161
C           15.56544890416075      -22.89898608742531      -24.40124725867663
H           15.98198754646450      -22.15190942834018      -25.06035977027534
C           11.92639039580939      -22.91143356781663      -21.24745261610297
H           11.20477514954630      -22.17431533494468      -20.92404589736685
C           16.64458620600293      -30.24672510409466      -22.10726073575166
H           16.45070021164406      -31.17378876542846      -21.57402218006802
H           17.66499771194760      -29.93595541437446      -21.87888104946615
H           16.59355229297847      -30.45577999394749      -23.17747970192416
C           14.18582235609407      -30.35808482235935      -20.00904160171856
H           13.10611020102044      -30.48939408023515      -20.05807994649901
H           14.45752386292282      -30.19917955265063      -18.96467993733386
H           14.65360186634070      -31.28433362523991      -20.33676329919652
C           18.87939803826539      -26.54703144985171      -25.27624951529926
H           18.73474782851497      -26.76754309910983      -26.33560700123124
H           18.99950593866316      -27.49023117289036      -24.75117504888138
H           19.80513149926727      -25.97750073333073      -25.18104294398184
C           18.13458642891804      -23.52416335828337      -25.94500554102980
H           17.89508950168917      -22.47602329714535      -25.80432551270500
C           19.01724363543184      -23.80590611669122      -26.90375494759806
H           19.31870777419115      -24.80209790560239      -27.16545390870355
H           19.45897250402283      -23.01928877849574      -27.49336022810333
C           14.08244769982201      -20.29537192578657      -24.98354290409285
H           14.69629737281814      -20.75871449936223      -25.75131187078453
H           14.64333288870885      -19.46898396750390      -24.54371349460397
H           13.21955223055814      -19.87342096933754      -25.48768138505348
C           11.70736877146996      -20.21926226183967      -22.77166550338714
H           11.28396626794802      -20.18534066102539      -21.77135325860184
C           11.30803413748827      -19.29155422333283      -23.64242938654634
H           11.63772707045957      -19.29530291885557      -24.66611827067216
H           10.61165696424386      -18.50714433010232      -23.38597929107324
C           10.06925176515546      -23.59500175456101      -18.78128809119300
H            9.54117708731007      -22.95132658945506      -19.48236303777142
H           10.56738373397231      -22.95455512209394      -18.04981498389495
H            9.33152846253147      -24.19463244442149      -18.25093240357717
C           10.74472713896172      -26.57421394577200      -18.03435163546705
H            9.77474065262996      -26.97881201354534      -18.32873131878447
H           10.59051826472943      -25.94718127925089      -17.15727527768312
H           11.38426020068773      -27.40414586549245      -17.74569808370892
O           15.64711817724298      -24.49780160244779      -20.77588303235368
H           16.52811599979583      -24.34166877470154      -21.12957111945380
H           15.51794250537693      -24.22158652399745      -19.86504269465589
C           12.63375719089051      -27.68995499188635      -24.13306229713398
H           12.24876473822330      -27.96026373287120      -25.11080328647337
H           11.91394200290887      -27.94211676709300      -23.36268458327044
H           13.57949204194777      -28.17689376006182      -23.93153160689775
S           12.84152750042660      -25.87221132700018      -24.06469986301421
H           13.85316096734552      -25.83556207849300      -24.94175366938844
72
 energy: -105.968489611207 gnorm: 0.024089727617 xtb: 6.7.1 (edcfbbe)
Fe          14.23838231648104      -25.19242749754373      -22.27343998831623
N           14.69012740640453      -27.07416035729242      -21.78081360110191
N           15.84156476060637      -25.15761761913449      -23.55791455945408
N           13.79259395067009      -23.29792603466867      -22.76611165667756
N           12.74892341759374      -25.18393368749415      -20.90489675190137
C           14.03371089382768      -27.86806177515951      -20.89372612185229
C           14.62615509887963      -29.19261215360067      -20.86405576859606
C           15.66572856557335      -29.16127746131815      -21.73995646757928
C           15.69183986704104      -27.83015304813352      -22.30208086667993
C           16.71817796661378      -26.16656467321711      -23.80768240730564
C           17.71774301585806      -25.74581849151869      -24.75244555681899
C           17.43007906852653      -24.43886844339354      -25.06770588196389
C           16.23916354106143      -24.10268612475844      -24.30690931555840
C           14.39457762650292      -22.56081329767941      -23.73745080050366
C           13.69640894274108      -21.31941376814061      -23.94915125509040
C           12.67707992622959      -21.28918753484154      -23.02938539892520
C           12.76811155697845      -22.54435812100495      -22.29304347513590
C           11.94982742445302      -24.13383002841595      -20.59029996839066
C           11.08072977244802      -24.48587338095061      -19.48646378248141
C           11.37018185506114      -25.77801346804179      -19.16138291445169
C           12.41074917337147      -26.20313153729207      -20.07604607185104
C           12.97357059748974      -27.46559500676963      -20.10167979308929
H           12.56191667131137      -28.20209099118454      -19.42661448523226
C           16.63188456777748      -27.42221732340695      -23.23283056684374
H           17.36804838858675      -28.15541035780191      -23.52492175184735
C           15.55736957006969      -22.90871285675127      -24.40700072556670
H           15.96856600728584      -22.17193438418536      -25.07979720219036
C           11.93386339588940      -22.91807914380700      -21.25232934858490
H           11.19560476962606      -22.19700114603805      -20.92938914966852
C           16.63115835535244      -30.23683098747830      -22.10201565435749
H           16.41949348055941      -31.15322237471758      -21.55721811405929
H           17.65093383334734      -29.92981101286648      -21.86792390775760
H           16.58128364291862      -30.45198755594195      -23.17030566660958
C           14.17449015375534      -30.33022075267524      -20.01331413969344
H           13.09447069491243      -30.45698612163990      -20.06881063337310
H           14.44429972515496      -30.16539415646738      -18.96889057520297
H           14.64375048342134      -31.25702826537415      -20.33846032319466
C           18.85775886656811      -26.55704595968335      -25.25642662812104
H           18.71204778160166      -26.80320744123216      -26.30971334062744
H           18.96898550919772      -27.48636417154302      -24.70368110626467
H           19.78278468981871      -25.98618606740375      -25.17046977903996
C           18.12032401694282      -23.52049672055816      -25.93578775961992
H           17.87825599187305      -22.47555743745025      -25.77715342353148
C           19.00334224640219      -23.80414425089426      -26.89139677318645
H           19.30244520946689      -24.80108760677916      -27.15601333335255
H           19.45683736611190      -23.01662079192576      -27.46986384973794
C           14.09377246417520      -20.31227165341263      -24.97367533050200
H           14.73069634278693      -20.76464689047399      -25.73030079824106
H           14.63560317411453      -19.48380045913961      -24.51274535220821
H           13.23046782025219      -19.90147776738411      -25.48701250828519
C           11.71243798271869      -20.24493312328670      -22.76598824467227
H           11.31529479138110      -20.22819048925519      -21.75614439139630
C           11.28548449325443      -19.31165942267881      -23.61595855907038
H           11.60739228752503      -19.26927712103270      -24.64417887269773
H           10.58566430735251      -18.54709542996337      -23.32425559693111
C           10.09281818973569      -23.59978362916259      -18.81129790193509
H            9.57653685583254      -22.96664988330484      -19.52842304946977
H           10.59081514184896      -22.95595377598305      -18.08459601614997
H            9.35270221088714      -24.19624050361539      -18.28246149397170
C           10.76019939400389      -26.57649717846074      -18.05991216436247
H            9.79244844832594      -26.98017215812567      -18.36079103941609
H           10.60221786149583      -25.94880206641875      -17.18397482604725
H           11.40209402793358      -27.40391742178891      -17.77308033963457
O           15.66574113635815      -24.55167875930170      -20.74814058978913
H           16.53597764007646      -24.28689007670405      -21.09401025923419
H           15.52387267905729      -24.17405539809545      -19.86608247700264
C           12.63221793543586      -27.68696645761786      -24.12826081445808
H           12.25028955009896      -27.96200543412483      -25.10614518341879
H           11.91539636720295      -27.94643587782446      -23.35731236456177
H           13.58116344344956      -28.17078832491445      -23.92708828866056
S           12.83495246759404      -25.87118111651138      -24.07027172125533
H           13.81640082473853      -25.83166819324251      -24.98192117523988
72
 energy: -105.970084077567 gnorm: 0.018171435134 xtb: 6.7.1 (edcfbbe)
Fe          14.24898728187686      -25.19160352489015      -22.27411365475223
N           14.68939488776510      -27.07038206916423      -21.79766314261595
N           15.83156641469321      -25.15795945261224      -23.55227104116533
N           13.80020999306710      -23.30381181675337      -22.76392383497256
N           12.77465010867571      -25.18057842016226      -20.91684926375244
C           14.03773142571723      -27.86051652943194      -20.90515846250568
C           14.62479503777926      -29.18041867985525      -20.87035319388233
C           15.66331663970590      -29.15664372522778      -21.74516284623433
C           15.69178319510318      -27.83072381895206      -22.31347831365915
C           16.70955592443796      -26.16591125744711      -23.80527680097207
C           17.70983778187250      -25.74685597531033      -24.74926180849420
C           17.42306988695405      -24.44222386920709      -25.06502524187187
C           16.23153194115250      -24.10699435944926      -24.30775111228740
C           14.39443003933227      -22.57009836447988      -23.74276230428001
C           13.69900055802996      -21.33238511157121      -23.95368771485811
C           12.68366217033985      -21.29990248169815      -23.03286353268891
C           12.77319228260493      -22.54974088162587      -22.29743324326175
C           11.96810321783155      -24.13505169531708      -20.60217269649278
C           11.09774639267160      -24.48609805232353      -19.50174186877250