87
 energy: -124.511715901394 gnorm: 0.409434014277 xtb: 6.7.1 (edcfbbe)
Fe          38.90999999999999        2.45000000000000       36.21000000000000
N           37.19000000000000        2.69000000000000       35.11999999999999
N           38.49000000000000        0.53000000000000       36.40000000000000
N           40.59000000000000        2.15000000000000       37.29000000000000
N           39.40000000000000        4.33000000000000       35.95000000000000
C           36.85999999999999        3.83000000000000       34.49000000000000
C           35.67000000000000        3.53000000000000       33.72000000000000
C           35.27000000000000        2.30000000000000       34.01000000000000
C           36.33000000000000        1.66000000000000       34.80000000000000
C           37.23000000000000       -0.08000000000000       36.15000000000000
C           37.29000000000000       -1.45000000000000       36.54000000000000
C           38.48000000000000       -1.56000000000000       37.16999999999999
C           39.23999999999999       -0.39000000000000       37.07999999999999
C           41.00999999999999        0.96000000000000       37.79000000000000
C           42.27999999999999        1.26000000000000       38.64000000000000
C           42.60000000000000        2.52000000000000       38.39000000000000
C           41.43000000000000        3.15000000000000       37.76000000000000
C           40.46000000000000        5.03000000000000       36.55000000000000
C           40.44000000000000        6.38000000000000       36.10000000000000
C           39.34999999999999        6.56000000000000       35.33000000000000
C           38.69000000000000        5.32000000000000       35.17000000000000
C           37.45000000000000        5.11000000000000       34.53000000000000
H           36.94100000000000        5.95000000000000       34.05900000000000
C           36.21000000000000        0.40000000000000       35.25999999999999
H           35.37300000000000       -0.23000000000000       34.96900000000000
C           40.42000000000000       -0.23000000000000       37.71999999999999
H           40.89600000000000       -1.09100000000000       38.18700000000000
C           41.40000000000000        4.47000000000000       37.38999999999999
H           42.17500000000000        5.12400000000000       37.78900000000000
C           34.06000000000000        1.52000000000000       33.33000000000000
H           34.45700000000000        0.69500000000000       32.70100000000000
H           33.47900000000000        2.21500000000000       32.68700000000000
H           33.40200000000000        1.09000000000000       34.11499999999999
C           34.89999999999999        4.62000000000000       32.84000000000000
H           35.63900000000000        5.27100000000000       32.32600000000000
H           34.26100000000000        5.24900000000000       33.49600000000000
H           34.27499999999999        4.11100000000000       32.07500000000000
C           36.09000000000000       -2.46000000000000       36.44000000000000
H           36.10799999999999       -2.96100000000000       35.44799999999999
H           35.12900000000000       -1.91300000000000       36.55000000000000
H           36.18100000000000       -3.23100000000000       37.23499999999999
C           39.15000000000000       -2.92000000000000       37.71000000000000
H           39.77099999999999       -2.93800000000000       38.61700000000000
C           38.92000000000000       -4.15000000000000       36.96999999999999
H           38.30099999999999       -4.14700000000000       36.06099999999999
H           39.36300000000000       -5.09800000000000       37.31100000000000
C           43.07999999999999        0.06000000000000       39.13000000000000
H           43.43600000000000       -0.53000000000000       38.25800000000000
H           42.43599999999999       -0.58700000000000       39.76400000000000
H           43.96000000000000        0.40800000000000       39.71300000000000
C           43.82000000000000        3.33000000000000       38.90000000000000
H           43.65899999999999        4.36500000000000       39.23500000000000
C           45.09999999999999        2.86000000000000       38.97000000000000
H           45.33599999999999        1.83400000000000       38.65200000000000
H           45.91100000000000        3.50200000000000       39.34500000000000
C           41.57000000000000        7.37000000000000       36.59000000000000
H           42.56300000000000        6.98600000000000       36.27200000000000
H           41.55000000000000        7.44300000000000       37.69800000000000
H           41.41100000000000        8.37300000000000       36.14100000000000
C           38.95000000000000        7.86000000000000       34.55000000000000
H           39.84600000000000        8.50200000000000       34.41599999999999
H           38.18600000000000        8.42400000000000       35.12700000000000
H           38.54800000000000        7.58900000000000       33.55100000000000
C           36.62000000000000        2.19000000000000       41.27000000000000
H           35.57399999999999        1.81600000000000       41.26400000000000
H           36.69900000000000        3.02700000000000       41.99600000000000
H           37.29699999999999        1.36200000000000       41.57000000000000
N           36.32000000000000        3.73000000000000       39.18000000000000
H           35.55400000000000        4.27400000000000       39.52000000000000
C           36.99999999999999        2.69000000000000       39.84999999999999
C           36.93000000000000        3.80000000000000       38.03000000000000
H           36.60400000000000        4.39800000000000       37.18000000000000
N           37.99000000000000        3.02000000000000       38.11000000000000
C           38.03000000000000        2.06000000000000       39.05000000000000
H           38.64900000000000        1.18600000000000       39.08400000000000
C           41.79000000000000        3.80000000000000       33.80000000000000
H           42.79100000000000        4.12700000000000       33.44500000000000
H           41.51600000000000        4.40200000000000       34.69300000000000
H           41.05100000000000        3.97500000000000       32.98900000000000
C           41.82000000000000        2.37000000000000       34.14999999999999
H           42.26199999999999        2.20700000000000       35.15600000000000
H           42.40699999999999        1.78300000000000       33.41200000000000
S           40.02000000000000        1.96000000000000       34.09999999999999
C           40.20000000000000        0.16000000000000       34.17999999999999
H           40.72200000000000       -0.15200000000000       35.11000000000000
H           40.79299999999999       -0.20500000000000       33.31500000000000
H           39.20100000000000       -0.32600000000000       34.16700000000000
87
 energy: -124.650946520382 gnorm: 0.197853850985 xtb: 6.7.1 (edcfbbe)
Fe          38.93429552723799        2.44832780904366       36.18512056954371
N           37.20891487874680        2.68863244847547       35.11770931827079
N           38.45555140152770        0.53115287682266       36.42860938345600
N           40.59411218029343        2.16536138449385       37.30050969191077
N           39.38747745004702        4.35114252657623       35.95188334550257
C           36.85099796572547        3.82781609004172       34.48420473946455
C           35.64188623712683        3.56107603751444       33.71299779394210
C           35.26253958936990        2.28955844821930       33.96480554373078
C           36.30618207698840        1.69669932283381       34.81051420185072
C           37.24494645140108       -0.10026077451262       36.12408877899149
C           37.27598827655284       -1.46918911745672       36.55765992050351
C           38.49175966217057       -1.63062182776601       37.16582336622526
C           39.21008291119661       -0.40289523783300       37.08918211210881
C           41.02935433559658        0.99049403999604       37.81471985954075
C           42.29706941519220        1.23526548934253       38.60353060160706
C           42.60729552425181        2.53824131081120       38.42366077111028
C           41.45638835426202        3.14198479497705       37.73133040693654
C           40.44274178980594        5.03006676046262       36.54058439741882
C           40.44881891138696        6.39846182472432       36.11134539147209
C           39.35946585357342        6.57702255108891       35.31266663516528
C           38.68550477554248        5.31579671237145       35.19648727777323
C           37.46630454177635        5.08812663464103       34.54265846458552
H           36.95999529312572        5.92813260712754       34.06666233257210
C           36.23233739036805        0.41189690038748       35.27615275198429
H           35.39673812393990       -0.21934232698012       34.98285140543461
C           40.42516182896480       -0.22581721612320       37.72128277585795
H           40.89409269205481       -1.08514593612423       38.18406640816075
C           41.39480693496723        4.46920450943820       37.38067952600814
H           42.16518093361582        5.12087404143179       37.78201059869725
C           34.07646869892531        1.52686501971098       33.33752476320178
H           34.45525424404470        0.70733688347523       32.71158084876036
H           33.49016301310643        2.20402846409681       32.70277327698468
H           33.41603733610178        1.10016532363409       34.10610636787280
C           34.90896321075272        4.61045889521710       32.84999697996312
H           35.63120146673545        5.25778649484323       32.33580902074335
H           34.26980152643682        5.23682033115438       33.48779732301134
H           34.28705302461510        4.11797043127394       32.09076947999964
C           36.10457097567700       -2.44919035017421       36.44196628489237
H           36.11052448832365       -2.95024605281024       35.46202995841608
H           35.14793031529185       -1.91918859304154       36.55081874478591
H           36.18306530632012       -3.21726162956326       37.22309805520357
C           39.11903408625757       -2.94135375918058       37.67279212298943
H           39.74373903425857       -2.93491303870885       38.57799688403724
C           38.92271322106913       -4.11266941233201       36.99174966464425
H           38.31791129191470       -4.13728428921098       36.08582052664419
H           39.35772753739142       -5.06254072074498       37.31375761516395
C           43.08160199583588        0.06483176052395       39.12849768443620
H           43.43621337646414       -0.52543532785491       38.27139329988583
H           42.44690309136188       -0.57737195185547       39.75603766344491
H           43.94754756033633        0.40250931562291       39.71133174367252
C           43.81414496852369        3.31357944214874       38.90417062458445
H           43.64891949918815        4.34545703925798       39.22570671146562
C           45.07538219606390        2.85917247284377       38.96608442427816
H           45.33217196623611        1.84992798866503       38.65329082837632
H           45.88798188416953        3.48884012582518       39.33577548863508
C           41.55306515721792        7.36339644546321       36.58016504765814
H           42.54201651999232        6.98931212545097       36.27384475091861
H           41.54447239440751        7.44283066944139       37.67718570989769
H           41.41013963033237        8.36026651409070       36.14713922559319
C           38.95568566547360        7.84814195995170       34.55787791066415
H           39.83358128716900        8.49208269535482       34.41936924616020
H           38.19642638055780        8.41284615816735       35.11894659023270
H           38.55392111250710        7.59141992017926       33.56871168671313
C           36.61010363732937        2.19299344804401       41.26989857523828
H           35.57950280758654        1.81869384743548       41.27039280009679
H           36.69620474974329        3.01633837070732       41.99059683731833
H           37.28505534119273        1.37942527550887       41.56335860770432
N           36.33912981278910        3.69430318793983       39.20528648477353
H           35.56336152163587        4.24795002596808       39.53942111645591
C           36.98775733431862        2.65987959195557       39.88146061219230
C           36.95983322240650        3.80236378469941       38.02546774687595
H           36.62275583313495        4.40451616330233       37.19500159543416
N           37.97958581347839        2.97431850925502       38.00528785275904
C           38.00039663542390        2.12118648715121       39.06592816126414
H           38.62327552950427        1.23552270371759       39.10515722370182
C           41.80463798481508        3.81963268966107       33.79372929610119
H           42.79126418306320        4.13971958065046       33.44493834137969
H           41.52085561042222        4.40630602401389       34.67335882766780
H           41.06692763698708        3.98587285587415       32.99600460474251
C           41.81689084528067        2.37012164908238       34.15231813333744
H           42.24984407854662        2.20073557520481       35.14882797863559
H           42.38570196341145        1.77850529537253       33.41790951081831
S           40.02934997230363        1.92885773036500       34.10740696867961
C           40.20484693511886        0.13585830460846       34.17671545701866
H           40.71878656130396       -0.14962213535189       35.10122831690328
H           40.78839851843284       -0.20342330073723       33.31425750715448
H           39.21020870190240       -0.32170969936948       34.16333251999010
87
 energy: -124.701002998405 gnorm: 0.058349599357 xtb: 6.7.1 (edcfbbe)
Fe          38.93237993928756        2.44841293360523       36.19344257478445
N           37.22318606556451        2.68448263978106       35.11078958919739
N           38.43216622726190        0.51980508456502       36.45289406065338
N           40.60654241855161        2.17633372563231       37.30423263284853
N           39.37564958867551        4.37056915497899       35.95700221625671
C           36.84170037069805        3.82491218362009       34.47944876757489
C           35.62186235696079        3.58457715022734       33.71263165469887
C           35.26133892939450        2.28604099697092       33.93883522855133
C           36.29120366552748        1.72769474379150       34.81217452003410
C           37.26222416938123       -0.11223328210987       36.10963803860110
C           37.27396346308295       -1.48321962435466       36.56470910041463
C           38.50313092681716       -1.68952327155174       37.15962697392640
C           39.18502069509346       -0.41288738703484       37.10665124553896
C           41.05300522862862        1.01024348019051       37.82955296378767
C           42.30410962356063        1.21681914902263       38.55620922540655
C           42.61102547716148        2.55007464968041       38.44349106968008
C           41.48164320930009        3.13463656911091       37.70654007011998
C           40.42516180395855        5.02692721077405       36.53261083603379
C           40.45182233216875        6.41171892572403       36.12126917940776
C           39.36736752953812        6.58813960017525       35.30203479084036
C           38.68740601788524        5.30568507372960       35.22425152363469
C           37.48674095189102        5.06311299338497       34.55655059723089
H           36.98922170693478        5.90261544561957       34.07373099237131
C           36.26437459085370        0.42816881227994       35.29441007615510
H           35.42869649013917       -0.20245747922270       35.00225264231663
C           40.42316630731081       -0.21683682668505       37.72065070074080
H           40.88812539630230       -1.07626623604971       38.17736713689455
C           41.38824358360905        4.46931182631338       37.37062055827354
H           42.15306612365472        5.12175158866434       37.76975752822523
C           34.10341403369107        1.53851688702014       33.34654533704185
H           34.45787205733983        0.71557707431735       32.72229817826479
H           33.50408363000817        2.19760066361903       32.71786623769984
H           33.44150854976944        1.11519147692518       34.10572975069927
C           34.92081875689208        4.59831886447030       32.86576144914986
H           35.62924742204914        5.24421774594255       32.34777469684985
H           34.27710307261398        5.23016985045381       33.48217581299810
H           34.29868624670338        4.11928092845159       32.10954725004149
C           36.12463625755770       -2.43651795623325       36.44361483988500
H           36.11731132036979       -2.93793975858416       35.47187042882333
H           35.16941966061142       -1.91978266074284       36.55260577465503
H           36.18931161315910       -3.20578233099745       37.21371175205575
C           39.08682217594466       -2.94266990781406       37.63932480945923
H           39.71248575138675       -2.91578547772034       38.53939604840299
C           38.91741683101748       -4.08038953647219       37.00657538664201
H           38.32865807082969       -4.13412831606981       36.10039975243004
H           39.35085354472542       -5.02583082682201       37.31902870532704
C           43.07970705721163        0.07417132297694       39.12205424601346
H           43.44308900679396       -0.52967903874508       38.28709384473591
H           42.45349773444504       -0.56291280138403       39.74911730473109
H           43.93265775613865        0.40700436049195       39.70841635892753
C           43.79213509539181        3.29358728302165       38.90608018589871
H           43.62417991771922        4.32442250390926       39.21369495182629
C           45.04531720465465        2.85150854901907       38.96555487204242
H           45.32726799837761        1.85883817496161       38.65184927065761
H           45.85803350090107        3.47534895591621       39.32318050003093
C           41.53040525448960        7.35540275998584       36.56769196091595
H           42.51751213076030        6.98902057948855       36.27023516527260
H           41.53390558718726        7.44247129480382       37.65748143292099
H           41.40040186091957        8.34958412303011       36.14704771082675
C           38.96332700973833        7.83161708451348       34.56704356395691
H           39.82546733089047        8.48243840547701       34.42471679781445
H           38.20543431256860        8.39662884039373       35.11587283609536
H           38.55881080663619        7.58856194603435       33.58445810574821
C           36.60809930322780        2.19604767945886       41.26102553421880
H           35.58469344648821        1.82426119399663       41.27558538126841
H           36.69365315247853        3.00843968869032       41.98238616137869
H           37.27416398800956        1.39083932299452       41.56207500088918
N           36.36035619185373        3.66406996296185       39.22420035580381
H           35.58512790975342        4.22735636755411       39.55230276574814
C           36.98753759650167        2.64202441562790       39.89902749544107
C           36.97444795216033        3.78986085153392       38.02491815626340
H           36.64115438114725        4.41503541731246       37.21905260664282
N           37.95393585730133        2.92218889765535       37.91982736620062
C           37.95935487450149        2.16755941732067       39.06847078411938
H           38.60067083792348        1.29507585932204       39.12881743517143
C           41.81898335814439        3.83638178947968       33.78692290471317
H           42.79767245846894        4.14943357971899       33.44495303916422
H           41.52922274233664        4.41700250113353       34.65391280098842
H           41.08640022288220        4.00054429685699       32.99722335067861
C           41.80944817909917        2.36988749532141       34.15397239889769
H           42.23451546574543        2.19579794663015       35.14319536122823
H           42.35690256408116        1.77212391131111       33.41974038204672
S           40.03069369899183        1.90840784721934       34.12545187985413
C           40.21486333999094        0.11538549691326       34.17433588055637
H           40.71932683165382       -0.15886269640329       35.09442384347941
H           40.78607148835636       -0.20733138159639       33.30968123825807
H           39.22136041021535       -0.31920075548512       34.15830606394886
87
 energy: -124.711273587508 gnorm: 0.029614043506 xtb: 6.7.1 (edcfbbe)
Fe          38.92887533110351        2.44579346296747       36.20096512571789
N           37.23131270683738        2.68919132641229       35.11630447570359
N           38.42091953141159        0.52125239322162       36.48657853145873
N           40.60734337269876        2.18051705127143       37.30620461791845
N           39.36270667345897        4.37619332723952       35.98345228249674
C           36.84845849795263        3.82690725735310       34.48290603270220
C           35.63144077628344        3.59400488784687       33.72007260696646
C           35.28053644344446        2.29288251945765       33.93695557014095
C           36.29619652602803        1.74400254253571       34.82069686869919
C           37.26822014764995       -0.10893246685610       36.11312243340008
C           37.27591119404984       -1.48223528043950       36.55552961732037
C           38.49326254692734       -1.69274461517707       37.15784729538073
C           39.16989928854800       -0.41003267973722       37.13168043726920
C           41.05725881441460        1.01185413789712       37.82781018132291
C           42.31513088629205        1.20404996672284       38.51457701002948
C           42.61085265707458        2.54238720655606       38.42474499332926
C           41.49525302512595        3.13212477563436       37.68728593819705
C           40.41604543197227        5.02653567071831       36.54234138138803
C           40.44138164139844        6.41200076354192       36.13028953435637
C           39.36457257026121        6.58492968809738       35.30898407827139
C           38.68596197311933        5.29958583514697       35.24731145638692
C           37.50263871600592        5.05209591664412       34.56314656525404
H           37.02735563242473        5.88647276938160       34.06108410424041
C           36.28072045232346        0.44716434993031       35.31004922690131
H           35.44991873973040       -0.18247549903566       35.02066101260641
C           40.41141884543406       -0.21049159102598       37.72768489403072
H           40.88338339144571       -1.07141927529552       38.17263701598188
C           41.39141000466550        4.46935400974778       37.35930317987826
H           42.15282528778907        5.12676986911183       37.74988608187432
C           34.12783246012852        1.54390533825022       33.35676099895663
H           34.47560319220968        0.71570139956267       32.73695263456496
H           33.52129630684681        2.19857136002655       32.73285193624984
H           33.47940272533352        1.13058499863882       34.13035771069190
C           34.92961783186980        4.60221688856873       32.87763702520675
H           35.64154286397736        5.24099205364269       32.35887412524997
H           34.28261617420883        5.23775547079286       33.48610425218344
H           34.30912236772256        4.11553289131686       32.12717194283564
C           36.13530670726324       -2.43243919853619       36.43623243466389
H           36.12684394998131       -2.92704847092454       35.46323907310099
H           35.18610520554515       -1.91079739422025       36.55384203385088
H           36.20544735974993       -3.20143170778875       37.20427373120366
C           39.06267008524103       -2.93234501085950       37.63552068193385
H           39.68779977779382       -2.88612943645462       38.52594127714772
C           38.90551550617100       -4.09495998159265       37.00551752666862
H           38.32970783125409       -4.16040485198371       36.09490098179538
H           39.34903661516143       -5.01997763598252       37.33943553483680
C           43.08738085549994        0.07759772558074       39.11429615574851
H           43.47391942936308       -0.55108904412465       38.30716259983828
H           42.45194964739215       -0.54345139672919       39.74562610154469
H           43.92164425566191        0.43171373045948       39.71290664290499
C           43.76408148052965        3.27995147545496       38.90237646822767
H           43.58102099961524        4.30694850609237       39.20481715636198
C           45.01708105099463        2.84023930401629       38.96296419584991
H           45.30948912315016        1.85454226726619       38.64171507343288
H           45.82169646430702        3.46708901619658       39.31753858182057
C           41.50972117466370        7.35982959527283       36.55727902308713
H           42.49131959283295        6.98933926540653       36.25456188210253
H           41.51562646237134        7.45301988609852       37.64468380042099
H           41.37133728162720        8.34900209416855       36.13097781348603
C           38.96357978053348        7.81923010379432       34.57365161421638
H           39.82254483193514        8.47317867621137       34.43372733938789
H           38.20316906347025        8.37759763954552       35.12263433296322
H           38.55987056650005        7.57462284768926       33.59308146628766
C           36.60253630130738        2.19467397332126       41.26297500892256
H           35.57699262150028        1.82834726317399       41.28612718181482
H           36.69058323611674        3.01225912343456       41.97743548168137
H           37.26477150466101        1.39152845941064       41.57196467819639
N           36.36218855264669        3.65168045040006       39.22716203314121
H           35.60376952743107        4.22359631063266       39.56737495886205
C           36.97917477225596        2.62529256266335       39.89479655528901
C           36.95885578689705        3.77165908252612       38.01707802744840
H           36.65018494807846        4.44798234064221       37.24176461521622
N           37.91802727991890        2.88563434414566       37.87831763843550
C           37.94304818659964        2.16784720984095       39.04896895768513
H           38.61903244705558        1.33544582570553       39.14855470167625
C           41.83879932682427        3.85133269546195       33.77284522501460
H           42.82793575199199        4.15140241974244       33.44415583202066
H           41.54981064491873        4.44837537102749       34.62779128790451
H           41.12501312688362        4.03614121677088       32.97310233851474
C           41.79214555199599        2.38006450318538       34.14858281106417
H           42.21196119556360        2.19450058181980       35.13661901375026
H           42.31192060137347        1.76063617941855       33.41398701650019
S           40.02361605387257        1.88598497745949       34.13985646328641
C           40.22903177543257        0.08978585780335       34.16599623667052
H           40.73515924890378       -0.19401940390590       35.08168944408790
H           40.79238241779882       -0.21853975878264       33.29013340630441
H           39.23394901319421       -0.33943831062331       34.14599438846736
87
 energy: -124.715114766665 gnorm: 0.014238588318 xtb: 6.7.1 (edcfbbe)
Fe          38.91048593564674        2.44273712304640       36.22563081106905
N           37.23997951247685        2.69489112616366       35.12362120726458
N           38.41848975502896        0.51968948163074       36.50787967201243
N           40.59930029390311        2.17861231140864       37.30700282163935
N           39.35441711215125        4.37165852433351       36.00423540502715
C           36.85847692764749        3.83009663867729       34.48666371516632
C           35.64515243293283        3.60046651331233       33.72867632641788
C           35.30002768324847        2.30102424905452       33.94265945113139
C           36.30523457966819        1.75519520485357       34.82968951282131
C           37.27268298467794       -0.10357636080326       36.11829316844948
C           37.27750492764671       -1.48045701060449       36.54222111072198
C           38.48629374090208       -1.69551384344693       37.14905944690576
C           39.16297947209666       -0.41288466202971       37.14791390069640
C           41.05991712760449        1.00513333036959       37.81413790463391
C           42.32280944042987        1.19169573625315       38.48018199167363
C           42.60595369785998        2.53112992145574       38.40155558795205
C           41.49597383722877        3.12603842727903       37.67634909241690
C           40.40865696544760        5.02253287418249       36.55620096862702
C           40.42996241306599        6.40687615487899       36.13949129012485
C           39.36001158046480        6.57589184163970       35.31684179487596
C           38.68459717266739        5.29184780510624       35.26289753369872
C           37.51622247363572        5.04666907873209       34.56244141908318
H           37.06566656315211        5.87777921669091       34.03774429601010
C           36.28994920743540        0.46345362874276       35.32406835148615
H           35.46088351772033       -0.16521387181110       35.03745042711402
C           40.40488872811650       -0.21233354084011       37.72714558343031
H           40.88515858694726       -1.07188489768178       38.16677164555307
C           41.39171053862059        4.46504869873323       37.35539084504571
H           42.15918461402504        5.12482036401246       37.72849466031669
C           34.14764473857743        1.54498842170584       33.37413487646065
H           34.49688832642730        0.71330265797043       32.76104306240670