72
 energy: -105.905271178935 gnorm: 0.308323229509 xtb: 6.7.1 (edcfbbe)
Fe          10.79800000000000       -5.64500000000000      -26.83599999999999
N           10.85900000000000       -4.17400000000000      -25.45500000000000
N            9.76700000000000       -6.80200000000000      -25.51300000000000
N           10.95800000000000       -7.24800000000000      -28.10100000000000
N           12.16300000000000       -4.68600000000000      -27.88200000000000
C           11.44700000000000       -2.92300000000000      -25.60700000000000
C           11.06700000000000       -2.04100000000000      -24.53800000000000
C           10.36700000000000       -2.84000000000000      -23.63400000000000
C           10.23500000000000       -4.13600000000000      -24.21600000000000
C            9.31700000000000       -6.40300000000000      -24.26200000000000
C            8.50900000000000       -7.46700000000000      -23.69500000000000
C            8.46300000000000       -8.45800000000000      -24.62800000000000
C            9.22600000000000       -8.05300000000000      -25.80500000000000
C           10.21600000000000       -8.42800000000000      -28.05500000000000
C           10.40800000000000       -9.19400000000000      -29.22000000000000
C           11.29500000000000       -8.48300000000000      -29.98300000000000
C           11.67500000000000       -7.28100000000000      -29.27400000000000
C           12.79700000000000       -5.12700000000000      -29.01600000000000
C           13.68300000000000       -4.06100000000000      -29.59500000000000
C           13.62200000000000       -3.04200000000000      -28.72500000000000
C           12.68500000000000       -3.43400000000000      -27.67200000000000
C           12.25800000000000       -2.59200000000000      -26.63000000000000
H           12.62100000000000       -1.56500000000000      -26.65300000000000
C            9.53900000000000       -5.18600000000000      -23.66900000000000
H            9.12500000000000       -5.03900000000000      -22.67200000000000
C            9.39800000000000       -8.76400000000000      -26.96099999999999
H            8.83800000000000       -9.69500000000000      -27.04400000000000
C           12.51300000000000       -6.29600000000000      -29.68500000000000
H           13.01200000000000       -6.44600000000000      -30.64200000000000
C            9.78500000000000       -2.42600000000000      -22.30300000000000
H            9.99500000000000       -1.35000000000000      -22.12500000000000
H           10.24800000000000       -3.02300000000000      -21.48900000000000
H            8.68500000000000       -2.58200000000000      -22.30900000000000
C           11.43600000000000       -0.59500000000000      -24.39800000000000
H           11.56100000000000       -0.14500000000000      -25.40600000000000
H           12.39300000000000       -0.50400000000000      -23.84100000000000
H           10.63000000000000       -0.05300000000000      -23.85900000000000
C            7.85400000000000       -7.44000000000000      -22.34100000000000
H            6.78000000000000       -7.18000000000000      -22.45400000000000
H            8.34500000000000       -6.67500000000000      -21.70200000000000
H            7.93400000000000       -8.44100000000000      -21.86500000000000
C            7.76700000000000       -9.76900000000000      -24.60500000000000
H            8.10800000000000      -10.56800000000000      -25.28000000000000
C            6.80900000000000      -10.02800000000000      -23.86200000000000
H            6.42200000000000       -9.27000000000000      -23.16500000000000
H            6.33300000000000      -11.01900000000000      -23.89000000000000
C            9.64100000000000      -10.48500000000000      -29.48999999999999
H            8.62700000000000      -10.24100000000000      -29.87400000000000
H            9.54000000000000      -11.06500000000000      -28.54800000000000
H           10.17900000000000      -11.08900000000000      -30.25200000000000
C           11.85900000000000       -8.84600000000000      -31.24700000000000
H           12.73100000000000       -8.26800000000000      -31.58100000000000
C           11.48600000000000       -9.76300000000000      -32.05600000000000
H           10.53300000000000      -10.29000000000000      -31.90100000000000
H           12.11300000000000      -10.03700000000000      -32.91700000000000
C           14.43400000000000       -4.22400000000000      -30.91000000000000
H           13.70800000000000       -4.39900000000000      -31.73300000000000
H           15.12100000000000       -5.09500000000000      -30.84500000000000
H           15.01200000000000       -3.30100000000000      -31.12900000000000
C           14.31800000000000       -1.72500000000000      -28.76600000000000
H           13.62000000000000       -0.94800000000000      -29.14600000000000
H           15.19500000000000       -1.78500000000000      -29.44600000000000
H           14.64900000000000       -1.44300000000000      -27.74400000000000
O           12.52300000000000       -6.64500000000000      -25.46500000000000
H           12.08500000000000       -7.30700000000000      -24.93100000000000
H           13.39000000000000       -6.44700000000000      -25.45100000000000
C            8.34700000000000       -3.39600000000000      -27.40500000000000
H            7.25700000000000       -3.21900000000000      -27.53000000000000
H            8.88900000000000       -2.59600000000000      -27.95300000000000
H            8.58500000000000       -3.32000000000000      -26.32300000000000
S            8.82500000000000       -5.01900000000000      -28.03700000000000
H            8.21900000000000       -5.70000000000000      -27.07600000000000
72
 energy: -105.957064637377 gnorm: 0.095916104970 xtb: 6.7.1 (edcfbbe)
Fe          10.89003541418547       -5.68314779576521      -26.78768240859997
N           10.85396216516076       -4.16667046244343      -25.45372751445079
N            9.73787697428415       -6.77914387105538      -25.53111922499173
N           10.95188799391287       -7.24800867849037      -28.08768242769978
N           12.18066512966650       -4.67662847366826      -27.89554030928071
C           11.42287462879323       -2.92502440696964      -25.61516771637869
C           11.06672166874596       -2.05290766405657      -24.52438087971746
C           10.36312439542740       -2.83075494574124      -23.63712053630982
C           10.23077941211733       -4.13087099728683      -24.23078184364508
C            9.30936147829675       -6.41379959330587      -24.27717025827731
C            8.50901967164341       -7.47654123994808      -23.70429980251488
C            8.46592135301060       -8.46971574866877      -24.64159126004914
C            9.23198897058392       -8.03361962378947      -25.79327043734142
C           10.20620141247075       -8.40380949489482      -28.04033261865026
C           10.39424245030890       -9.18437999249454      -29.21727939455728
C           11.29257640325884       -8.48390060382166      -29.98712428727318
C           11.64757827190044       -7.28424308380804      -29.26268231342478
C           12.77968200132560       -5.11230618222695      -29.04137077034574
C           13.67788509866183       -4.07905624126687      -29.59052701100563
C           13.61493731475894       -3.04410219505063      -28.72118514907342
C           12.67191989373540       -3.42268366070786      -27.68119582785270
C           12.25624102967376       -2.58596145140317      -26.64902285226666
H           12.63517751053811       -1.57040828290957      -26.65679318432535
C            9.53962871575225       -5.19195937949877      -23.67497123077009
H            9.12605879344586       -5.04071279865879      -22.68349547043228
C            9.40150354795780       -8.74962088005159      -26.95470628689886
H            8.85180901681161       -9.68200955699947      -27.03902722156239
C           12.50683553866270       -6.29665660541208      -29.69115363038872
H           13.01131855147036       -6.45217139614820      -30.63799289913709
C            9.78800766494486       -2.42502850528178      -22.31317208857441
H            9.99061147174557       -1.36657249970630      -22.12274284037463
H           10.23531316575675       -3.01311421014579      -21.50254334614686
H            8.70204808324613       -2.58027448433774      -22.30269811484468
C           11.43444725455472       -0.60893246953776      -24.39814723716184
H           11.55827947054056       -0.15090288215944      -25.38645981830665
H           12.37758544902071       -0.49893389577078      -23.84784781337735
H           10.64958249335772       -0.06063362657908      -23.86503266920651
C            7.86297047937469       -7.44035761090896      -22.35241969546857
H            6.79958283634343       -7.18071502559561      -22.44682268667739
H            8.33737449280114       -6.69190001295550      -21.70897111588480
H            7.93668602180555       -8.42091087205223      -21.86803206745068
C            7.79128458591646       -9.76557588222505      -24.61404028724852
H            8.13753075767196      -10.54320809318077      -25.29214707785172
C            6.77519195361078      -10.04299195317253      -23.83345706284932
H            6.38116569207880       -9.29866541389661      -23.15696135489062
H            6.30544820448999      -11.01728328960670      -23.86428186840347
C            9.65258085016070      -10.47031393729867      -29.48428233465814
H            8.64819732310937      -10.24545864039580      -29.86764372152273
H            9.54408225715953      -11.05238370045971      -28.56314741251838
H           10.17369314846920      -11.08729055775670      -30.22153032766477
C           11.87448025826606       -8.83800559128602      -31.24972252172293
H           12.75236604701496       -8.26945141505357      -31.55489632021030
C           11.48067381498084       -9.78145919836155      -32.08409109712990
H           10.54964347364158      -10.30969357979129      -31.93209425303695
H           12.08459819621354      -10.04126562446222      -32.94242440932830
C           14.42511305938469       -4.22563110402785      -30.88995189856559
H           13.72098454246293       -4.39522973713680      -31.71447627810671
H           15.11117143825696       -5.07969650618535      -30.84520554567199
H           15.00046161506386       -3.32112860431900      -31.11753427464850
C           14.31421664245887       -1.72810871920470      -28.76628332596695
H           13.63483038750789       -0.95116273789608      -29.14028273425835
H           15.18242514969982       -1.77818657283772      -29.43219708597064
H           14.64996516919430       -1.44067839981373      -27.76391682473776
O           12.50177328073654       -6.64210744398253      -25.48344672352573
H           12.09222961647927       -7.30511753216658      -24.93066400929740
H           13.42000830912990       -6.44772110058275      -25.44407544596920
C            8.33976750709713       -3.38220562423013      -27.39388884906624
H            7.26416827861753       -3.22633986677645      -27.53591282176951
H            8.88717558845664       -2.61251272544471      -27.94606839014579
H            8.58692199013020       -3.31288385538677      -26.33144831498551
S            8.84967968343875       -5.00766489138071      -28.01487654301449
H            8.19986748904755       -5.70148630010786      -27.08376662456797
72
 energy: -105.968210731050 gnorm: 0.028464646974 xtb: 6.7.1 (edcfbbe)
Fe          10.92154954086582       -5.70345561006812      -26.75858604035515
N           10.85721689985330       -4.16527872527459      -25.45475023452698
N            9.73164029288250       -6.77268849640801      -25.53563553426889
N           10.95661689613948       -7.24310181952458      -28.07410392738842
N           12.18889670404125       -4.68038294239489      -27.89855239023526
C           11.41000271200828       -2.93154335676173      -25.62431703059847
C           11.06715015294386       -2.06470083608864      -24.51998379461616
C           10.35690522677720       -2.82803637728055      -23.64400624105828
C           10.22744805292787       -4.13289052984931      -24.24681989236020
C            9.30042412337304       -6.41927144015713      -24.29043593835261
C            8.50618938040789       -7.47742884649110      -23.71166737909912
C            8.45718531524277       -8.47735106484903      -24.64963588214258
C            9.23431711673051       -8.01838267853407      -25.78281822451238
C           10.20303031707855       -8.37797872465665      -28.02590182184116
C           10.38169735701072       -9.16917403643058      -29.21267664138374
C           11.29001110787101       -8.48599090701884      -29.99011709832627
C           11.63192539386861       -7.28576002185183      -29.25097266870160
C           12.76580372066660       -5.10705891370626      -29.05365242759203
C           13.65889127271869       -4.09108235368784      -29.58762651559501
C           13.59791215605333       -3.04499940235015      -28.72216334937151
C           12.65805812470222       -3.42186441624645      -27.68624474985428
C           12.25524135227011       -2.58553031537803      -26.66176605439959
H           12.65000894090013       -1.57948821290078      -26.65782719898481
C            9.53567696490301       -5.19399601764188      -23.68594057003173
H            9.12364984665494       -5.03795886755195      -22.69926383531790
C            9.40335179193355       -8.73463210303237      -26.95082154559670
H            8.86815884072161       -9.66995942681069      -27.03459955652806
C           12.50253519260463       -6.30213852927890      -29.69185675202652
H           13.00602531316830       -6.46142412013318      -30.63355969584087
C            9.78782984685423       -2.42824591184477      -22.32366072677933
H            9.98846616438103       -1.37892685548279      -22.12595107249514
H           10.22889802325326       -3.01445169062432      -21.51780095760073
H            8.70943389451108       -2.58385474834898      -22.30252886795517
C           11.43527063575090       -0.62306835256216      -24.39852328971657
H           11.55548119416005       -0.16523899963180      -25.37783906844642
H           12.37136713297427       -0.50416716992743      -23.85163732907883
H           10.66156588111678       -0.07449457600912      -23.86475271589446
C            7.87405973923100       -7.43829914919053      -22.36077563264070
H            6.81705566390749       -7.17658351691927      -22.44390751088706
H            8.34859964398825       -6.70079776848785      -21.71932626010400
H            7.94586566792151       -8.41130556287616      -21.87799128878277
C            7.79095328567632       -9.75864411154288      -24.60820814656289
H            8.15420516582084      -10.52071342260195      -25.28403486595770
C            6.75762670386794      -10.05143854788774      -23.82234703508335
H            6.34086955824686       -9.32283265748140      -23.15759159432914
H            6.29911434850583      -11.02204771668076      -23.85035935828227
C            9.66260312464392      -10.45301345170600      -29.46967613765932
H            8.66550892796745      -10.24596882021153      -29.86390677163043
H            9.54881586003077      -11.02870040985436      -28.55395277793805
H           10.19055909315859      -11.07526490713687      -30.18480239982948
C           11.88637487863723       -8.84253362234638      -31.25097184781892
H           12.77872200937245       -8.28907116472573      -31.52266275277470
C           11.47897894865541       -9.78491872002842      -32.10240350280299
H           10.56312603274978      -10.32269580500134      -31.96219414825695
H           12.05643033180679      -10.01940375493849      -32.97806100395363
C           14.41494253169964       -4.22779318857645      -30.86811381772113
H           13.72382309887286       -4.39360976283953      -31.69495067952815
H           15.10198737060652       -5.07265207435474      -30.83088583631427
H           14.98788872069707       -3.32992416935964      -31.08786546603612
C           14.30874710589284       -1.73371884425477      -28.77003639543529
H           13.64187708685075       -0.95267829540150      -29.13730825282817
H           15.17092979632015       -1.78191825535173      -29.42991026222860
H           14.65201571080940       -1.44546249202723      -27.77855481458874
O           12.50026240646056       -6.64678415643602      -25.53533003987704
H           12.11975163620662       -7.28804887406473      -24.93082905913836
H           13.43083109772863       -6.44403143323151      -25.43784834853789
C            8.33958780085083       -3.36691661024317      -27.38010573889656
H            7.27220119823938       -3.23735644080226      -27.54110902147777
H            8.88919459670216       -2.61775255621963      -27.93981625876905
H            8.58627876650987       -3.29527594576518      -26.32762790379757
S            8.86816896196713       -4.99256128800194      -28.00687965147699
H            8.17821024907576       -5.70328510666278      -27.10865839918089
72
 energy: -105.971204719765 gnorm: 0.034978705065 xtb: 6.7.1 (edcfbbe)
Fe          10.92019158757552       -5.70963368766508      -26.75350460294993
N           10.86058677465018       -4.17031669262210      -25.45776752352864
N            9.72388523900914       -6.76822643970223      -25.54028849279914
N           10.95741075393563       -7.23549075763309      -28.07031050157419
N           12.18473650228326       -4.68365718294132      -27.90150053784695
C           11.40914350415332       -2.93981512693639      -25.62812373920730
C           11.06770022134435       -2.07317422253936      -24.52169632616050
C           10.35007899734066       -2.83088172969820      -23.65058334761708
C           10.22346070137288       -4.13794978298543      -24.25694004801731
C            9.29278541112223       -6.41816662337058      -24.29658134329383
C            8.49914673304584       -7.47049183646984      -23.71697538409225
C            8.44475558247199       -8.47488770675047      -24.65369862386710
C            9.22993476407066       -8.01089146154987      -25.77985817444695
C           10.20084082117873       -8.36252943698778      -28.01734592600322
C           10.37724583014340       -9.15988961395843      -29.20604769572795
C           11.29143010796864       -8.49024995859332      -29.98626246888316
C           11.62935612803175       -7.28624549612033      -29.24392995214233
C           12.75613047642728       -5.10652372502024      -29.05813060714772
C           13.64509659251054       -4.09549448907337      -29.58693340934859
C           13.58495949880132       -3.04486759612164      -28.72520755106505
C           12.64868744496892       -3.42429118735255      -27.68948893402921
C           12.25688347084449       -2.58801060025221      -26.66473361983149
H           12.66080056490845       -1.58703212300739      -26.65528978427542
C            9.52937692444131       -5.19263406936051      -23.69261104445437
H            9.11320644196541       -5.03030192286128      -22.71062010477917
C            9.40202825010340       -8.72820494176266      -26.94891040554119
H            8.87584294487431       -9.66588302577745      -27.03143478023962
C           12.50073830151659       -6.30688766457925      -29.69190524416499
H           13.00314894270486       -6.46946698043346      -30.63201463623063
C            9.78367337332835       -2.43549599021222      -22.33058213495881
H            9.98575578775397       -1.38770123797372      -22.12931526794123
H           10.22629918110965       -3.02532018138437      -21.52903283425858
H            8.70616953687865       -2.59146808186259      -22.30586727113130
C           11.43921394473388       -0.63397368165184      -24.39932008930852
H           11.55541174393790       -0.17723883440567      -25.37799507729200
H           12.37611588960235       -0.51665229049012      -23.85497025319070
H           10.66887857997946       -0.08697324044415      -23.86040888971877
C            7.88233579990761       -7.43498522863887      -22.36263682018384
H            6.82688079606113       -7.16730826610999      -22.43321874341295
H            8.36966920567616       -6.70530841353497      -21.72306465426641
H            7.95428679233092       -8.41127339683833      -21.88826082543445
C            7.78326943680769       -9.75385779284375      -24.59944705468177
H            8.16690814055331      -10.50983690509745      -25.27120911295769
C            6.74499648627827      -10.06059121762989      -23.81659243757143
H            6.29557585946454       -9.34028920645117      -23.16103958574638
H            6.29990124807970      -11.03838208311956      -23.83960516429770
C            9.67158085087467      -10.44658102936986      -29.45147170204597
H            8.67988382576596      -10.25510081280855      -29.86647546980173
H            9.54725465992155      -11.00632365345971      -28.52755360689841
H           10.22122455279669      -11.07468366411649      -30.14501075661575
C           11.89422189948143       -8.84997021941966      -31.24673848912147
H           12.80351657610205       -8.31102261003828      -31.48984865219122
C           11.47539507508213       -9.77318750425138      -32.11764147110176
H           10.56052121979620      -10.31729493593777      -31.99656196337775
H           12.03743949010108       -9.98540073934031      -33.01128893038086
C           14.41062961006994       -4.22900104007003      -30.85651156665779
H           13.72737246437993       -4.39294614223429      -31.68930915692522
H           15.09748175610201       -5.07288873369089      -30.81373663005628
H           14.98383750665927       -3.32954127106384      -31.06185456846751
C           14.30302747379173       -1.73801167503095      -28.77588885020037
H           13.64109056703192       -0.95110663685430      -29.13785937281287
H           15.16118679126670       -1.79209847744153      -29.43909257463226
H           14.65512072406690       -1.45403866612105      -27.78670975069677
O           12.53169120851215       -6.70086166076327      -25.62989064445582
H           12.16116066150489       -7.24709567049799      -24.90313714698066
H           13.44238121936302       -6.41174398505138      -25.41451431097771
C            8.34144028736691       -3.35167525982482      -27.36953785107621
H            7.27618434135365       -3.23744148500074      -27.54319099110953
H            8.89393122361798       -2.60808536489194      -27.93113256140530
H            8.58206647373389       -3.27685996150976      -26.31715265320749
S            8.88055865018184       -4.97695368523264      -28.00222911847025
H            8.14686957482689       -5.70133298516389      -27.14240018471503
72
 energy: -105.972556397872 gnorm: 0.016590801193 xtb: 6.7.1 (edcfbbe)
Fe          10.91777339869544       -5.71422678995773      -26.75369032599164
N           10.86651418321208       -4.17863697823948      -25.45865933168373
N            9.71939143496143       -6.76682509238216      -25.54196730454581
N           10.95081106587115       -7.22603660946784      -28.07299577629888
N           12.17636017755346       -4.68491880553217      -27.90543917780050
C           11.41254302900659       -2.94712716594939      -25.62906478922499
C           11.06775844380007       -2.07921934106891      -24.52506305675372
C           10.34318768400745       -2.83470257678600      -23.65652992375751
C           10.21870477222394       -4.14239756106368      -24.26283191328811
C            9.28458301280155       -6.41466147431910      -24.29904581644391
C            8.49008421773931       -7.46260669772001      -23.72016714299451
C            8.43186866343279       -8.46906634783275      -24.65531850669961
C            9.22135839846498       -8.00685125360221      -25.78030732406517
C           10.19655712836760       -8.35317396524424      -28.01316220811736
C           10.37801785511268       -9.15634826282016      -29.19839961187258
C           11.29499728577815       -8.49572771818651      -29.97882833073002
C           11.62936054254047       -7.28526107662482      -29.24075535116991
C           12.74802070283424       -5.10680183258465      -29.06101320121032
C           13.63548345175736       -4.09588033255966      -29.58855937890158
C           13.57509006527361       -3.04396139974505      -28.72952871515359
C           12.64107677370226       -3.42586565722797      -27.69316431238773
C           12.25807867863833       -2.59053664431510      -26.66427614880551
H           12.66723051708541       -1.59226737550768      -26.65243310973763
C            9.51977119733579       -5.18926984392998      -23.69693027416828
H            9.09624797128885       -5.02042641630102      -22.71963580995854
C            9.39702211001254       -8.72472411122276      -26.94848277450920
H            8.87741296618475       -9.66508512716602      -27.02908894414388
C           12.49836986057950       -6.30967629559466      -29.69301393662149
H           13.00283173804528       -6.47650025413585      -30.63126177298534
C            9.77598339462474       -2.44269751293299      -22.33647150759008
H            9.97934339088955       -1.39450429288703      -22.13225152146261
H           10.22077604107205       -3.03672577811454      -21.53775354270183
H            8.69764002333532       -2.59895945798722      -22.31160042947349
C           11.44340069651000       -0.64212180403325      -24.40047000142801
H           11.55510323582870       -0.18498800912833      -25.38026718948553
H           12.38410834136656       -0.52946345534048      -23.85994908940594
H           10.67542211239153       -0.09617596624507      -23.85510582354685
C            7.88719803228318       -7.43272873929993      -22.36066209504321
H            6.83245481017942       -7.15622821161938      -22.41709859102031
H            8.39076931007106       -6.71151847269131      -21.72138769479508
H            7.95785408687969       -8.41544669044431      -21.89701703930696
C            7.77361694863016       -9.75049218197548      -24.59093398857098
H            8.17755513970983      -10.50687446229171      -25.25359284382090
C            6.73517542156953      -10.06724524944664      -23.81536629939718
H            6.25770600094349       -9.35360489622619      -23.16621310823047
H            6.30618046343858      -11.05556725309066      -23.83002964977535
C            9.68423348152804      -10.44955691705032      -29.43519083808217
H            8.69835636176501      -10.27313778581396      -29.87408782116600
H            9.54601952124706      -10.99208359350295      -28.50110106269601
H           10.25824155687291      -11.08225717155353      -30.10837476335894
C           11.90046481437679       -8.85833519840362      -31.23902833738114
H           12.82462848337843       -8.33321844088634      -31.46064155714068
C           11.47033719202024       -9.75635002536193      -32.12820592443294
H           10.54986715256839      -10.30030322737950      -32.02610973036999
H           12.02573576188989       -9.95460962847763      -33.03205911129324
C           14.41127146418502       -4.23017055629901      -30.85080881114274
H           13.73536413517779       -4.39256069572306      -31.69091919525001
H           15.09658040382377       -5.07591622814956      -30.79869851519027
H           14.98698657159208       -3.32881431838781      -31.04393324847075
C           14.29747596449096       -1.74062280294308      -28.78218231616591
H           13.63758586819146       -0.94819360321432      -29.13874587216011
H           15.15159235771070       -1.80034440308220      -29.45203316096681
H           14.65875062234825       -1.46135775432632      -27.79356550716948
O           12.55063884915586       -6.67062472985106      -25.62459758864718
H           12.21054087843499       -7.25172300009452      -24.94226901632602
H           13.45559296848743       -6.40944167186382      -25.42533628018913
C            8.34497784995086       -3.33940842923194      -27.36163250931549
H            7.28026699156516       -3.23375035171557      -27.54633008651627
H            8.89977420801852       -2.59402568753132      -27.92009263172169
H            8.57484269244639       -3.26077316917775      -26.30582871713008
S            8.89752006058528       -4.96309527551904      -27.99498974129131
H            8.11755901215832       -5.69519989361762      -27.17545297134944
72
 energy: -105.973577614236 gnorm: 0.020150446903 xtb: 6.7.1 (edcfbbe)
Fe          10.90742352275438       -5.71263045758741      -26.76135519743176
N           10.86882098572246       -4.18658470184940      -25.46063286996683
N            9.71634907905820       -6.76717594513832      -25.54331897544969
N           10.94111256187532       -7.21748218320462      -28.07487705198700
N           12.16474897464015       -4.68361420509631      -27.91112078351339
C           11.41788093400445       -2.95462545563716      -25.62763007342429
C           11.06911803937821       -2.08521809111254      -24.52698324803542
C           10.33755476350050       -2.83919041812612      -23.66165446348827
C           10.21375645841278       -4.14627101148901      -24.26735634823508
C            9.27637508122204       -6.41138404156461      -24.30086876961847
C            8.47983317968849       -7.45574479574886      -23.72261051288598
C            8.41900994439475       -8.46267048754691      -24.65620815657097
C            9.20960838982991       -8.00437479260077      -25.78237938033593
C           10.19100737469537       -8.34831095540914      -28.00971275244290
C           10.38251414676780       -9.15785711813332      -29.18900244204894
C           11.29979214171831       -8.50183386518404      -29.96762131562023
C           11.62877294536624       -7.28346734952538      -29.23782776178858
C           12.73965126194045       -5.10646191877917      -29.06416337695063
C           13.62838661097996       -4.09534487149674      -29.59201241766545