72
 energy: -105.980112397289 gnorm: 0.000035217752 xtb: 6.7.1 (edcfbbe)
Fe          10.92415716355474       -5.65575105151354      -26.80900992584175
N           10.93452692134672       -4.16271119562676      -25.46372490636213
N            9.67966410701779       -6.70284254504846      -25.60777427477221
N           10.97013017729386       -7.18680762918659      -28.08996731252885
N           12.19636260758382       -4.64428574292668      -27.94624127992320
C           11.56941229609423       -2.96743926856604      -25.58360250582885
C           11.31529744156975       -2.13577407567773      -24.42951400407924
C           10.51596064878907       -2.86190078560911      -23.60199267013821
C           10.28343314438323       -4.12343659434618      -24.26738361614056
C            9.19510355715806       -6.32238663155936      -24.39021026460685
C            8.30561564780583       -7.32046459816203      -23.86001683596615
C            8.24896847239553       -8.32286826253548      -24.79354730454079
C            9.13112754222210       -7.92016254021376      -25.86863586649829
C           10.26110840243141       -8.34644294550557      -28.00854138654772
C           10.54833802686542       -9.20213569880765      -29.13211803806891
C           11.45792649836019       -8.52931260312729      -29.90238119156942
C           11.70348750054504       -7.27083287800754      -29.22583220461296
C           12.74942865458500       -5.05897102625408      -29.11271118663265
C           13.60790559653163       -4.03229358820830      -29.66691949524452
C           13.55127328211513       -2.98397376962168      -28.80571101895407
C           12.66575223866350       -3.38885823359661      -27.73350466599719
C           12.37051428304035       -2.59243843349348      -26.64537007945262
H           12.81179207666151       -1.60861808025360      -26.61136943216223
C            9.48535762378124       -5.12680470229925      -23.75370235157837
H            9.02601199085784       -4.95126947597808      -22.79360758730400
C            9.38079077247444       -8.68067731999541      -26.99494761487477
H            8.85943505294403       -9.62090953028065      -27.08286308514857
C           12.53349572643478       -6.28127070310332      -29.71541490816452
H           13.04252189460318       -6.47239969894239      -30.64712545055888
C            9.95007768148752       -2.49640361892565      -22.27306711279696
H           10.27817214045665       -1.50425692177176      -21.97386883014453
H           10.26942468613149       -3.20714310901618      -21.51042399175588
H            8.86012588936021       -2.50194620243550      -22.30497554138267
C           11.86295954789530       -0.76252771575517      -24.24821657007778
H           11.54245923754894       -0.11211134013283      -25.06214629134269
H           12.95293227157110       -0.78305991790780      -24.24170529213448
H           11.52277247632216       -0.33076057493223      -23.31026392307669
C            7.65090763651833       -7.26095819537784      -22.52463039871129
H            6.74621346463195       -6.65149458511524      -22.55997891034033
H            8.32124125894692       -6.82551007462113      -21.78491439664273
H            7.37687379400566       -8.26252088222236      -22.19966972382793
C            7.51164153673902       -9.56662596213400      -24.75388184516592
H            7.99362767348405      -10.41298749282292      -25.22909847209269
C            6.31592003380469       -9.73371120915344      -24.19915484667138
H            5.77021770204524       -8.91912497364833      -23.75575446005029
H            5.82738326929264      -10.69372580491175      -24.19416999916484
C            9.99988431508969      -10.57192677877224      -29.32812533593022
H            8.99735492868724      -10.53225371652562      -29.75734826890377
H            9.93965633061339      -11.10343936254739      -28.37948914265327
H           10.64050806464789      -11.13614267418348      -30.00246567523278
C           12.10102740030713       -8.94229219440312      -31.13070057259165
H           13.12261252900995       -8.60454056027553      -31.25926942663790
C           11.53843776138356       -9.67819242737638      -32.08318088907280
H           10.51282247490754       -9.99930969602948      -32.02845393685942
H           12.08075347853619       -9.96231431828523      -32.96959756934438
C           14.36927163362899       -4.17259110762579      -30.93920270208308
H           13.69046399387812       -4.35316189723147      -31.77274969344373
H           15.06247052464394       -5.01163892536004      -30.87860805179528
H           14.93972705801698       -3.27151710935869      -31.15003660753847
C           14.23426005535335       -1.66195199713201      -28.87638394908615
H           13.50315578957720       -0.85339201921601      -28.88413288894991
H           14.83725322458979       -1.58691837100920      -29.77767740159919
H           14.88658101988817       -1.52102708987984      -28.01430872913510
O           12.59799226732569       -6.57910673318000      -25.63359165665422
H           12.18103182238678       -7.38525193295903      -25.30901510655584
H           12.66358597649677       -5.97161914654840      -24.88779742823850
C            7.99759319704921       -3.92158020213535      -26.80384544084078
H            7.02761611376439       -3.75873232811020      -27.26329408009802
H            8.46877143195771       -2.97131548150778      -26.57612959696507
H            7.91181044475506       -4.51467345374331      -25.90021018780500
S            9.08943750633553       -4.77298164469442      -27.99668481100295
H            8.36007100881305       -5.89322064258753      -28.04603978149705
