72
 energy: -105.514587458389 gnorm: 0.287182904806 xtb: 6.7.1 (edcfbbe)
Fe          36.71899999999999       13.08400000000000       86.94600000000000
N           34.82099999999999       13.14300000000000       87.42400000000001
N           37.12400000000000       12.42700000000000       88.74400000000000
N           38.61199999999999       13.07000000000000       86.47799999999999
N           36.33200000000000       13.89700000000000       85.22400000000000
C           33.75200000000000       13.59500000000000       86.65899999999999
C           32.47300000000000       13.49400000000000       87.38199999999999
C           32.79300000000000       13.04600000000000       88.61600000000000
C           34.24000000000000       12.82200000000000       88.63199999999999
C           36.27799999999999       12.21800000000000       89.79399999999998
C           36.96600000000000       11.63000000000000       90.93200000000000
C           38.26100000000000       11.50700000000000       90.58400000000000
C           38.34100000000000       11.97900000000000       89.22699999999999
C           39.65000000000000       12.51700000000000       87.19399999999999
C           40.91900000000000       12.59800000000000       86.48000000000000
C           40.65600000000000       13.26100000000000       85.33300000000000
C           39.22800000000000       13.54200000000000       85.34199999999998
C           37.21300000000000       14.25200000000000       84.22499999999999
C           36.53700000000000       14.81800000000000       83.07700000000000
C           35.23300000000000       14.80300000000000       83.36699999999999
C           35.10000000000000       14.27800000000000       84.71999999999998
C           33.88700000000000       14.18600000000000       85.41200000000001
H           32.99600000000000       14.60300000000000       84.94300000000000
C           34.92400000000000       12.43500000000000       89.73800000000000
H           34.35299999999999       12.28500000000000       90.65400000000000
C           39.51400000000000       12.00400000000000       88.48399999999999
H           40.40700000000000       11.58600000000000       88.94999999999999
C           38.57100000000000       14.12100000000000       84.30300000000000
H           39.16700000000000       14.50700000000000       83.47600000000000
C           31.80600000000000       12.83700000000000       89.75699999999999
H           31.54600000000000       11.75900000000000       89.83000000000000
H           30.88000000000000       13.41900000000000       89.56300000000000
H           32.26500000000000       13.16200000000000       90.71500000000000
C           31.05800000000000       13.68000000000000       86.86799999999999
H           31.07200000000000       13.74400000000000       85.75900000000000
H           30.63000000000000       14.62000000000000       87.27800000000001
H           30.43200000000000       12.81400000000000       87.17100000000001
C           36.32599999999999       11.23600000000000       92.26899999999999
H           35.97500000000000       10.18300000000000       92.21599999999999
H           35.45700000000000       11.89600000000000       92.47799999999999
H           37.07500000000000       11.32600000000000       93.08499999999998
C           39.35500000000000       11.13000000000000       91.35799999999999
H           40.26900000000000       11.71900000000000       91.21200000000000
C           39.49099999999999       10.07600000000000       92.33700000000000
H           38.64100000000000        9.41700000000000       92.56999999999999
H           40.44599999999999        9.92000000000000       92.86099999999999
C           42.22900000000000       12.03200000000000       86.97599999999998
H           42.08200000000000       10.97600000000000       87.28799999999998
H           42.58500000000000       12.62000000000000       87.84899999999999
H           42.98399999999999       12.06500000000000       86.16200000000001
C           41.54299999999999       13.72400000000000       84.35700000000000
H           41.57200000000000       14.80500000000000       84.15800000000000
C           42.44400000000000       12.91100000000000       83.56699999999999
H           42.47700000000000       11.82000000000000       83.70399999999999
H           43.10500000000000       13.37500000000000       82.82100000000000
C           37.14099999999999       15.32900000000000       81.76599999999999
H           38.07000000000000       14.76300000000000       81.54000000000001
H           37.39099999999999       16.40700000000000       81.86299999999999
H           36.41700000000000       15.18000000000000       80.93600000000001
C           34.11799999999999       15.19200000000000       82.39300000000000
H           34.15200000000000       14.52600000000000       81.50500000000000
H           34.25899999999999       16.24300000000000       82.06100000000001
H           33.13000000000000       15.08000000000000       82.88900000000000
O           36.73000000000000       15.02000000000000       87.72900000000000
H           35.83300000000000       15.19400000000000       88.01400000000000
H           37.41900000000000       15.57800000000000       87.79099999999998
C           35.17200000000000       10.34100000000000       86.06399999999998
H           35.21500000000000        9.24200000000000       85.90999999999998
H           34.66499999999999       10.79100000000000       85.18399999999998
H           34.56300000000000       10.53600000000000       86.97299999999998
S           36.84199999999999       11.04900000000000       86.26000000000001
H           37.05800000000000       10.50800000000000       87.45000000000000
72
 energy: -105.572873902241 gnorm: 0.111186265082 xtb: 6.7.1 (edcfbbe)
Fe          36.72020844831074       13.09210701864202       86.94764150553890
N           34.79168288986094       13.14701293060480       87.42470348974531
N           37.13580465475065       12.41623398919198       88.76408505491302
N           38.63971915960740       13.08166845909842       86.48669826754100
N           36.31926677878602       13.90209245323368       85.19736020416703
C           33.74416611294561       13.59758543906279       86.65298161530973
C           32.47753534129559       13.48313724118247       87.37135424678966
C           32.78998916859798       13.04481071614867       88.61806289188435
C           34.22655347202640       12.83775499604715       88.63891042700919
C           36.27545110415118       12.20280045339182       89.80467861782122
C           36.95120404024271       11.62539429967978       90.94228451557093
C           38.26603241403479       11.49694238002830       90.58927616329413
C           38.35715168319203       11.98779875770160       89.22819253980167
C           39.65677497447434       12.50892507097021       87.20403451188692
C           40.91568462369405       12.58139841086460       86.49134109445293
C           40.66128956788664       13.25477830081923       85.33278838787488
C           39.23752485759059       13.54653645822257       85.34717365808845
C           37.20912788938163       14.26242967847661       84.21710695684955
C           36.53458394613654       14.81895601896994       83.06861773937104
C           35.21215593670779       14.80292354722316       83.36409437813559
C           35.08635768842961       14.27047777066153       84.70862316370054
C           33.88743668708080       14.17179452737555       85.40270489927107
H           33.00264886889944       14.58930975144232       84.94037422984287
C           34.91575690440339       12.43357510224633       89.75141084282801
H           34.34797939024090       12.27428865919140       90.65687784783320
C           39.52154324348719       11.99908744252512       88.48524346604754
H           40.40788900512997       11.58864283918251       88.94989630499317
C           38.57564241651365       14.12839247718013       84.29779724574342
H           39.16809696954984       14.49910577994174       83.47148533959495
C           31.82252932231246       12.83338687260276       89.74945379438816
H           31.55321812518210       11.77346239781322       89.83212048145890
H           30.90685710741479       13.40525675444625       89.56695450320046
H           32.25585378330482       13.15616723640266       90.70154650158551
C           31.08047619308061       13.68586486733403       86.85832999551597
H           31.06859969089345       13.74738460737013       85.76711299675728
H           30.64073445910957       14.60394975504854       87.26761487400653
H           30.45232312291171       12.83962744573977       87.16303172313732
C           36.32442507304537       11.24374358525075       92.25557247931127
H           35.97848419033894       10.20365460283174       92.21546500055706
H           35.46896130038962       11.88679722736479       92.48046631825480
H           37.06191109135757       11.32705193852902       93.06188602904304
C           39.38104146752283       11.10178111596286       91.38157538200160
H           40.28186824218192       11.69140118419662       91.21920838390808
C           39.47814472301023       10.11207467396822       92.31508113141771
H           38.65451138128147        9.44365947434189       92.54412058585058
H           40.41425444451010        9.94030286432605       92.83597841338529
C           42.21790995394088       12.03107595834871       86.97798601810584
H           42.08896415688108       10.98836140329828       87.28698924551789
H           42.58124291234721       12.60800094690934       87.83654693700952
H           42.96738093960787       12.07149166064929       86.18089443504537
C           41.57194099523032       13.70645064557424       84.32421081353448
H           41.57938777660977       14.78021142877748       84.13143381883984
C           42.42409411265771       12.93424721316970       83.59719947184846
H           42.45728348135270       11.85535643662686       83.71175597226927
H           43.07777296574128       13.37471677859094       82.85259748348720
C           37.14437414888191       15.31612830639575       81.78326556684719
H           38.06139198660293       14.77031454103674       81.54235668230415
H           37.38512122569745       16.38313020606663       81.86414924241296
H           36.43392691632636       15.18357306394200       80.96031794616927
C           34.11497576793732       15.19032384950470       82.41068752774243
H           34.15078338085762       14.53935987347011       81.52828584060224
H           34.25251089811353       16.22354670236607       82.07313874802692
H           33.13384082263578       15.08706471132444       82.87797283232399
O           36.72312049197885       15.02267651731361       87.73411656882072
H           35.83430253998498       15.22678755916587       88.02653274828538
H           37.44103451199204       15.62478332052051       87.80438752616487
C           35.14907649726326       10.32567834969151       86.06584918238516
H           35.21739552279748        9.24582311430024       85.90909319050229
H           34.67563149914010       10.78917348158508       85.19580024479571
H           34.56421934682270       10.53723615572952       86.96487796794381
S           36.82295041906622       11.01103033555267       86.23080423496249
H           37.05691477427653       10.48492986725392       87.43443155437235
72
 energy: -105.586391991006 gnorm: 0.043771360176 xtb: 6.7.1 (edcfbbe)
Fe          36.72470527178986       13.10693183062941       86.95274704090374
N           34.76848914160371       13.15790700963569       87.43230150029925
N           37.14419777302654       12.40271144468027       88.78226263462088
N           38.66527940009101       13.09666213992384       86.49553647813158
N           36.31023016871899       13.90862936427144       85.17538099662609
C           33.73602605105626       13.59009429640585       86.64827862699144
C           32.48123934473717       13.47542275186843       87.36159349447641
C           32.78915364014946       13.04720098373023       88.61967095816399
C           34.21732822931512       12.85177821262505       88.64748618560522
C           36.27367462305566       12.18751997427255       89.81318231968511
C           36.94752700520181       11.62343004885506       90.94992877282640
C           38.27011760124491       11.49924710242880       90.59302532785793
C           38.36629621239855       11.99004385661883       89.23145255432019
C           39.66524937227294       12.50880520651705       87.21336978330238
C           40.91551783702562       12.57510189017698       86.49856104061959
C           40.66334993392751       13.25985503013319       85.34067357240841
C           39.24571829691179       13.55524629975093       85.35387607373659
C           37.20623221603708       14.27067507391585       84.21140425298334
C           36.53000175741852       14.81704841424170       83.06325649901619
C           35.19658000882964       14.79846288970149       83.35996065198509
C           35.07628354083766       14.25628482985090       84.69421754221607
C           33.88468306454217       14.14137980993991       85.38734709637642
H           33.00120504613335       14.55258154995485       84.92573994005267
C           34.91089219577045       12.42688399980435       89.76087172775692
H           34.34216186888726       12.25186067366216       90.65794992757102
C           39.52981854159924       11.99503105404471       88.48925887230182
H           40.41390901503392       11.59091581029965       88.95416232309680
C           38.57869428800538       14.13521361872872       84.29651705135713
H           39.16956720902394       14.48503329602332       83.46528231290047
C           31.83673572701412       12.82984081207649       89.74266515262107
H           31.56820085915797       11.77749663299973       89.82924140900367
H           30.92553720467813       13.39535488866341       89.56698313734142
H           32.26068493474254       13.15103853934174       90.69013333430486
C           31.10090434633721       13.69304859992502       86.84410436216882
H           31.07846301196516       13.75618528729713       85.76222725228278
H           30.66382623162571       14.60218253851329       87.25627958653155
H           30.46929892292447       12.85957398813364       87.15128978181255
C           36.32666367709453       11.24968320519480       92.24502725782280
H           35.97854161833360       10.21709565756667       92.21323800690540
H           35.47853164932260       11.88549472700922       92.47985721705592
H           37.05957706652458       11.32961000492939       93.04450589280462
C           39.40344492356466       11.09067445584867       91.39228383801812
H           40.29679486155121       11.67852140335790       91.20971810990841
C           39.46920395056902       10.12786908609207       92.28584842494735
H           38.65093774085631        9.47005840186002       92.52257418734249
H           40.38245447037727        9.95311462154424       92.83007121146173
C           42.21064071346972       12.02986725644007       86.97969666772165
H           42.09643787467283       10.99251994130758       87.28675188431620
H           42.57424282383339       12.60012502211061       87.83337988954587
H           42.95573699631802       12.08253656788370       86.19163003340762
C           41.58581869577451       13.69960902777907       84.30455656695065
H           41.57155898064241       14.76967800345603       84.11867589738631
C           42.39738351116935       12.94364287893382       83.60919571763223
H           42.44676533993476       11.87410286508653       83.72850864276626
H           43.06518221736270       13.36653896356377       82.87773302114259
C           37.14450702344548       15.30480707136076       81.79920562654384
H           38.05638155323903       14.76798872728669       81.55765661481847
H           37.38262699291356       16.36585266472188       81.87549644179370
H           36.44338491717201       15.18213286838838       80.97733156246012
C           34.10776109165108       15.18962730802470       82.42727066500393
H           34.14324665624486       14.54912324001603       81.54532165675531
H           34.24516403574680       16.21504251299655       82.09044804112298
H           33.12803772250833       15.09401483383965       82.87825448741569
O           36.73209628943142       15.04565184754411       87.74865230031402
H           35.85570197924385       15.30070517647432       88.05039287633257
H           37.44843866144051       15.67502913763076       87.82089109925444
C           35.12519035795959       10.30800349555541       86.06323059538576
H           35.19991140322890        9.23806011419729       85.90569024940237
H           34.66945385469275       10.78167448878663       85.20097109906246
H           34.55734175248988       10.53328613926857       86.95760444751843
S           36.80547550350029       10.97972877320236       86.20397730792459
H           37.06458320062900       10.43884976110001       87.40313288749876
72
 energy: -105.591125992062 gnorm: 0.019857077328 xtb: 6.7.1 (edcfbbe)
Fe          36.72919142492577       13.12145642543377       86.96122396231632
N           34.76478573742191       13.16500739602938       87.43921059124213
N           37.14848917484759       12.40011087422539       88.78998204473704
N           38.67486927873097       13.11282442426617       86.50594329463487
N           36.30629471592674       13.91070419904001       85.17097593676989
C           33.73466021837561       13.57630920971943       86.64534755276195
C           32.48418514027608       13.46658527226636       87.35535710838997
C           32.79064405107076       13.04555329124128       88.61822913262563
C           34.21731967875209       12.85770731971268       88.65239086499510
C           36.27492778655113       12.18121197589428       89.81618351257481
C           36.95432580553280       11.62483354162421       90.95260455140800
C           38.27705813459442       11.50818090763062       90.59275832161232
C           38.37089801442043       11.99356801110243       89.23344747320093
C           39.67046868784566       12.51713580897179       87.22000803288860
C           40.91759829448529       12.58173061316065       86.50228422404807
C           40.66218305319541       13.27363146859228       85.34982537942732
C           39.24741921911404       13.56880942656459       85.36228906976902
C           37.20291173245084       14.27359931602246       84.21221080660332
C           36.52336858337227       14.81102606232432       83.06294040916946
C           35.18762781515279       14.78719968482060       83.35722826235239
C           35.07064037024365       14.23738240411477       84.68562588358961
C           33.87972364920025       14.10530260032792       85.37376326743940
H           32.99037096081177       14.48979990337500       84.90033159926156
C           34.91160098624475       12.41926815892808       89.76354012831239
H           34.33873178082710       12.22187794467824       90.65476195248505
C           39.53640129167628       11.99854192302430       88.49312316558799
H           40.42090340256092       11.59490459509721       88.95780137777807
C           38.57705368305643       14.14142164271572       84.30070409503092
H           39.16779016200495       14.47165710238629       83.46078023144986
C           31.84474686636021       12.82391318441444       89.74116352512019
H           31.58360641270862       11.77028357235007       89.82873565721846
H           30.93092044184041       13.38434327743704       89.56886717472810
H           32.26998373706542       13.14667530578384       90.68702633849145
C           31.11312705546236       13.70140059349662       86.82955211229830
H           31.09484468411144       13.76839103463476       85.74825565454276
H           30.68774802169534       14.61474747081764       87.24231556490538
H           30.47046610369106       12.87651883457718       87.13277786100774
C           36.33211476810554       11.25491103218029       92.24513130472835
H           35.97673082513633       10.22505891388127       92.21409232825617
H           35.48722381233103       11.89403446722650       92.48288417659975
H           37.06611602068023       11.33113053767214       93.04260854674693
C           39.41894725204329       11.09999090427014       91.38895108278322
H           40.31746765196613       11.67537561118326       91.19546455356019
C           39.45380411623744       10.13752943508907       92.29946905023388
H           38.62773712033248        9.48186333186798       92.50801767414916
H           40.36270057813899        9.93217590812120       92.83947836197152
C           42.21053514142208       12.03424747078877       86.98234427759012
H           42.10269842644836       10.99416301161101       87.28205409882709
H           42.56995736905736       12.59788822800327       87.84175606116486
H           42.95667862696983       12.09869799306008       86.19750699938704
C           41.58312069382620       13.71208486028253       84.30540424731868
H           41.55306786760427       14.77849716571434       84.10617030118293
C           42.41061999705606       12.93717242705332       83.62484749332755
H           42.44036734092290       11.86809717004068       83.74447293861137
H           43.06283566690519       13.34432625459383       82.87136489309115
C           37.14531954328285       15.29805037108355       81.80736074227107
H           38.05824877603268       14.76078292001408       81.57221518769023
H           37.38487294207548       16.35789241324818       81.88764600981344
H           36.44987346841820       15.17933185041190       80.98118969390742
C           34.09519152731414       15.19066020466831       82.43740195991678
H           34.12302558827000       14.55864427788070       81.54979029955609
H           34.23484760418260       16.21810700900880       82.10925738083351
H           33.11492729023536       15.09899879650803       82.88838180810478
O           36.75525474159253       15.08334013229988       87.77188780980606
H           35.88944461755288       15.38621347341460       88.07224924698123
H           37.46746119782897       15.72432991592815       87.83158078095899
C           35.09805497666731       10.29379516402487       86.05568461246172
H           35.16934148631420        9.22375523633490       85.89732678326976
H           34.63977019945134       10.77154194003453       85.19823411119805
H           34.54169567924462       10.52460894245031       86.95574752391320
S           36.78256937727409       10.96639963222748       86.17402849087452
H           37.07649155247464       10.37568822102018       87.34543304813815
72
 energy: -105.594489075840 gnorm: 0.019741966867 xtb: 6.7.1 (edcfbbe)
Fe          36.73455371584483       13.13043763447961       86.97036900268431
N           34.76645569331198       13.17296786760560       87.44753118668336
N           37.15327969304209       12.39207398079074       88.79397797683473
N           38.68336182409845       13.12899276706109       86.51708862624969
N           36.30356285010175       13.91669857531206       85.17193276579253
C           33.73624739646164       13.56092700885331       86.64473651641821
C           32.48684018080368       13.45304655303429       87.34996544543627
C           32.79271273459103       13.04234892425804       88.61747114230005
C           34.22030821161989       12.86220322822120       88.65698431977866
C           36.27835537922086       12.17125536232566       89.81730731687281
C           36.96434318938734       11.62054425153206       90.95516298149359
C           38.28613584499053       11.51494059931457       90.59326457421172
C           38.37682043154320       11.99923109591868       89.23689765261453
C           39.67810092378158       12.52941530660418       87.22630254680304
C           40.92294821262636       12.59023085803446       86.50200234202858
C           40.66167185224716       13.28793823111550       85.35538208085013
C           39.24909885346899       13.58804303512241       85.37309237435012
C           37.19907748907644       14.27910306168685       84.21585942914113
C           36.51557534133456       14.80527843536792       83.06301028180276
C           35.17911895790085       14.77077207048534       83.35276373589336
C           35.06632527951813       14.21861590098652       84.67894790771339
C           33.87488331327746       14.06017615917882       85.35959596606637
H           32.97492707027283       14.39777870047823       84.86558739360456
C           34.91516794374368       12.40537787234543       89.76310789897057
H           34.33763064274766       12.18293719438371       90.64730892190744
C           39.54560734333123       12.00731097926867       88.49834890160020
H           40.43021164959799       11.60118453370267       88.96164543562207
C           38.57409026496425       14.14962573317059       84.30763277097437
H           39.16496601724363       14.45990915990320       83.45948609737718
C           31.85113182923336       12.81603381019767       89.74257402831542
H           31.60173828948566       11.75839521092312       89.83120869549681
H           30.93034078817534       13.36789780930939       89.57440727404705
H           32.28033608459793       13.14244575310769       90.68681407046844
C           31.12413313628183       13.71039434704272       86.81436821494970
H           31.11812108025494       13.78292456579253       85.73201236325882
H           30.71697321569157       14.63433892528258       87.22491539673226
H           30.46005776736289       12.89803317132816       87.10751755534767
C           36.34091911145278       11.25928461952337       92.25082829210594
H           35.97115622022032       10.23313756774290       92.22101060597163
H           35.50283031310269       11.91034644940800       92.48755213248859
H           37.07765927304144       11.32911955060890       93.04757070738820
C           39.43488727089464       11.10192233433006       91.38030292072077
H           40.33878477974606       11.66581391189195       91.18969696540111
C           39.44418452781082       10.12967836271868       92.28998234695871
H           38.58434747185177        9.52088933840278       92.50643750314765
H           40.33409980885847        9.91848598385962       92.86027193227113
C           42.21559338694620       12.04254602479087       86.98318938742494
H           42.11203157223499       10.99665709911424       87.26828886640226
H           42.56412623435395       12.59623445786593       87.85550217178606
H           42.96717563505982       12.12355395587529       86.20376046119300
C           41.57250626069492       13.72098557284158       84.29838234552426
H           41.53686875323546       14.78204458199072       84.08319138671922
C           42.39643047504171       12.92759935629477       83.62303832115799
H           42.44891479188980       11.86628180421625       83.79905328933330
H           43.06792217512560       13.32345709220742       82.88050455070507
C           37.14644248819419       15.29421344360276       81.81305660476706
H           38.06039877663041       14.75176922148202       81.58757285092989
H           37.39214156175552       16.35324968589691       81.89934764002327
H           36.45841688117175       15.17984315344288       80.97892333285542
C           34.08057721250654       15.19036595578152       82.44534908491751
H           34.09192643181441       14.57042738414201       81.54759245800635
H           34.22341973790722       16.22348254854277       82.13174817886916
H           33.10256749918634       15.10259013184946       82.90588277333713
O           36.79031002347772       15.12607925906867       87.81067403019391
H           35.93995073182191       15.49960897781156       88.09083643837999
H           37.48774239796154       15.79055599519379       87.83610782007646
C           35.06255171500209       10.27981303998799       86.04452633263691
H           35.12374542782004        9.20756358250716       85.88931146278436
H           34.59179951357255       10.75614675340859       85.19202711012295
H           34.52127845165027       10.51644120794402       86.95408491194951
S           36.75767732895328       10.94498297155848       86.13187084367918
H           37.09040526777783       10.30799995057077       87.27294274907851
72
 energy: -105.595867376192 gnorm: 0.018827558253 xtb: 6.7.1 (edcfbbe)
Fe          36.73875377752999       13.13563494204403       86.97744680771355
N           34.77206370224194       13.17445341916229       87.45110115190943
N           37.15693418684142       12.38204807037200       88.79188863438864
N           38.68640724106734       13.13496720263639       86.52261368104779
N           36.30407840963521       13.92387264534177       85.17672668313621
C           33.73973160108640       13.54601087347766       86.64331660873231
C           32.48858447464455       13.44012216052261       87.34760077853191
C           32.79451759631887       13.03607859374814       88.61683527750294
C           34.22410440697050       12.85887083764238       88.65751762200676
C           36.28181520850593       12.16142945638912       89.81500791154518
C           36.97075327549281       11.61689200817042       90.95716365549141
C           38.29153946230141       11.51802908784467       90.59779592820821
C           38.38068671547894       11.99779626073904       89.23900961110849
C           39.68329971200979       12.53745171809984       87.23017541236140
C           40.92882024078475       12.60137923000309       86.50393557951570
C           40.66484204802594       13.29779114586828       85.35860094165459
C           39.25036995814548       13.59698837266052       85.37800597592948
C           37.19802626722709       14.28401330588916       84.21908480149062
C           36.51191579996223       14.80264767955780       83.06252197742012