77
 energy: -118.839591345700 gnorm: 0.326268467825 xtb: 6.7.1 (edcfbbe)
Fe          35.11100000000000        4.23800000000000       10.19900000000000
N           36.98800000000000        3.95300000000000        9.73000000000000
N           34.81800000000000        5.47600000000000        8.80200000000000
N           33.22400000000000        4.61000000000000       10.92200000000000
N           35.48700000000000        3.06500000000000       11.85200000000000
C           37.98300000000000        3.12300000000000       10.33400000000000
C           39.26900000000000        3.20700000000000        9.53000000000000
C           39.00599999999999        3.97200000000000        8.44800000000000
C           37.63300000000000        4.46900000000000        8.63300000000000
C           35.72400000000000        5.79400000000000        7.83400000000000
C           35.19500000000000        6.81800000000000        6.81200000000000
C           33.94200000000000        6.98100000000000        7.30100000000000
C           33.74300000000000        6.16800000000000        8.49000000000000
C           32.35500000000000        5.47200000000000       10.39500000000000
C           31.11500000000000        5.54800000000000       11.19000000000000
C           31.26800000000000        4.74500000000000       12.29800000000000
C           32.65300000000000        4.12400000000000       12.08800000000000
C           34.56800000000000        2.80200000000000       12.87700000000000
C           35.16000000000000        1.77200000000000       13.84100000000000
C           36.41100000000000        1.65300000000000       13.39900000000000
C           36.61600000000000        2.35500000000000       12.19800000000000
C           37.82899999999999        2.30200000000000       11.45500000000000
H           38.62899999999999        1.62800000000000       11.75700000000000
C           37.05900000000000        5.28700000000000        7.72300000000000
H           37.64700000000000        5.57800000000000        6.85300000000000
C           32.53400000000000        6.12500000000000        9.21200000000000
H           31.67800000000000        6.65400000000000        8.79300000000000
C           33.26200000000000        3.25800000000000       12.95500000000000
H           32.66200000000000        2.89100000000000       13.78800000000000
C           39.86400000000000        4.39400000000000        7.24500000000000
H           40.88000000000000        3.95600000000000        7.34200000000000
H           39.95100000000000        5.50100000000000        7.21600000000000
H           39.40100000000000        4.02400000000000        6.30500000000000
C           40.51800000000000        2.24900000000000        9.76100000000000
H           40.26500000000000        1.22100000000000        9.42300000000000
H           40.77399999999999        2.22000000000000       10.84200000000000
H           41.38699999999999        2.61700000000000        9.17500000000000
C           35.85499999999999        7.40000000000000        5.52100000000000
H           36.67099999999999        6.72500000000000        5.18500000000000
H           36.28300000000000        8.40200000000000        5.73700000000000
H           35.09600000000000        7.47800000000000        4.71400000000000
C           33.02200000000000        7.98500000000000        6.72400000000000
H           31.97400000000000        7.67700000000000        6.74800000000000
C           33.17400000000000        9.29200000000000        6.12800000000000
H           34.17000000000000        9.74800000000000        6.02900000000000
H           32.29500000000000        9.84600000000000        5.76700000000000
C           29.97600000000000        6.46600000000000       10.80900000000000
H           29.72600000000000        6.32100000000000        9.73600000000000
H           30.27700000000000        7.52300000000000       10.96900000000000
H           29.08100000000000        6.22900000000000       11.42300000000000
C           30.48000000000000        4.53800000000000       13.56200000000000
H           30.82500000000000        3.77800000000000       14.27900000000000
C           29.29000000000000        5.26600000000000       13.91700000000000
H           28.88900000000000        6.04100000000000       13.24700000000000
H           28.76800000000000        5.05600000000000       14.86200000000000
C           34.43800000000000        1.11800000000000       15.03700000000000
H           33.45500000000000        0.72100000000000       14.70500000000000
H           34.27000000000000        1.87400000000000       15.83300000000000
H           35.05000000000000        0.28000000000000       15.43200000000000
C           37.53199999999999        1.01800000000000       14.20400000000000
H           37.69100000000000       -0.02600000000000       13.85900000000000
H           37.25900000000000        1.00400000000000       15.28100000000000
H           38.47099999999999        1.59300000000000       14.05800000000000
C           32.22100000000000        0.08900000000000        7.57500000000000
H           32.30500000000000       -0.82300000000000        8.20300000000000
H           32.30700000000000       -0.20100000000000        6.50600000000000
H           31.23500000000000        0.56500000000000        7.76200000000000
N           34.66399999999999        0.86600000000000        7.65600000000000
H           35.03300000000000        0.13000000000000        7.08800000000000
C           33.31300000000000        1.03800000000000        7.92800000000000
C           35.36700000000000        1.79800000000000        8.24600000000000
H           36.44600000000000        1.91600000000000        8.15400000000000
N           34.55100000000000        2.53000000000000        8.94100000000000
C           33.18000000000000        2.05400000000000        8.82500000000000
H           32.34500000000000        2.47700000000000        9.36400000000000
O           35.73400000000000        5.79100000000000       11.17100000000000
O           35.29800000000000        5.98000000000000       12.29800000000000
77
 energy: -118.937410778109 gnorm: 0.161061785695 xtb: 6.7.1 (edcfbbe)
Fe          35.14272103449257        4.28273759716932       10.25343700213922
N           37.02810033190721        3.93270732120558        9.72311568302810
N           34.83246039386475        5.48105944068005        8.75866282713061
N           33.21317216564367        4.60206212666569       10.93964909891873
N           35.47663367887616        3.04272427966522       11.86808770031697
C           37.99576690736804        3.11807723525863       10.31877611894934
C           39.25544764414703        3.16552984122364        9.51958300068194
C           39.00692053678381        3.97279613386065        8.45442600817066
C           37.63781138320097        4.45806042802874        8.62229896542429
C           35.74528594245449        5.80188996731043        7.79819578155648
C           35.20160485821422        6.80211961083269        6.82293880962286
C           33.93558451927253        7.02952396295740        7.29078278865952
C           33.72414981926786        6.18509306963189        8.46696570537922
C           32.33430976761506        5.45731872643030       10.38879717205913
C           31.11751217854669        5.55311657171511       11.20118761347632
C           31.28310080969398        4.75289281208759       12.30977827606715
C           32.64487466094637        4.13513620947110       12.09775749906412
C           34.55683260879844        2.76060276897815       12.86157505007325
C           35.14637698016062        1.79664482113691       13.83913184604237
C           36.42440970963693        1.65215624184542       13.41697976547975
C           36.61740388337531        2.36020292656015       12.19365290988707
C           37.81187727314414        2.32587523164695       11.44436950513430
H           38.60892032012761        1.65435055898357       11.75436259573429
C           37.04863453851194        5.29631765566608        7.71071318606894
H           37.63754771625575        5.59033363559245        6.85376170642351
C           32.52876984301811        6.13256482259378        9.19751944086387
H           31.68337183604804        6.67196288627833        8.79382922571260
C           33.25989887746128        3.24669570503492       12.95418210219711
H           32.67036539774511        2.89305833979086       13.79196545417939
C           39.85897708349454        4.38547831805890        7.26757086534345
H           40.86576040793603        3.95944305390650        7.34396917191634
H           39.94929869084720        5.47921643106711        7.22008785993188
H           39.40838135829929        4.03158872091620        6.32812033475759
C           40.48994022559651        2.26797196000264        9.76150437472422
H           40.26239096862248        1.24478571383361        9.42953751282460
H           40.76331670665608        2.22823223902339       10.82299596802130
H           41.35886581029943        2.61954595992233        9.18911231371339
C           35.84901001090913        7.37737713783191        5.55790017168250
H           36.65804051349134        6.73015534224494        5.19717234056273
H           36.27279004881783        8.37503643011235        5.74370006714780
H           35.10677318704460        7.47385003402736        4.74997487871652
C           33.00374789485181        8.00951395825234        6.71555181911457
H           31.96542994339165        7.68651512862280        6.75188280363713
C           33.18087092193971        9.24120581073121        6.14577986038362
H           34.15249270626361        9.71995620031984        6.04337941648033
H           32.32216691357758        9.80937598561299        5.78541157985634
C           29.98287473683596        6.45699701566540       10.81131712400504
H           29.72882832062816        6.32371034198389        9.75100800987673
H           30.26939914553529        7.50624923229279       10.96689542295807
H           29.09210025094241        6.23461264445703       11.40537747334129
C           30.46447721212490        4.55846330217748       13.53454067151544
H           30.81755155439050        3.80616631079616       14.24765972508501
C           29.33172186605235        5.24254585904051       13.89445253231581
H           28.90941538751385        6.02117539659273       13.26676974517416
H           28.80573837929401        5.04761657242340       14.83078814821473
C           34.44408798626000        1.13859938468508       15.01560324111056
H           33.47185250931360        0.73225135196523       14.70556771125414
H           34.27246575580492        1.86591438784026       15.81948834051552
H           35.04104287896556        0.30654085607961       15.41655656294060
C           37.53392745461805        1.00648828669931       14.20014028470645
H           37.69813893446446       -0.02454265560159       13.86574558006625
H           37.26921095902505        1.00052779132653       15.26367509978257
H           38.45878986008169        1.57910899076603       14.06479610418059
C           32.22418011221959        0.08083098881648        7.56895608493149
H           32.29747332598338       -0.82098750422379        8.18971145506939
H           32.29833561228771       -0.20492470139322        6.51342929510775
H           31.25371377045888        0.55451317354276        7.75524050614471
N           34.64382550203807        0.85606265180649        7.64389758815073
H           35.02092008941682        0.12057048244879        7.07184123093666
C           33.31126056741788        1.01941847200228        7.94933457454833
C           35.34367547194098        1.81129264396871        8.26175636066326
H           36.41635433437996        1.92477550949046        8.16623764312112
N           34.54339901885480        2.56148375233318        8.97423973485637
C           33.22627053988230        2.06297402987647        8.81838062563413
H           32.38769201560076        2.48446254810698        9.34687003598012
O           35.73647672092846        5.78522166383166       11.16263543959627
O           35.29268071812187        5.98202186741485       12.31795347096131
77
 energy: -118.975544770578 gnorm: 0.058524326328 xtb: 6.7.1 (edcfbbe)
Fe          35.17064785572565        4.33060907676381       10.31599085710813
N           37.06860295606781        3.92183541326379        9.71697505168938
N           34.84101233332722        5.49412825949725        8.72121639787709
N           33.20302933400058        4.60275891267977       10.95865765911519
N           35.46309157290575        3.02552246175155       11.88180685762058
C           38.00483293588344        3.11129630009328       10.29363137844686
C           39.24173779620250        3.13542001231468        9.50925081331828
C           39.00335202425355        3.97449741650460        8.45586674820421
C           37.64182739889002        4.45407048202071        8.61043359500950
C           35.75444888820870        5.81541691499255        7.76373518344068
C           35.20672937630428        6.78779535592243        6.83343559835142
C           33.93326768917766        7.06070377029515        7.27943226543015
C           33.71028394296659        6.20452289473236        8.45102837751730
C           32.31843580136608        5.44954967698839       10.38198548408422
C           31.12011990703833        5.55404145054945       11.20003330540837
C           31.30526700450918        4.75880378421193       12.31133617849176
C           32.63956019784862        4.14943927138541       12.10778708248711
C           34.55084630266897        2.73100230568249       12.85269595411672
C           35.13388264792866        1.81399020925512       13.82237110398811
C           36.43377335978040        1.64975320397546       13.43087499877072
C           36.61457264062780        2.36967452117790       12.19153553122463
C           37.78951712284906        2.35184102783203       11.43486808911029
H           38.58675908598152        1.68940872966001       11.75850610228902
C           37.03571911347195        5.30622467631721        7.69833867184960
H           37.63417038732148        5.60564782026046        6.85440028582871
C           32.53087319117747        6.14187821414171        9.18792365605755
H           31.69267668442872        6.69711522245967        8.79983307873132
C           33.25919418300207        3.23940512738541       12.95440917615689
H           32.67950486410927        2.89563879822062       13.79848402289167
C           39.85700992847819        4.37419076184897        7.28979056219276
H           40.85709530192950        3.95576002052441        7.35687658937799
H           39.94627376877136        5.45984824608644        7.23246052082315
H           39.41165401671613        4.03137803587049        6.35218054390725
C           40.45371627314255        2.28469067997455        9.75813363031728
H           40.25522196439337        1.25849750565092        9.43612502393737
H           40.73711980224238        2.24743359678594       10.80866970093244
H           41.32055434490694        2.63451587663764        9.19640173997559
C           35.84407879741467        7.35608574110505        5.59508483534029
H           36.64726826374102        6.72446463657403        5.21985177597732
H           36.26413478934637        8.35007926864865        5.76708101813907
H           35.10683585087735        7.46404898667484        4.79283980823765
C           32.98460826300300        8.01589874071508        6.71282623003171
H           31.95398745215451        7.67962636843091        6.76708132938604
C           33.18721512458435        9.19577763615433        6.16849650567394
H           34.14329409805980        9.68522011555150        6.05922175515218
H           32.35021850587012        9.77834120894315        5.79721026798241
C           29.98685889585915        6.44720238652384       10.81361781174629
H           29.73647988496215        6.32144413230893        9.76057662238884
H           30.26519351672556        7.49100502772162       10.96842075176978
H           29.09844504868346        6.23415230898936       11.39491814103100
C           30.47204785914312        4.57887426557199       13.50837427333493
H           30.82613406834438        3.82100088539387       14.20756922190302
C           29.37745733117585        5.22802839083856       13.86594518257350
H           28.92712426968940        6.01066620650484       13.27651618923051
H           28.84743289874453        5.03156149091711       14.79226603326794
C           34.45004277503775        1.16284918553355       14.98946304256194
H           33.48428712346046        0.74965457143014       14.69604778326015
H           34.27623520316254        1.86983608831048       15.80168590591177
H           35.04287396059792        0.33796141485372       15.39081791946048
C           37.53291716042536        0.99761461028660       14.19813006007738
H           37.70281665207225       -0.02455906791979       13.86809646506464
H           37.27874477444712        0.98983216244722       15.25436377737146
H           38.45157595458184        1.56497391477119       14.07026203869424
C           32.22657472578473        0.07585470978558        7.56791902465016
H           32.28802922610130       -0.82593252470728        8.17599112258586
H           32.29898652455737       -0.20207738721497        6.52025404421315
H           31.26486993572711        0.54591986057009        7.74900237825034
N           34.62824570367088        0.85069066912688        7.63738726317997
H           35.01321951318960        0.11997656112147        7.06072914552816
C           33.30941774331146        1.00557173758550        7.97508952600756
C           35.32283584296358        1.81993500365276        8.27319027198357
H           36.38767663850879        1.93221814169686        8.17565774126898
N           34.53199180934131        2.57547146237675        8.99462161829755
C           33.27049592121620        2.07438770309310        8.82150487475679
H           32.42537318764428        2.49607033421611        9.33365709680927
O           35.72473077098064        5.74308878343733       11.14714476673079
O           35.28886193623458        5.97187823426438       12.32460456409006
77
 energy: -118.984137138820 gnorm: 0.023078892286 xtb: 6.7.1 (edcfbbe)
Fe          35.17844390909111        4.35404671264003       10.34426457775514
N           37.07073752275183        3.92844290299279        9.70540736098786
N           34.83886084300245        5.50081100706578        8.71265239363540
N           33.20647762382256        4.60990867065383       10.95634531259306
N           35.45426482852353        3.02587427578230       11.87714948416673
C           37.99467327741700        3.11341985872939       10.27898089625569
C           39.21681515159304        3.11645066558595        9.49047967228387
C           38.99039151163726        3.96519049815855        8.44447302806356
C           37.63778974687936        4.45636366190752        8.59551783992060
C           35.74989953008175        5.82137892003215        7.75448925675354
C           35.19442260783695        6.78704801986773        6.83982689974953
C           33.92127988701075        7.05457509214668        7.27836055381506
C           33.70611822633106        6.21040739187433        8.44933757309508
C           32.32058189685871        5.45425523699382       10.37449219855445
C           31.12890006820934        5.56074433863129       11.18870890768569
C           31.32800873346648        4.76784427807148       12.29562880118068
C           32.64662818710543        4.15732533776832       12.10350333653789
C           34.54153108780280        2.71803441251081       12.83724780163967
C           35.13585495279693        1.82660652623479       13.81229088065357
C           36.43751785610537        1.65766705003346       13.43220607414168
C           36.61042798113945        2.38526090089460       12.19222514187284
C           37.77739933567983        2.37756202162142       11.43557932764902
H           38.58019768880141        1.73479469001849       11.77445411470184
C           37.03324153877000        5.31413884623322        7.68752923440485
H           37.63927683687726        5.62822059935169        6.85203005480199
C           32.53379256591904        6.15313742444636        9.18653067939438
H           31.70437651291304        6.74045295094297        8.81758750613966
C           33.25528372931208        3.23385572257249       12.94479408111331
H           32.68478837250623        2.90400958258206       13.80195290085757
C           39.86367060629902        4.36197957015282        7.30233282377105
H           40.85898152790467        3.93722803177865        7.38400239283136
H           39.95449636910161        5.44652738212829        7.25294161852407
H           39.42269684628994        4.02327215708787        6.36334229361569
C           40.42798306393295        2.28953210593531        9.75761961873899
H           40.24707316534675        1.25711138109215        9.44628375367635
H           40.69632764375803        2.27818932017063       10.81166416440716
H           41.28419349637720        2.65969562018004        9.19653980438718
C           35.84308738191163        7.34572162299053        5.61909535789205
H           36.63991252831917        6.70465640981267        5.25030134286867
H           36.26679895321183        8.33180564081966        5.80919354018233
H           35.09828068125749        7.45892317479719        4.82935481893103
C           32.95364871317335        7.98663597538502        6.72275112810448
H           31.92201231359217        7.65775207574876        6.79433715453963
C           33.19164475274707        9.17064367691215        6.16570714844034
H           34.15847186661458        9.63574160556629        6.08129339075254
H           32.37145235804836        9.77248740205558        5.79666792888910
C           29.98802432826984        6.44042854923832       10.80690382031966
H           29.74699829376104        6.31768155788486        9.75239444729997
H           30.25744859725620        7.48425599812977       10.97131794310291
H           29.09666444170620        6.21881280903241       11.37951588994965
C           30.50305557181563        4.57087293551919       13.47668234989471
H           30.86751897027974        3.81055917524113       14.16118018629862
C           29.40306926539839        5.22186736317558       13.84806118879565
H           28.95257917306010        6.02519764059332       13.28823407398971
H           28.88962249719091        4.99880081639492       14.77183435259457
C           34.44963058140958        1.18843003026934       14.97358190294925
H           33.48639838528788        0.77543992113085       14.67604972317617
H           34.27766223475241        1.89909792135963       15.78136128294687
H           35.05276733906717        0.37096451767648       15.36638339363504
C           37.53173875544914        0.98606831255635       14.19097659429432
H           37.70158414886247       -0.03545415835405       13.85512851998682
H           37.28575434269512        0.96573695322947       15.24914690043828
H           38.45574109865005        1.54608788893071       14.07158820781940
C           32.22708723629388        0.07221042099136        7.57163233196167
H           32.27421572223937       -0.84329673109302        8.16185022968064
H           32.30938374389541       -0.19183807833383        6.52047638498860
H           31.26374922199849        0.53990528414326        7.74438524395821
N           34.62176130747231        0.85085319254305        7.64599474520021
H           35.00388680792225        0.12793588693696        7.05688203209582
C           33.30630586361313        0.99878281558073        7.99878262951741
C           35.31870249364790        1.82238903260060        8.27989628857295
H           36.37811428723508        1.94008358065321        8.17731448533599
N           34.53244132935449        2.57658446745981        9.00527902438959
C           33.28018290943879        2.07882962036604        8.83633181695773
H           32.43646658076203        2.51536245042624        9.33173107207189
O           35.72247203825665        5.71389627785634       11.16147168566298
O           35.28625815482982        5.95072279890281       12.34115708115840
77
 energy: -118.987832189916 gnorm: 0.014471859948 xtb: 6.7.1 (edcfbbe)
Fe          35.17530214676630        4.35797026384297       10.35561081679075
N           37.05907578871395        3.94242472353884        9.69709391542952
N           34.83385977194036        5.50457894907677        8.71584872854300
N           33.21799463024772        4.62000928663593       10.94720897831785
N           35.45081663376354        3.03459455839705       11.86636837851592
C           37.97826864769722        3.12095844753284       10.26875697115725
C           39.19272893461242        3.11098690618279        9.47766082685604
C           38.97580543055622        3.95948144183488        8.43405913162931
C           37.62945126452117        4.46401864014753        8.58485879910721
C           35.74321632893400        5.82918179633812        7.75943713094578
C           35.18226668892076        6.78994407106029        6.84429360930910
C           33.91015008379610        7.04700331367959        7.28160080581159
C           33.70488565108494        6.21282696047458        8.45207047368032
C           32.32991789930793        5.46542368037324       10.37069994814314
C           31.13850279450213        5.56622176102345       11.17785296200441
C           31.34571426098774        4.77478372920995       12.28243577205667
C           32.65905145150010        4.16570398359823       12.09389879864887
C           34.54170985098277        2.72755464017823       12.82806944433758
C           35.13886606077569        1.83702974624091       13.80059953649451
C           36.43904962748884        1.66986155693640       13.42803385793089
C           36.60835055766610        2.40290509110004       12.19124413364646
C           37.77160928112684        2.40254624842884       11.43688845186901
H           38.58505925191510        1.78400238593137       11.79105511168487
C           37.03126863708735        5.32704686879138        7.68349717237939
H           37.64025000041200        5.65392523803346        6.85314363571572
C           32.53811264885184        6.17085597717484        9.19204677599614
H           31.71808757436422        6.78557964487429        8.84123260949942
C           33.25845024871033        3.24158314558333       12.93738940776574
H           32.69248046993159        2.91428875350940       13.79848526301775
C           39.87115106539469        4.34761542148081        7.30792401512387
H           40.86083174677951        3.91223200475287        7.41384539070232
H           39.97258638405741        5.43180122591174        7.26733597221851
H           39.44585703637612        4.01337548584279        6.35996647180559
C           40.40692321552793        2.29351135077599        9.76059211329145
H           40.24268665231509        1.25349331760275        9.46509929871359
H           40.65707016648489        2.30883108528465       10.81981726295238
H           41.25915097375659        2.67333050592967        9.20105792094667
C           35.84252621760132        7.34553504128460        5.63230147317017
H           36.62862169657313        6.68716763404409        5.27075954777156
H           36.28482498699272        8.31907451977198        5.84271893637544
H           35.09981618697583        7.47654303232281        4.84489258499059
C           32.92961259768210        7.96312025295502        6.73705553476867
H           31.89730330038766        7.64210862196733        6.81503348457756
C           33.18385475754334        9.14407917980854        6.17926540397258
H           34.17113831904155        9.56158558439375        6.08986421883006
H           32.38016242829167        9.75285108304067        5.79330807514603
C           29.98791775191210        6.43152796821195       10.79661054272387
H           29.76061093993894        6.31541324079611        9.73727515014559
H           30.23972970809931        7.47841794365982       10.97696181933063
H           29.09380463982848        6.18745997927743       11.35894197137241
C           30.53380169820085        4.56434888947767       13.45754776689710
H           30.88936913542115        3.78289747486609       14.11824272382711
C           29.43911156467611        5.22147922855610       13.84347396972078
H           28.99425561087559        6.03477277746231       13.29827527869912
H           28.93009549067163        4.95608545213061       14.75694984852112
C           34.44568680418546        1.21230552965153       14.96207648018526
H           33.48203177980102        0.80393010002847       14.66015455569406
H           34.27528861527222        1.93499857893691       15.75956115798128
H           35.05028545408605        0.39930746520733       15.35875839817389
C           37.52813553349576        0.97612961063372       14.17788551938592
H           37.68705711505805       -0.04346252661520       13.82397040785781
H           37.28546307554071        0.93598017942720       15.23817102999769
H           38.46178742868705        1.52520996340623       14.06857013889345
C           32.22444516214148        0.06925714841504        7.57278758596223
H           32.26212657869417       -0.85980521571549        8.14535404939138
H           32.32273022824642       -0.17680802938214        6.51628563303214
H           31.25697948530160        0.53325813285529        7.73914500647478
N           34.61421659369594        0.84638689826373        7.65856676655842
H           34.99043917167788        0.13045449068580        7.05752665663847
C           33.29924229951204        0.99270330381559        8.01706577978177
C           35.31556624776218        1.81908853682904        8.28204198387674