77
 energy: -118.995551662264 gnorm: 0.000025080503 xtb: 6.7.1 (edcfbbe)
Fe          35.21882456918273        4.41656538326381       10.36545896183043
N           37.06421607328505        3.97169314799123        9.66996694977369
N           34.88875476708571        5.59049420557399        8.74628741585354
N           33.29751693744635        4.68766212611667       10.92940948727235
N           35.48693489062570        3.07936429694550       11.85054449631874
C           37.98067128045031        3.15340124857466       10.24797210493930
C           39.21118308752480        3.16042854432416        9.48769973101295
C           39.01434336695662        4.01326195654965        8.44548997669073
C           37.66322126976491        4.51325059274304        8.57742444288013
C           35.79230006841858        5.90205165134235        7.78049683014534
C           35.22078016608950        6.82679086475421        6.83424121635866
C           33.94124131402608        7.07228976397537        7.25904642939552
C           33.75629987557179        6.28126374472005        8.46011705603405
C           32.38454733942025        5.51314131165956       10.35324423919964
C           31.15809719132142        5.51443245123358       11.11203757126894
C           31.36197351857901        4.67667292923931       12.17673394931294
C           32.71361198976378        4.16917156712050       12.03613413216813
C           34.59749515389358        2.80227003315507       12.83710218198382
C           35.18100249052033        1.89050925798486       13.79877681176503
C           36.44332570874131        1.63126291939613       13.36388550086056
C           36.61969280508169        2.39389163114456       12.14560192671707
C           37.78457182841269        2.41190643529899       11.40028532490126
H           38.61068209102334        1.81308831054222       11.75270034497059
C           37.08332298819662        5.40600619394953        7.69624045197344
H           37.69566337047981        5.75846001538198        6.87996463411280
C           32.59074904963514        6.25888032782015        9.20467010347924
H           31.77937664742356        6.88899017436223        8.87306937527817
C           33.31003666798591        3.29669802618466       12.92955569936679
H           32.72928775797467        2.99451427805652       13.78772775771722
C           39.95246694663204        4.40434743692078        7.35574204653313
H           40.90555343912788        3.89345281108086        7.46485641580247
H           40.13471973783604        5.47845242721512        7.37875981554757
H           39.53753026412260        4.15199425635002        6.37951013660341
C           40.42271312847016        2.37112965806690        9.84575655289088
H           40.18937457699599        1.30716847569491        9.88673544533423
H           40.79697584429827        2.67353315611214       10.82351295231338
H           41.21331312545345        2.52183436114862        9.11517516877048
C           35.90259469132066        7.33431756399172        5.61194435392621
H           36.50977712108415        6.55464044152357        5.15434231359812
H           36.55756777599521        8.17178850263486        5.85533697636215
H           35.16567517697408        7.67391542079333        4.88702457006478
C           32.92640519681075        7.91500169232805        6.66310220772430
H           31.90643692547634        7.56336971023371        6.76610248831192
C           33.15431856880564        9.05923909582791        6.02763352347899
H           34.14089854968505        9.47938084607278        5.94186589315044
H           32.35081165908635        9.63388720468354        5.59801616387934
C           29.92174184247036        6.25299712649802       10.73810866734769
H           29.77179723767390        6.23449525606765        9.65969429455780
H           29.98662332047740        7.29544851750593       11.05223041188325
H           29.05677141341545        5.80158475074112       11.21971402281619
C           30.44982645191455        4.30660774300761       13.23771643611204
H           30.54712141857727        3.29212092869742       13.60670551850561
C           29.53693032709992        5.10541628617045       13.77956710172548
H           29.43299535762201        6.13564831473182       13.48835690903190
H           28.88187984985042        4.76121477503577       14.56247738577154
C           34.47605294020155        1.38497025351666       15.00945926703538
H           33.57131125107042        0.84375963759062       14.73140812716677
H           34.19035603747861        2.21592100833129       15.65368956207776
H           35.11563970758097        0.71448037520817       15.57770567891797
C           37.49354010006804        0.76671751896979       13.97044227694734
H           37.81409772560419       -0.00021662104294       13.26518535387457
H           37.12131225435457        0.27631900493247       14.86617849400191
H           38.36440246733134        1.36281410815817       14.24226001804914
C           32.34064141498552       -0.22538974528952        8.15119663322005
H           32.89956245099674       -1.11903585025398        7.87364886293988
H           31.60971014462191       -0.02403345233192        7.36814706450114
H           31.81161169214919       -0.41975106400277        9.07893644051912
N           34.04886454186209        1.40742976766526        7.32015094460924
H           34.09573305749230        1.03432142850908        6.38571286736450
C           33.25192301086231        0.93214838077072        8.33077661497996
C           34.74459145390679        2.45636745411490        7.80800876220816
H           35.44976843866242        3.02838317915578        7.24042684858735
N           34.44069770213456        2.67504820442576        9.05955343261370
C           33.51470799817965        1.73757048411116        9.40262289319571
H           33.10391731233631        1.70760509812943       10.39053665534512
O           35.80581528986031        5.72501534750543       11.22897065181377
O           35.42919879610451        5.87115533328894       12.44410967442727
