78
 energy: -116.058080249136 gnorm: 0.000054399665 xtb: 6.7.1 (edcfbbe)
Fe          -5.27403005811153      -10.61857279098648       19.33693743468530
N           -5.34730518287070       -8.80439856648687       20.15720741035071
N           -5.77751359213903       -9.85770055994204       17.56456754460512
N           -5.25522843476134      -12.47035061292226       18.54153070319944
N           -4.81970041807589      -11.40461423096321       21.13480699181767
C           -5.12876047615840       -8.47809205740067       21.45778169404925
C           -5.27230746671564       -7.05219481775988       21.66057536351232
C           -5.57881456308560       -6.52477930132278       20.44624271855586
C           -5.62063138963467       -7.63631939235765       19.51982149490129
C           -5.98322509804479       -8.54688098660469       17.27201768390825
C           -6.32466923845914       -8.37692514205524       15.88177252457978
C           -6.32897861454803       -9.62995883640501       15.33081762035803
C           -5.97123475582317      -10.53797575071358       16.40558774635078
C           -5.51081409613456      -12.80095983202054       17.24432941883953
C           -5.37404270526452      -14.21910593436189       17.04066390416878
C           -5.01919042994976      -14.75001501813349       18.25359726725783
C           -4.94036721490554      -13.63204413645826       19.17216946342277
C           -4.56512604639786      -12.71173982239515       21.41701283225867
C           -4.22656153955668      -12.87592917903090       22.81234161234996
C           -4.27682373942998      -11.63424490463751       23.36715470674298
C           -4.64510172023063      -10.72884636772647       22.30329449376297
C           -4.79778538174114       -9.36428956161347       22.46641440764606
H           -4.64217130587227       -8.96060693345494       23.45532692620212
C           -5.90832231148833       -7.50319548480916       18.17723019388574
H           -6.11112421888690       -6.50894727103966       17.80959950783359
C           -5.86290378292524      -11.90599517654419       16.24816028154599
H           -6.06684132374523      -12.31267066184489       15.26944575176899
C           -4.62582528768510      -13.75532064099881       20.51303957962918
H           -4.40819518258946      -14.74429924497619       20.88570574304838
C           -5.83828737802750       -5.10641514767603       20.07027636185947
H           -5.74860416227868       -4.45356904397039       20.93512851866065
H           -6.84276411850865       -4.99790003288178       19.66115420369606
H           -5.12723420911908       -4.77367822415976       19.31363407481300
C           -5.10529953431454       -6.36827775656182       22.97447834262501
H           -4.09928098005252       -6.52415728294473       23.36568517135343
H           -5.81521810372194       -6.76046078892158       23.70290719375920
H           -5.27178311715068       -5.29838885429096       22.87700048347230
C           -6.55204476758638       -7.06864811002555       15.20877409616123
H           -5.86407360620383       -6.31508451957857       15.58926589764267
H           -7.56967928953119       -6.71489134833006       15.38152700384959
H           -6.40080528402667       -7.16910708357476       14.13585105663186
C           -6.59234113710986      -10.02876587516009       13.96592631363173
H           -6.02875869018038      -10.88348482802020       13.60915896847756
C           -7.45770367649168       -9.44299238368865       13.14456349515158
H           -8.07959078161771       -8.62305176161277       13.45823708546384
H           -7.59372240134366       -9.78537455617204       12.13201458245029
C           -5.52573519887899      -14.91689780655070       15.73420521049955
H           -5.11944635602079      -14.31268283544314       14.92441148967430
H           -6.57727205467586      -15.11002228881050       15.51503409759073
H           -4.99900015092389      -15.86876400680150       15.75628016968601
C           -4.74114311392474      -16.12538332677344       18.60333561195262
H           -3.98025758966593      -16.27079372034486       19.36156305116785
C           -5.34226426690952      -17.19022698258679       18.08249775603909
H           -6.13724098629378      -17.10482035348445       17.36237972244354
H           -5.07485725726819      -18.19032527860144       18.38108325866620
C           -3.89779306397693      -14.18210003341371       23.45006620708766
H           -3.02651185622170      -14.63239056529175       22.97376079630313
H           -4.73192875870055      -14.87758070586663       23.35337040084486
H           -3.68113166286175      -14.05293733436536       24.50766632506405
C           -4.01958449016300      -11.21703654061861       24.77478882226838
H           -3.19575020400119      -10.50409477709603       24.82044324248362
H           -3.76382883232613      -12.07476371686488       25.39193131220526
H           -4.90233162612534      -10.73932201431306       25.20049800110360
O           -7.46744748974726      -11.02328879510102       19.86925065249086
H           -7.61542006032503      -11.84289894198505       19.38494322407653
H           -7.36640358026250      -11.25750697088296       20.79828318062705
C           -0.24192355556008      -10.62271721200358       16.93801877576290
H            0.51322861953761      -11.29247755182666       17.34927956916720
H            0.23121840556472       -9.66353706730216       16.72800115590228
H           -0.60790597954134      -11.04158844144445       16.00596765061710
N           -1.20763137032795       -9.94851343298142       19.14802575414296
H           -0.33621137521125       -9.64550842518154       19.55101614168381
C           -1.37238622468825      -10.45686635046445       17.88620573515209
C           -2.42089529078996       -9.93133185980153       19.74469567665048
H           -2.59537245322275       -9.58289857953330       20.74172753897962
N           -3.34300954187703      -10.39745092898379       18.93781013080666
C           -2.70617020153556      -10.72814558616127       17.77778723886179
H           -3.24580562056085      -11.13690675558525       16.94893622902316
