78
 energy: -115.958230810398 gnorm: 0.281758978901 xtb: 6.7.1 (edcfbbe)
Fe          -5.14200000000000      -10.67000000000000       19.29300000000000
N           -5.35100000000000       -8.87200000000000       20.13400000000000
N           -5.84900000000000       -9.88800000000000       17.57800000000000
N           -5.16700000000000      -12.48300000000000       18.56100000000000
N           -4.66400000000000      -11.38400000000000       21.09300000000000
C           -5.07200000000000       -8.48800000000000       21.40900000000000
C           -5.18700000000000       -7.04600000000000       21.64800000000000
C           -5.57200000000000       -6.48500000000000       20.42200000000000
C           -5.68700000000000       -7.66000000000000       19.51500000000000
C           -6.07300000000000       -8.57600000000000       17.24300000000000
C           -6.46800000000000       -8.31500000000000       15.84600000000000
C           -6.39800000000000       -9.67600000000000       15.32600000000000
C           -5.93700000000000      -10.59900000000000       16.36500000000000
C           -5.53500000000000      -12.88300000000000       17.22300000000000
C           -5.54100000000000      -14.31600000000000       16.98600000000000
C           -5.13200000000000      -14.87100000000000       18.24000000000000
C           -4.89200000000000      -13.66600000000000       19.09700000000000
C           -4.28200000000000      -12.74300000000000       21.30700000000000
C           -4.16300000000000      -12.91400000000000       22.76300000000000
C           -4.28600000000000      -11.68300000000000       23.41100000000000
C           -4.57500000000000      -10.77900000000000       22.27600000000000
C           -4.72800000000000       -9.39600000000000       22.42900000000000
H           -4.56700000000000       -8.98600000000000       23.42600000000000
C           -6.00400000000000       -7.53800000000000       18.15800000000000
H           -6.21600000000000       -6.53500000000000       17.78700000000000
C           -5.91600000000000      -11.99500000000000       16.18700000000000
H           -6.20200000000000      -12.40700000000000       15.22000000000000
C           -4.53100000000000      -13.81700000000000       20.43200000000000
H           -4.43500000000000      -14.82900000000000       20.82500000000000
C           -5.78200000000000       -5.08900000000000       20.04400000000000
H           -5.58600000000000       -4.43400000000000       20.92000000000000
H           -6.83300000000000       -4.94400000000000       19.71400000000000
H           -5.08500000000000       -4.81300000000000       19.22400000000000
C           -4.93600000000000       -6.30100000000000       22.91800000000000
H           -4.16200000000000       -6.83200000000000       23.51300000000000
H           -5.87300000000000       -6.24600000000000       23.51300000000000
H           -4.57300000000000       -5.27700000000000       22.68700000000000
C           -6.76400000000000       -7.03400000000000       15.21400000000000
H           -6.04600000000000       -6.26700000000000       15.57600000000000
H           -7.79500000000000       -6.71500000000000       15.47700000000000
H           -6.66500000000000       -7.12800000000000       14.11100000000000
C           -6.76500000000000      -10.07800000000000       13.92300000000000
H           -6.26700000000000      -10.95200000000000       13.47900000000000
C           -7.65700000000000       -9.45300000000000       13.16300000000000
H           -8.19400000000000       -8.57100000000000       13.54300000000000
H           -7.87000000000000       -9.81000000000000       12.14400000000000
C           -5.91500000000000      -15.01300000000000       15.76300000000000
H           -5.52700000000000      -14.45400000000000       14.88400000000000
H           -7.02200000000000      -15.07600000000000       15.69000000000000
H           -5.47600000000000      -16.03400000000000       15.76300000000000
C           -5.01100000000000      -16.28600000000000       18.67100000000000
H           -4.66600000000000      -16.46100000000000       19.69900000000000
C           -5.26500000000000      -17.38600000000000       17.97800000000000
H           -5.61600000000000      -17.32200000000000       16.93800000000000
H           -5.12800000000000      -18.37700000000000       18.43400000000000
C           -3.82100000000000      -14.24300000000000       23.38000000000000
H           -2.92600000000000      -14.66600000000000       22.87700000000000
H           -4.67200000000000      -14.94600000000000       23.25300000000000
H           -3.59800000000000      -14.10900000000000       24.46000000000000
C           -4.17500000000000      -11.40300000000000       24.88900000000000
H           -3.10300000000000      -11.35400000000000       25.17800000000000
H           -4.66600000000000      -12.21800000000000       25.46300000000000
H           -4.65700000000000      -10.43000000000000       25.12400000000000
O           -7.12700000000000      -11.16800000000000       19.76899999999999
H           -7.31400000000000      -11.98300000000000       19.30300000000000
H           -7.68900000000000      -10.72200000000000       20.29400000000000
C            0.24700000000000      -10.70600000000000       17.53600000000000
H            0.98700000000000      -10.83900000000000       18.35400000000000
H            0.60400000000000       -9.90500000000000       16.85400000000000
H            0.14800000000000      -11.66300000000000       16.98000000000000
N           -1.25400000000000       -9.16900000000000       18.87800000000000
H           -0.53600000000000       -8.50200000000000       19.07700000000000
C           -1.08000000000000      -10.32000000000000       18.12000000000000
C           -2.51000000000000       -9.11000000000000       19.28200000000000
H           -2.91800000000000       -8.30600000000000       19.89300000000000
N           -3.17500000000000      -10.18400000000000       18.82100000000000
C           -2.27700000000000      -10.94100000000000       18.09100000000000
H           -2.58600000000000      -11.86300000000000       17.61499999999999
78
 energy: -116.021850673129 gnorm: 0.118947883152 xtb: 6.7.1 (edcfbbe)
Fe          -5.14516013398331      -10.65944885088297       19.28985832079729
N           -5.35259993034869       -8.84623815510050       20.13756571991157
N           -5.81195520548131       -9.88663529115916       17.54354709485217
N           -5.14757091518093      -12.50123123843883       18.51317199459385
N           -4.63476921234252      -11.39693917235352       21.08403409763648
C           -5.07248470380129       -8.49373038609784       21.42156912712684
C           -5.18654610290446       -7.05825409864905       21.63221884316615
C           -5.56549092704003       -6.52255204202968       20.42273717133041
C           -5.67227512515091       -7.65946733367372       19.50619279216523
C           -6.07251180307818       -8.58195168632229       17.24541342458538
C           -6.45282228147508       -8.37493005760778       15.85497776013273
C           -6.40157496799827       -9.67013513906260       15.30691502429556
C           -5.98097722629314      -10.58467388554645       16.35742343567330
C           -5.53815936285820      -12.86757106790393       17.20999421840221
C           -5.53112754264868      -14.30108911535646       17.02369017564645
C           -5.13438349487927      -14.85696705639018       18.24662898798913
C           -4.89667474552544      -13.68188720078818       19.11027692451537
C           -4.34816217100808      -12.74363367186279       21.33287830733162
C           -4.14256827414101      -12.91433737181447       22.76380349953618
C           -4.28238533237400      -11.69535346500617       23.37996981319579
C           -4.57003701889728      -10.77274227597386       22.27393263818682
C           -4.73058775470834       -9.39595851756326       22.43062192244765
H           -4.57355870606940       -8.98957241667808       23.42270674564231
C           -6.00192662686662       -7.54035210267035       18.16452788557719
H           -6.21745362776867       -6.54289729965461       17.79633573745711
C           -5.91771346295580      -11.97285427888595       16.20291672982463
H           -6.19083625775479      -12.39005071066830       15.24006848910174
C           -4.53379646954163      -13.80546998894896       20.44905336683615
H           -4.41576142585031      -14.80941862350532       20.83678316320038
C           -5.78180173303298       -5.10512824601942       20.04863381518586
H           -5.59254777580779       -4.44348431109597       20.90345878658995
H           -6.81496784924171       -4.94101516133944       19.71457908500146
H           -5.10352677831631       -4.81285701199670       19.23458675483169
C           -4.93535462772043       -6.31468875674246       22.90594493898311
H           -4.17277435603176       -6.82112145096437       23.50917954477331
H           -5.85439735340016       -6.24535621736632       23.50456816591994
H           -4.58303640369341       -5.29751181058912       22.69431406197490
C           -6.75519992603870       -7.06582054909630       15.22443766485082
H           -6.06009879738143       -6.28662334896938       15.57190615589257
H           -7.77369851612123       -6.72506581984630       15.46939703941060
H           -6.66673520596659       -7.12776310796468       14.13218889587894
C           -6.75612817030111      -10.06664001903466       13.93335326887266
H           -6.26383284624141      -10.94347630767153       13.50960888274202
C           -7.65126176265357       -9.44768399536346       13.16843081098723
H           -8.20049083210490       -8.58736478941978       13.53128652808653
H           -7.86847786193382       -9.79822623321930       12.16330593082531
C           -5.90812081240360      -14.99772648868169       15.77300601696523
H           -5.53638312901813      -14.45961040191915       14.89162587009649
H           -7.00192997714848      -15.07831290151194       15.68585429506701
H           -5.48296596515106      -16.00517939918262       15.74672220532476
C           -5.00715030439060      -16.25744797840708       18.66712036439205
H           -4.66638756921889      -16.42708841525137       19.68945914945869
C           -5.26563255367596      -17.37019503730040       17.97720623998147
H           -5.61988423952577      -17.34243777790111       16.95618500193740
H           -5.13029653770039      -18.35146998177092       18.42371257891002
C           -3.81692893152097      -14.23755237026569       23.38181324719359
H           -2.93769727400583      -14.66773202602390       22.88822213977345
H           -4.65526873204718      -14.93659805211874       23.26207596614478
H           -3.60020818050168      -14.11837586262600       24.44768629981245
C           -4.17742805730889      -11.40443712265233       24.85438649231009
H           -3.12378327939129      -11.35338250469953       25.16697525510006
H           -4.65719405123595      -12.19790439095077       25.44321861430659
H           -4.65093973327570      -10.45010771448677       25.11425726896633
O           -7.12942394118274      -11.17363342963550       19.76175481183610
H           -7.34404763270827      -11.98921933635041       19.30933342732558
H           -7.73219560518944      -10.71436018641412       20.31538388398230
C            0.24696052917315      -10.70182497151015       17.53889647607009
H            0.98469672758399      -10.83773526038046       18.33892076247340
H            0.60622781650050       -9.91996526342331       16.85962282418102
H            0.14979885559179      -11.64223887729093       16.98862518065269
N           -1.24325566256692       -9.17708547447037       18.86976052838479
H           -0.52558206760135       -8.50298013503634       19.07232320104866
C           -1.07126706746207      -10.32019296930111       18.12028400307256
C           -2.51677951040762       -9.12824123492606       19.27472088312884
H           -2.92100966646567       -8.33164904542348       19.87879167105921
N           -3.18185446091506      -10.18460702023976       18.82773975816464
C           -2.28548681017582      -10.93120059419836       18.10197442748283
H           -2.59138057174106      -11.84633813835520       17.62734741343219
78
 energy: -116.039901352633 gnorm: 0.031308975066 xtb: 6.7.1 (edcfbbe)
Fe          -5.14528756946764      -10.65113985321101       19.28586346990158
N           -5.35141196893723       -8.82890014459588       20.14061803747409
N           -5.79563772818160       -9.89081684292527       17.52024973796392
N           -5.14160111673018      -12.52092239204024       18.47603765055815
N           -4.63972286284279      -11.41706326751004       21.08184308605950
C           -5.07198615704217       -8.50009452444796       21.43109957815738
C           -5.18685402667702       -7.06708247590088       21.62127902089400
C           -5.55714311345825       -6.54880580178549       20.41981202286607
C           -5.65724897572145       -7.66328146983290       19.50174510328025
C           -6.05888993975658       -8.58667156725472       17.24677949914741
C           -6.44361465811081       -8.41621984598435       15.86555210862186
C           -6.41542363287713       -9.66448015426977       15.30459790235724
C           -5.99383499982675      -10.57326592615304       16.35693149852763
C           -5.52759608149168      -12.85730860616631       17.20413227192202
C           -5.52340526703527      -14.28964215722288       17.04313609861163
C           -5.13974000664214      -14.83863976242591       18.24624336898600
C           -4.90022839645042      -13.69251539464982       19.12019072905655
C           -4.39142357174012      -12.73459594232079       21.34592307352976
C           -4.14160177920202      -12.91610923870758       22.75993288158987
C           -4.27801494981514      -11.70129526267482       23.35276026304157
C           -4.56748368665795      -10.76799048155241       22.27164887837158
C           -4.73037709606229       -9.39853975391235       22.43068313831194
H           -4.58257609372776       -8.99577035808286       23.42157180975179
C           -5.99052470634620       -7.54530127969481       18.16755175826858
H           -6.22107210595241       -6.55378641151129       17.80431339378847
C           -5.90115905908648      -11.95256652159975       16.21893633004339
H           -6.17767076535836      -12.37002140413571       15.26051134490952
C           -4.52391770247206      -13.78696366574817       20.45598878152924
H           -4.38706322874832      -14.78341440048346       20.84744120991800
C           -5.78142269095146       -5.11803142016629       20.05031847115962
H           -5.59669183002349       -4.46118777823112       20.89765071147363
H           -6.80544925861224       -4.95311007032275       19.71579042243356
H           -5.11382484194256       -4.82131494220132       19.23977453144344
C           -4.93523315046832       -6.32681669932617       22.89674517951889
H           -4.17847463485102       -6.82311919256776       23.49926670337573
H           -5.84657121025368       -6.25402403281649       23.49274174821010
H           -4.59127554097937       -5.31438384558928       22.69128285220319
C           -6.74638157274547       -7.09241271792509       15.23307952522538
H           -6.05864422151340       -6.31903222583680       15.58059253598040
H           -7.75818902627740       -6.75308198439873       15.47351184820206
H           -6.66108410489663       -7.14802855154766       14.14955940674337
C           -6.75573548753776      -10.05892254558909       13.95328657420492
H           -6.25240460253200      -10.93145369530699       13.54955278203036
C           -7.65012169496006       -9.44768471201519       13.17904409864596
H           -8.21138853559848       -8.59905739678442       13.52249663917349
H           -7.86005287951708       -9.79047057054540       12.17975553534563
C           -5.90179863860708      -14.98233384679415       15.77377295014420
H           -5.54040662891337      -14.44142743783458       14.90161986952931
H           -6.98751741066862      -15.07183291222451       15.68941734632739
H           -5.47813403177844      -15.97890138185035       15.73563190037053
C           -5.00878005486349      -16.22288477317739       18.66169652109565
H           -4.65999415970705      -16.37711953248104       19.67754205867370
C           -5.26986764772834      -17.34369482515415       17.98146761277189
H           -5.63127907176920      -17.35491352286608       16.97190856898808
H           -5.12581174395220      -18.31496687458655       18.42669845427942
C           -3.81640435512299      -14.23245328092655       23.38187262749046
H           -2.94455617946617      -14.66877685543997       22.89672053310312
H           -4.64727655558532      -14.92898819170838       23.26889700181508
H           -3.60257369374612      -14.11879142549278       24.43975298473297
C           -4.17363275542419      -11.40156702000524       24.81991624357603
H           -3.12984747388728      -11.35064063847774       25.13960697152226
H           -4.65290866457875      -12.18615551435517       25.40715777578014
H           -4.64822877673298      -10.45887477183980       25.08129109570375
O           -7.14831464188746      -11.16885313451167       19.75496249071850
H           -7.40460858570345      -11.99190795502964       19.33315258264735
H           -7.77232613997879      -10.72215390010204       20.32578641205176
C            0.24457956270284      -10.70125664028589       17.53904277327917
H            0.98332418561040      -10.83683654757796       18.32760907780645
H            0.60531748436871       -9.92930489234066       16.86179509894812
H            0.14829862423247      -11.63152078056437       16.99109387160334
N           -1.23547554398806       -9.18470544774168       18.86367067554201
H           -0.51972033208204       -8.50554849639189       19.06806058417918
C           -1.06769260937358      -10.32326335557322       18.12097911546690
C           -2.52119886311544       -9.14389059887028       19.27048757019321
H           -2.92205065957204       -8.35264597154088       19.86932434285954
N           -3.18481791704026      -10.18635517954180       18.83389981544287
C           -2.29354660688081      -10.92723796148690       18.11262155752231
H           -2.59629358468199      -11.83785904525577       17.63871990302637
78
 energy: -116.043991884370 gnorm: 0.020615549408 xtb: 6.7.1 (edcfbbe)
Fe          -5.15679799200379      -10.65006508340277       19.28860506444121
N           -5.34502380126326       -8.83070027294225       20.14236918939797
N           -5.77151543599191       -9.89051404519820       17.51709732500229
N           -5.13215456380011      -12.52182804794750       18.46745228803540
N           -4.64643290982889      -11.42117470370025       21.07796626906473
C           -5.07000902478547       -8.50425126300179       21.43347326001215
C           -5.18463223196579       -7.07224251087677       21.62157083162492
C           -5.55045800898219       -6.55517968030178       20.41820969319248
C           -5.64254364293589       -7.66863713113263       19.50228723492731
C           -6.04019797859609       -8.58626073802667       17.25079182442354
C           -6.43779319219044       -8.42004768304505       15.87557878165633
C           -6.42113208352382       -9.66593937679295       15.31073801218433
C           -5.99329209853410      -10.57325995454613       16.36341427898358
C           -5.51758702968271      -12.85110703249274       17.20316924351058
C           -5.51435548416897      -14.28072217613011       17.03368790873188
C           -5.13382334081169      -14.82607649039657       18.23707769069498
C           -4.89284597935723      -13.69023837318001       19.11768539141631
C           -4.41251025283749      -12.73220024803601       21.34408465697145
C           -4.14350503922701      -12.91951446046399       22.75352819670806
C           -4.27060335362354      -11.69966301951571       23.33817523894937
C           -4.56574642483242      -10.76629104204319       22.26693067855456
C           -4.73172501892271       -9.40181326161799       22.43165498735271
H           -4.59201675005000       -9.00218927650905       23.42509533770478
C           -5.97646580857404       -7.54793981710748       18.16875918785662
H           -6.22054649575911       -6.55877900218661       17.81012920238089
C           -5.89626430294733      -11.94592086748033       16.22274526903081
H           -6.16574243589289      -12.35844474057521       15.26133039495490
C           -4.52101232132968      -13.78192653620850       20.45025748250910
H           -4.35121831303658      -14.77423564660308       20.84275951428553
C           -5.78360731118446       -5.12620058568363       20.04910871824868
H           -5.60306173507396       -4.47351331614700       20.89918415418438
H           -6.80879563044910       -4.97245621474204       19.71501675395748
H           -5.11855432877714       -4.82793715552054       19.23819210486184
C           -4.93630501643751       -6.33589277589606       22.89662215162065
H           -4.17734104126785       -6.83269366928452       23.49530674244427
H           -5.84925831351404       -6.27002660236132       23.48961512162996
H           -4.59757887602209       -5.32239007063229       22.69052948119466
C           -6.73940409912748       -7.10183617901327       15.23926303793514
H           -6.04917433879414       -6.33701853601320       15.59328120600629
H           -7.75262138426705       -6.77448319353144       15.48001903933500
H           -6.64918013434669       -7.16965833710900       14.15806161010468
C           -6.75483159368979      -10.05913385340319       13.96176435587905
H           -6.24101720257050      -10.93137953925911       13.57394098131494
C           -7.64696316050084       -9.45298803899907       13.18170676688785
H           -8.23278522493849       -8.61813429203087       13.52379878266005
H           -7.84792922789653       -9.79553702060936       12.18121938187891
C           -5.89211807466021      -14.96350800682652       15.75968147453202
H           -5.54459663297008      -14.39903880210977       14.89731642901509
H           -6.97689167139107      -15.06410707719656       15.68745032730465
H           -5.45253947061696      -15.95264864135250       15.70515274967448
C           -5.00128308898907      -16.20041008307211       18.65990110374612
H           -4.63767772951085      -16.33050768194729       19.67318315286987
C           -5.27256960394364      -17.32635521239434       17.99682623172046
H           -5.66374751198970      -17.36179886238763       16.99615125357470
H           -5.11410930338853      -18.28893281366180       18.45385063066599
C           -3.81736274039619      -14.23146507296252       23.38274072879030
H           -2.94585038679680      -14.67355619933350       22.90129676555998
H           -4.64929621330404      -14.92780168800475       23.27703905833335
H           -3.60210529427419      -14.11075707402643       24.44017822548540
C           -4.16525934658989      -11.39218738859626       24.79713498823301
H           -3.12152504993145      -11.33784538385499       25.11067568598964
H           -4.64634818650490      -12.17784626280022       25.37942989122564
H           -4.64585858308511      -10.44997752158116       25.04446395529840
O           -7.19970435068327      -11.14757603372601       19.74179354788011
H           -7.48190397707169      -11.99301844748087       19.37368354482990
H           -7.81589582232781      -10.72350271100230       20.34238400860600
C            0.23752841695107      -10.70620421742631       17.53502445299606
H            0.98226958619831      -10.84023470573061       18.31910549796516
H            0.59589724986654       -9.93299035386154       16.85701038925511
H            0.14188428043426      -11.63557562815411       16.98512423228843
N           -1.23760849210275       -9.19308703739616       18.86360113268413
H           -0.52249174546683       -8.51225958049546       19.06396652318539
C           -1.07366507098410      -10.33259070792403       18.12288469791060
C           -2.52419822900811       -9.15400782541929       19.27547706903777
H           -2.92338220429347       -8.36238329029180       19.87293740730338
N           -3.18898833024501      -10.19715568238623       18.84466758759129
C           -2.30051001071369      -10.93733375828443       18.12168038831743
H           -2.60273247789718      -11.84789438661573       17.64893204342711
78
 energy: -116.046775810565 gnorm: 0.030179066821 xtb: 6.7.1 (edcfbbe)
Fe          -5.16735509533666      -10.64550328784430       19.28917227983484
N           -5.33901542654264       -8.83622769548727       20.14236297637755
N           -5.75096571674869       -9.89044065315006       17.52127019241580
N           -5.13461100565744      -12.51577411320944       18.46678992081059
N           -4.66966674969909      -11.42391002625922       21.07081725952928
C           -5.07108847588369       -8.50852548038141       21.43400070820914
C           -5.18352760230339       -7.07825937440616       21.62352504313016
C           -5.54225163628733       -6.55992774284615       20.41678967949647
C           -5.62959251541399       -7.67465861925561       19.50356326721424
C           -6.02176409590620       -8.58612048778559       17.25652652565256
C           -6.43263617592484       -8.42042642565350       15.88614326092767
C           -6.42774335574990       -9.66864264105439       15.32273751874732
C           -5.98502661816684      -10.57222161427574       16.37361800231324
C           -5.50567199666603      -12.84233321224960       17.20290197781189
C           -5.50324732243001      -14.27021220573519       17.02223416244839
C           -5.12517476295205      -14.81355507973929       18.22779621281554
C           -4.88867469664539      -13.68283293610130       19.11348517160446
C           -4.43053248233803      -12.72813037659391       21.33667866122284
C           -4.14996918365653      -12.92158954252501       22.74234085797080
C           -4.26475518172029      -11.69673209411557       23.32229881624266
C           -4.57196097680467      -10.76602481954259       22.25933001919736
C           -4.73730354108498       -9.40588206062269       22.43212511529483
H           -4.60035920606726       -9.00955510250758       23.42746429351626
C           -5.96113797449289       -7.54943075501966       18.16907610852128
H           -6.21271836676791       -6.56140764255128       17.81474210416054
C           -5.88215497292150      -11.93811782414186       16.22167680532779
H           -6.15181974023780      -12.34438251380186       15.25880351469637
C           -4.51195263960198      -13.77629634697521       20.43963917476283
H           -4.31003864741601      -14.76061273674840       20.83834776689518
C           -5.78585825061568       -5.13534461746666       20.04754272991521
H           -5.61145478539622       -4.48419028479999       20.89985313394600
H           -6.81376496158585       -4.99500214954668       19.71460539142431
H           -5.12456773145570       -4.83220981730944       19.23561779356626
C           -4.93921904745231       -6.34729832086457       22.89949881077331
H           -4.17528415684488       -6.84328976443333       23.49350123048126
H           -5.85251722481034       -6.29218950192311       23.49329307497119
H           -4.60773150437150       -5.33057892603425       22.69655925229151
C           -6.73162126578618       -7.11079441916439       15.24376306963439
H           -6.04260882717047       -6.34931975422527       15.60298907014650
H           -7.74717711859447       -6.79182170629773       15.47923383186658
H           -6.63390413291140       -7.19152767505899       14.16423488903528
C           -6.75902953451686      -10.06430216549854       13.97494483928561
H           -6.22023899599913      -10.92554083650160       13.59716769595901
C           -7.65291253617648       -9.46861379604590       13.19037310111932
H           -8.24850883244630       -8.63609003113981       13.52308883812479
H           -7.83123203860370       -9.80349389878435       12.18188379291669
C           -5.87477114186701      -14.94381452056893       15.74525295829774
H           -5.54986125364556      -14.35025704458621       14.89172324903074
H           -6.95813950574686      -15.06613165940641       15.68339190971887
H           -5.41027186090342      -15.92253072436606       15.67132255680833
C           -4.98695186401742      -16.18102117971133       18.65591273108619
H           -4.59070195022148      -16.28933530366294       19.65973020491882
C           -5.28355291859470      -17.30803586554190       18.01095234051454
H           -5.70620581596379      -17.35716209015309       17.02234914179108
H           -5.10740874347046      -18.26364294319009       18.47783863179231
C           -3.82219648477590      -14.22804141735520       23.38108545349582
H           -2.94930493972006      -14.67646483186981       22.90594580942298
H           -4.65415821790203      -14.92679952966611       23.28476902482475
H           -3.60499914895893      -14.09600614005952       24.43830371993633
C           -4.15095077040941      -11.37888039578900       24.77392963114808
H           -3.10671548172217      -11.31474942309285       25.08026761091243
H           -4.62767626889616      -12.16314672385138       25.36060289207628
H           -4.63813597960950      -10.43693030420575       25.00877878393281
O           -7.28148888571770      -11.09881301248802       19.69096226329889
H           -7.56863748576060      -12.00305042019179       19.44578069428206
H           -7.86549914028346      -10.74753761441003       20.38502886928283
C            0.22817113217654      -10.71633616587385       17.52676273216733