77
 energy: -118.995606003144 gnorm: 0.000045171241 xtb: 6.7.1 (edcfbbe)
Fe         -21.08960552942312      -28.27514676162767       -2.71541498624835
N          -21.61289537868454      -30.09081326985572       -1.99820509023159
N          -21.89886722386555      -27.41657299959271       -1.07620531091355
N          -20.38677080844224      -26.48419877407337       -3.33619895955503
N          -20.07442507250681      -29.16461105928447       -4.22161830888758
C          -21.37395311842739      -31.28932597777396       -2.58730419556968
C          -21.98774119996767      -32.35603400744885       -1.82654794622335
C          -22.60334083290277      -31.76578373282804       -0.76624671515848
C          -22.36056650623555      -30.34470909379106       -0.89199711949797
C          -22.59609206780590      -28.03306010997202       -0.08684926781399
C          -23.09200186799073      -27.06434458304457        0.85897320347369
C          -22.68900212139605      -25.83713691191653        0.40212204777967
C          -21.94085815297296      -26.08711098285782       -0.81546487340517
C          -20.67595841559172      -25.28292662750071       -2.77145722669602
C          -20.10683334459598      -24.21008059867953       -3.55034758436410
C          -19.45877851078400      -24.79985861897577       -4.60294893059660
C          -19.66581473446155      -26.22841340934534       -4.45377092129575
C          -19.36147207446220      -28.54943895771748       -5.20086203856686
C          -18.83042853417079      -29.52769881877373       -6.12481863372499
C          -19.25412618898019      -30.74339508277760       -5.68303176524029
C          -20.03352148469172      -30.49482486122891       -4.49027196216508
C          -20.63545354625101      -31.48915152557579       -3.74017566482849
H          -20.52823102941869      -32.50516906664596       -4.08901895236786
C          -22.81806673363017      -29.39794989315383        0.00504916147426
H          -23.40879592030361      -29.75027399390625        0.83706224331369
C          -21.38545794911846      -25.09205676959576       -1.59849094695133
H          -21.53320867136482      -24.07258120559928       -1.27596264117579
C          -19.16301935035132      -27.18532281846774       -5.31799779161761
H          -18.57782010685209      -26.84147591241377       -6.15737906698208
C          -23.39326102511913      -32.38775714096723        0.33287440123932
H          -23.43440485602056      -33.46775326809649        0.21714216303749
H          -24.41285639958191      -32.00332326709253        0.33146905714096
H          -22.94740171532752      -32.16193897125634        1.30170710035902
C          -21.92022434064918      -33.79780697456596       -2.19694005955616
H          -20.88499187747544      -34.13714356221819       -2.24097036683635
H          -22.37134541084427      -33.95984997639192       -3.17553819035168
H          -22.44999474346958      -34.40855079843232       -1.47054914652068
C          -23.84127720371144      -27.38918890878749        2.10289425858761
H          -23.45466140344024      -28.29850706978169        2.56045292289514
H          -24.89906106659585      -27.54310143313002        1.88590061822921
H          -23.75225411062911      -26.57262866542178        2.81648901485874
C          -22.90385798238031      -24.52904827303374        0.98286174700619
H          -22.09960811772994      -23.81613297372546        0.84232372086037
C          -23.99064598950753      -24.15242260080701        1.64787082197486
H          -24.83939614199882      -24.80146761152735        1.77172446417477
H          -24.08077429187966      -23.16273766793135        2.06368845689582
C          -20.28171226907557      -22.76045610721963       -3.26364926531567
H          -19.59043046261883      -22.42854316151394       -2.48694888796042
H          -21.29624317545199      -22.55957139902581       -2.92428098717258
H          -20.09372653972968      -22.17829978936794       -4.16308442590988
C          -18.73527542918883      -24.18264818245214       -5.69394007333610
H          -18.81450183224475      -24.68506446944781       -6.65040353326801
C          -17.99938354094467      -23.08037328429525       -5.60071774560004
H          -17.85096791195309      -22.56787435868506       -4.66613370448718
H          -17.49665465621291      -22.66492085149774       -6.45806478100591
C          -18.00081972898139      -29.19296925273850       -7.31582510980410
H          -17.10855997188274      -28.64142729478739       -7.01957767867502
H          -18.56717473893841      -28.57258186929388       -8.01011362483506
H          -17.69075107797007      -30.09456999983673       -7.83789053034464
C          -19.00906035074081      -32.09546046855849       -6.25966336873786
H          -18.50906138549235      -32.73948783506899       -5.53578928676860
H          -18.38573673481656      -32.02946409652800       -7.14758682984003
H          -19.95179155631664      -32.56642544850062       -6.53704073685407
C          -16.33689285877085      -27.42045080047490        0.66366095884679
H          -15.36634863717820      -27.41430977751283        0.16764733538096
H          -16.24106968694747      -27.98219675983917        1.59275445086874
H          -16.61198528757865      -26.39779027059562        0.90201113192670
N          -17.29368790697064      -29.31562573220232       -0.66591164150331
H          -16.55216784938291      -29.96528196421978       -0.45938167671731
C          -17.37214629058585      -28.02312273689506       -0.21243584781119
C          -18.38127935475269      -29.54630148648910       -1.43156236239197
H          -18.58798085499828      -30.47582966632545       -1.92129481805374
N          -19.14167412060257      -28.48580601557377       -1.49169794410150
C          -18.53119293738857      -27.52847254627167       -0.74013508388134
H          -18.96498021936761      -26.55602531371855       -0.63150896850895
O          -22.49145774441322      -28.20725445221656       -3.62763601459406
O          -23.14916173648077      -27.10856902123673       -3.64981968948687
