78
 energy: -115.927906829759 gnorm: 0.336520134074 xtb: 6.7.1 (edcfbbe)
Fe          14.39400000000000       29.40900000000000        4.96000000000000
N           14.68400000000000       30.73000000000000        6.43500000000000
N           13.72900000000000       28.08900000000000        6.27800000000000
N           14.31000000000000       28.05100000000000        3.45400000000000
N           15.21800000000000       30.71600000000000        3.65600000000000
C           15.06300000000000       32.06000000000000        6.28700000000000
C           14.94200000000000       32.70200000000000        7.58800000000000
C           14.43900000000000       31.82200000000000        8.45200000000000
C           14.29400000000000       30.55500000000000        7.75200000000000
C           13.46500000000000       28.26600000000000        7.63500000000000
C           12.80500000000000       27.13200000000000        8.18300000000000
C           12.66000000000000       26.24600000000000        7.21300000000000
C           13.23000000000000       26.81900000000000        6.00800000000000
C           13.81800000000000       26.75300000000000        3.57600000000000
C           14.05600000000000       26.02100000000000        2.34200000000000
C           14.57800000000000       26.91000000000000        1.45700000000000
C           14.76800000000000       28.18700000000000        2.19700000000000
C           15.56300000000000       30.47400000000000        2.33900000000000
C           16.21500000000000       31.63000000000000        1.77000000000000
C           16.28300000000000       32.54200000000000        2.76000000000000
C           15.65500000000000       31.99500000000000        3.93800000000000
C           15.58800000000000       32.62800000000000        5.17400000000000
H           15.98100000000000       33.64200000000000        5.25300000000000
C           13.81100000000000       29.40000000000000        8.33900000000000
H           13.69700000000000       29.38500000000000        9.42300000000000
C           13.27200000000000       26.26200000000000        4.74500000000000
H           12.80100000000000       25.28400000000000        4.65800000000000
C           15.29700000000000       29.32200000000000        1.63500000000000
H           15.52000000000000       29.31000000000000        0.56800000000000
C           14.03200000000000       32.04600000000000        9.92500000000000
H           14.04800000000000       33.13300000000000       10.15300000000000
H           14.75000000000000       31.52700000000000       10.59600000000000
H           13.00500000000000       31.65700000000000       10.09400000000000
C           15.27600000000000       34.20300000000000        7.80700000000000
H           14.50700000000000       34.83100000000000        7.30900000000000
H           16.27000000000000       34.43400000000000        7.36700000000000
H           15.27900000000000       34.43200000000000        8.89400000000000
C           12.41500000000000       27.00600000000000        9.72900000000000
H           11.72800000000000       27.83400000000000       10.00700000000000
H           13.33100000000000       27.07300000000000       10.35400000000000
H           11.90200000000000       26.03700000000000        9.90900000000000
C           12.01200000000000       24.86100000000000        7.24000000000000
H           11.14300000000000       24.60300000000000        6.61800000000000
C           12.62200000000000       23.83700000000000        8.17300000000000
H           13.49100000000000       24.09600000000000        8.79500000000000
H           12.20300000000000       22.82200000000000        8.23900000000000
C           13.61100000000000       24.56900000000000        2.10900000000000
H           12.80600000000000       24.30800000000000        2.82800000000000
H           14.47100000000000       23.88300000000000        2.26600000000000
H           13.22000000000000       24.45700000000000        1.07500000000000
C           15.05200000000000       26.70500000000000        0.00600000000000
H           15.25800000000000       27.55100000000000       -0.66600000000000
C           15.22800000000000       25.31300000000000       -0.47600000000000
H           15.02400000000000       24.46200000000000        0.19000000000000
H           15.56500000000000       25.11700000000000       -1.50500000000000
C           16.66400000000000       31.79400000000000        0.30700000000000
H           15.78200000000000       31.70799999999999       -0.36300000000000
H           17.39300000000000       30.99800000000000        0.04700000000000
H           17.12700000000000       32.79400000000000        0.16600000000000
C           16.99300000000000       33.92200000000000        2.72900000000000
H           16.24300000000000       34.72100000000000        2.54800000000000
H           17.74300000000000       33.94000000000000        1.90900000000000
H           17.49200000000000       34.11000000000000        3.70400000000000
O           16.32300000000000       28.43800000000000        5.15300000000000
H           16.28100000000000       27.65700000000000        4.60200000000000
H           17.01800000000000       28.70100000000000        5.64100000000000
C            9.28500000000000       30.58800000000000        2.64500000000000
H            9.20200000000000       31.58200000000000        2.15600000000000
H            8.38000000000000       30.41500000000000        3.26600000000000
H            9.36200000000000       29.80600000000000        1.86000000000000
N           10.72400000000000       31.43300000000000        4.59900000000000
H           10.07300000000000       32.12600000000000        4.90800000000000
C           10.51800000000000       30.55700000000000        3.52000000000000
C           11.91400000000000       31.18000000000000        5.12400000000000
H           12.34000000000000       31.73999999999999        5.95600000000000
N           12.47400000000000       30.17899999999999        4.49800000000000
C           11.62500000000000       29.77000000000000        3.46800000000000
H           11.89600000000000       28.96000000000000        2.80300000000000
78
 energy: -116.016250473337 gnorm: 0.140585217013 xtb: 6.7.1 (edcfbbe)
Fe          14.39680228328858       29.40623425381672        4.95071322102177
N           14.66162590607799       30.73384334737827        6.43796619607855
N           13.69648503382131       28.08442237449852        6.28379575542698
N           14.30279796493193       28.03876852230280        3.44701391157201
N           15.23072980562423       30.71703556591138        3.65119639438254
C           15.06976936846250       32.04467456846358        6.30604837874263
C           14.94008400191248       32.72124640050534        7.58747159288174
C           14.44132830332454       31.82502715063024        8.46667437946109
C           14.29502097529902       30.56810555881355        7.75014495539841
C           13.46846325845317       28.26444600487254        7.63287913265073
C           12.81526634422154       27.11898325911958        8.20748853636510
C           12.65404454790481       26.21377657182692        7.21025621237906
C           13.20909297183137       26.82554508892535        6.00358043558569
C           13.82732279278001       26.75072977083869        3.57439673782669
C           14.03425540924593       26.02393728691782        2.33335100166533
C           14.59645793963318       26.89967707484913        1.43694576147320
C           14.75393243193304       28.17139730928819        2.17904494859353
C           15.55154415463317       30.48528740712488        2.33621533934185
C           16.21197630329960       31.64040677507843        1.76403467255555
C           16.29634313389336       32.55765769170738        2.76201680109552
C           15.66944530734735       31.98585125903874        3.93257239828412
C           15.58743771926815       32.61677319653977        5.16865925199238
H           15.96973165380472       33.63054020544488        5.24552338067527
C           13.81449241779547       29.40704780509492        8.33210129880937
H           13.68699970100281       29.39490743984868        9.40985031335645
C           13.26760384661376       26.25194289405789        4.74363956965577
H           12.80911475194361       25.27235147191310        4.66221866252688
C           15.29153778185329       29.32177524051979        1.63245904445080
H           15.53017718753207       29.31057780093728        0.57617104530008
C           14.03888968854018       32.04407584759482        9.91245224224307
H           14.04838801350676       33.11439500602526       10.14927474974247
H           14.73741905404944       31.53235219049827       10.58651589865175
H           13.02585139726879       31.66076362540505       10.08979567391188
C           15.27053346312178       34.18952505285738        7.80430517756651
H           14.51833465590868       34.82150279430299        7.31456899929348
H           16.25265251284064       34.42763341260842        7.37776663509436
H           15.28153012724328       34.42702448298233        8.87412802833342
C           12.42063353629758       27.00823753509446        9.69890799310540
H           11.74268902443131       27.82183184576585        9.99022469855335
H           13.31558349047581       27.06985247992175       10.33176402718470
H           11.91579428736464       26.05427616564530        9.89270414517472
C           12.06373388119659       24.83731109612892        7.28381314647266
H           11.19676786520938       24.60221883881755        6.65520553429210
C           12.59319648740517       23.88313611348562        8.13431187083648
H           13.45583835967328       24.10953408740583        8.75876307664283
H           12.19663207889285       22.87048416196586        8.21494401759914
C           13.60872489454289       24.58676188424959        2.11594205011513
H           12.81661984003923       24.31156020525050        2.82070841987364
H           14.45350180655296       23.89802711313451        2.26592300530120
H           13.22230775993664       24.46046858849657        1.09659936672842
C           15.04615686846050       26.64519090491338        0.03245888503598
H           15.24761475794486       27.49899676074035       -0.62549049775885
C           15.22064441197780       25.36674892135111       -0.45827818749934
H           15.04279198158160       24.50275744833358        0.17169951278028
H           15.55351264071113       25.15687401762655       -1.47459974696964
C           16.65889294459649       31.78877130784124        0.32355641495073
H           15.79535112000703       31.70798301268414       -0.35013973627798
H           17.38221896269873       31.00930977851991        0.05256110679442
H           17.11950182741931       32.77192889132085        0.17005775751491
C           16.98340442203481       33.91260673179158        2.72897869080813
H           16.25191754237803       34.71125834128616        2.55167831939862
H           17.72929337989823       33.93954623879547        1.92585719790896
H           17.48549268364952       34.10543031390267        3.68433425685251
O           16.31467671987119       28.43839168320422        5.15054386179700
H           16.29883143046102       27.65154289343290        4.60665237435124
H           17.05733103884501       28.69968212454279        5.65887145661817
C            9.29237424968405       30.59210329887126        2.65435926010761
H            9.20028753577847       31.56925096455923        2.16248871319376
H            8.39023824864441       30.41741706777384        3.25445698409297
H            9.36326656742410       29.82003482597098        1.88006401625389
N           10.71249192008297       31.43290999240918        4.58283206468610
H           10.06098811334088       32.13026663007548        4.89606344442916
C           10.51477784811575       30.55979286109885        3.52150319440020
C           11.91223343081241       31.16712460318394        5.11933099839243
H           12.33376101545754       31.72319731765345        5.94419766877659
N           12.48689528650207       30.17133636183063        4.49614815197402
C           11.63048070594672       29.77871649753124        3.48400719973413
H           11.89606682344431       28.97488838485365        2.81975855138821
78
 energy: -116.036964422459 gnorm: 0.082225352234 xtb: 6.7.1 (edcfbbe)
Fe          14.39354020785555       29.40725601327434        4.93831957406692
N           14.64885186755038       30.73753094053865        6.44090381037928
N           13.66154850577832       28.07989676628676        6.28350118404383
N           14.29298110906478       28.02820975069707        3.43930964329643
N           15.24137755297765       30.71423632758865        3.64510678521148
C           15.07036785778049       32.03058909151189        6.31732012240095
C           14.94081523120532       32.73016451552566        7.58318925057866
C           14.44497147780149       31.82534117004173        8.47285366481292
C           14.28957600888272       30.57930202458613        7.74480378266074
C           13.46269654721292       28.26527142550189        7.62110571380824
C           12.83177623245067       27.10603486814347        8.21834509124344
C           12.65718237607580       26.19698282760616        7.20623690923733
C           13.18849920476041       26.83352485598484        5.99663804191787
C           13.82284400783430       26.75251497555396        3.57430697786558
C           14.01260895817803       26.02452939843954        2.33698677539114
C           14.60043650580527       26.89049397192271        1.43462098286599
C           14.74509296305471       28.15536632627656        2.16478695884014
C           15.53940649563357       30.49020142515781        2.33384286694521
C           16.20319837369941       31.64623412267169        1.76072865482864
C           16.30646396362113       32.56379434365073        2.76449845397131
C           15.68464909755355       31.97074641504530        3.93072544474880
C           15.58335589930397       32.60091376886729        5.16345752625097
H           15.95353793899083       33.61519458936230        5.23759853547091
C           13.80440918887713       29.41413105615824        8.31830391414507
H           13.66480521144251       29.40524571312900        9.39107060759163
C           13.25709451494553       26.24100702763900        4.74252800251501
H           12.82484185327479       25.25154220490306        4.67109346481732
C           15.28799437760370       29.31780115022190        1.63311866115606
H           15.54653781996227       29.30750632433807        0.58484385391854
C           14.04841808365206       32.04067313259517        9.89819289026126
H           14.05454526556346       33.10104384551406       10.14210189421162
H           14.73223181750976       31.53076477413001       10.57699876661906
H           13.04341946779963       31.65985597556302       10.08054505032991
C           15.26617099000227       34.17289687131905        7.79939707156061
H           14.52570498963488       34.81144970852222        7.31477635993140
H           16.24227634554236       34.41709750578631        7.38295054054762
H           15.28087129894904       34.41490798101950        8.85984497240793
C           12.43591668315429       27.00357702560529        9.66050922940173
H           11.76218009359638       27.81262586864020        9.95051262193816
H           13.31278562259282       27.06514343296243       10.30747164623716
H           11.93047832923797       26.06079844548044        9.86254579136884
C           12.10218426833816       24.83541610807380        7.31094786300184
H           11.24659199591401       24.61407034125703        6.66932828175266
C           12.58182856073039       23.93123063408678        8.09967608229113
H           13.43629996703523       24.12606582575485        8.73526294188952
H           12.18456735170025       22.92696370602457        8.19016635152426
C           13.60064749943005       24.60308775483076        2.12464956445057
H           12.81893785945789       24.31835338180336        2.82392471527766
H           14.44080718665800       23.91857155865696        2.26917796994801
H           13.21793115101363       24.46709555323262        1.11368271785521
C           15.03418432559601       26.61184631130250        0.06951658159277
H           15.23217076945670       27.47345569876265       -0.57036248308588
C           15.21942387784984       25.41109815758299       -0.42759900135398
H           15.06794060163605       24.52222423081712        0.16164645267957
H           15.53742060385644       25.21341987682856       -1.44310356883787
C           16.65083923264857       31.78376210043366        0.34012789986819
H           15.79965805502653       31.70317706372289       -0.33728653116232
H           17.37080951730202       31.01159485681017        0.06825810535305
H           17.11396254828549       32.75542338808371        0.17892555838875
C           16.97406663744129       33.90056965055236        2.73000621047535
H           16.25232167113683       34.69965582718014        2.55634168433769
H           17.71606372933228       33.93655972781144        1.93480204673737
H           17.47990375390428       34.10029170155227        3.67272101124470
O           16.31821870236193       28.44500432919013        5.16584055545927
H           16.34265047468729       27.65200043240296        4.62628017844173
H           17.09139354022819       28.68806951279761        5.66872371916235
C            9.30093141439881       30.59382970558771        2.66281560652532
H            9.20315572649911       31.56196967603853        2.17101968699314
H            8.40069239521038       30.41890132464672        3.25152536408478
H            9.36979103295741       29.82656496759418        1.89702711179546
N           10.70495143603804       31.43342607012751        4.56815500945185
H           10.05367711467623       32.13389133475548        4.88258156777174
C           10.51569982661385       30.56242812497004        3.52243293053131
C           11.90835834400148       31.15899863672452        5.11696200536268
H           12.32310280334436       31.70789450101579        5.93929731038473
N           12.49389524580971       30.16732855046792        4.49622327550814
C           11.63865373382131       29.78590518052712        3.49735933451445
H           11.89680670918961       28.98545624023019        2.83395379998898
78
 energy: -116.043920207578 gnorm: 0.022547590955 xtb: 6.7.1 (edcfbbe)
Fe          14.39865549146115       29.40809147797480        4.93186428494612
N           14.63767215003288       30.74011007224759        6.43645645583838
N           13.63643074489212       28.09126508512937        6.26965603821305
N           14.27415792573701       28.02992187990381        3.44100037138477
N           15.24645641981285       30.70684489401059        3.64468388059081
C           15.06940018646012       32.02547340833367        6.31496614234433
C           14.94018965567194       32.72838949370400        7.57623207154780
C           14.44459745818541       31.82530756081499        8.46741743830205
C           14.27668091923758       30.58552674645155        7.73732108276937
C           13.45353962809032       28.27505821233417        7.60566408753598
C           12.84461810939833       27.10762944226535        8.20631263113819
C           12.66478699274859       26.20717502613632        7.19231591841285
C           13.17538829586242       26.84520309130703        5.98449150551906
C           13.80539127559010       26.75656347271416        3.57855043917665
C           13.99026351971772       26.02560010083433        2.34979897288975
C           14.58665396550463       26.88869165349993        1.45503810999316
C           14.73142778086908       28.15279424355302        2.16808654415412
C           15.53132608689226       30.48609898894544        2.33335714204151
C           16.19480521245027       31.64205713924291        1.76207656806863
C           16.30765311457057       32.55665930491437        2.76595137101387
C           15.69299654115841       31.95860629941200        3.93198862866110
C           15.58465874130334       32.59028037455715        5.16016765810355
H           15.94090144154118       33.60818482393756        5.22831162287486
C           13.78572538195994       29.42296181359150        8.30527100583133
H           13.62777868383870       29.41910653777427        9.37458753976264
C           13.24580747749060       26.23694162670805        4.74212246485391
H           12.84697367929783       25.23052779604360        4.68398417579789
C           15.28171534903501       29.31217331803400        1.63699778744698
H           15.56390754550001       29.29561841033599        0.59400403875684
C           14.05731729727750       32.03610599074921        9.89161934452763
H           14.06644476401144       33.09454959158194       10.13897477942184
H           14.73831039616994       31.52081526095513       10.56809095199889
H           13.05327484321009       31.65584081017511       10.07335445589797
C           15.26713244998366       34.16577958267581        7.79304828503005
H           14.53026107499169       34.80652859692388        7.30713351789207
H           16.24465510832353       34.40762658267258        7.38152131732210
H           15.27966741849979       34.40459794253433        8.85310326831228
C           12.44935723377144       26.99821899826955        9.63688269849932
H           11.77572222980676       27.81026906515967        9.91351070105065
H           13.32266638161670       27.05818620106429       10.28668607628862
H           11.94320945439573       26.05505528190993        9.82661521799449
C           12.11362430187436       24.85923234968300        7.28448045453521
H           11.26817858516919       24.64115161057898        6.63741984974925
C           12.57880364329532       23.93081590472522        8.11513987818341
H           13.43684206804313       24.11788151450296        8.74358041419609
H           12.16688722241373       22.93605265233642        8.18434580824749
C           13.57946533469050       24.60961827094503        2.13868216309281
H           12.80339990173535       24.32096516039149        2.84116753662647
H           14.42436046162446       23.93246801256616        2.27878979801989
H           13.19493094038061       24.47355293442699        1.12991508110546
C           15.02188089957652       26.62071468834163        0.10418603976996
H           15.20753122178461       27.49154373531731       -0.51751268392151
C           15.22854180222553       25.41912476169608       -0.43038101872768
H           15.12594409952186       24.50949367136412        0.14073341807445
H           15.54106171064358       25.27242512645320       -1.45247088432821
C           16.64387001195477       31.77415563092031        0.34701585284143
H           15.79530763075887       31.69258905311171       -0.33160383666748
H           17.36250173922368       30.99936525088287        0.08360029621161
H           17.11107607206349       32.74227401009434        0.18534568643799
C           16.96666128691384       33.89388268568305        2.73051473591517
H           16.24137226290224       34.69024813527329        2.56222624705785
H           17.70451628372108       33.93516504268445        1.93307891761848
H           17.47728202577785       34.09518712395877        3.66932564311414
O           16.34442708255130       28.44689884628157        5.20184145731135
H           16.40261313961312       27.65809725061293        4.65502269786440
H           17.12923308083708       28.69102119729027        5.69072324260897
C            9.30894295838627       30.59245894040917        2.66743593597987
H            9.20837907242380       31.55925320597259        2.17526941380161
H            8.40928953421191       30.41764800332877        3.25565575422931
H            9.37928303356107       29.82360586683353        1.90587463125090
N           10.70633552755143       31.43590564909087        4.56347132706349
H           10.05331164780485       32.13846343891171        4.87067859089389
C           10.52279424967886       30.56260418556553        3.52330156168118
C           11.90637044839230       31.15823469137778        5.12162617203220
H           12.31320686975365       31.70012227256096        5.94952035887079
N           12.49869314164956       30.16889533412253        4.50216752179911
C           11.64750257085613       29.78750405371727        3.50430668949907
H           11.90399971006465       28.98694353860387        2.84330865575569
78
 energy: -116.047138196178 gnorm: 0.020871078468 xtb: 6.7.1 (edcfbbe)
Fe          14.39604200418960       29.41108266934138        4.92935757906060
N           14.62895887415470       30.74331788426996        6.43119509281042
N           13.61635659106784       28.10108683332773        6.25393905281308
N           14.26432387543490       28.03146691537982        3.45218982659839
N           15.24897848245744       30.69606823582391        3.64917001598330
C           15.06512794655237       32.02348136014220        6.31022999689297
C           14.94063897786382       32.72613616191492        7.56881971901122
C           14.44042096595800       31.82592658882968        8.45973431829634
C           14.26022495516891       30.59139673126160        7.72885060850288
C           13.44130230595833       28.28441650350042        7.58699426791032
C           12.85867897640193       27.10730163961366        8.19169577207962
C           12.67607979093904       26.21094399468420        7.17914540974948
C           13.16440092398626       26.85441629510874        5.97275508978145
C           13.78809922674151       26.76196618250078        3.58529078660750
C           13.97129331163839       26.02649326055698        2.36478303395924
C           14.57594717549929       26.88704962341087        1.47606160320578
C           14.72483681069535       28.14820598421266        2.17931377318596
C           15.52777121180160       30.47649019714843        2.33843083819889
C           16.18515501568340       31.63337173700543        1.76426579586645
C           16.30584721542010       32.54566114870832        2.76702210634233
C           15.69582178458724       31.94651077388478        3.93383564079649
C           15.58156595519710       32.58365337318263        5.15548619268475
H           15.93024571551297       33.60350171731729        5.21809803628207
C           13.75681351824358       29.43276242958937        8.28984842832337
H           13.57843482288401       29.43224902321585        9.35554660343700
C           13.23556887286657       26.23109536157589        4.74295652047605
H           12.86460277785866       25.21379518812680        4.69711493773501
C           15.28259624502279       29.30166379731077        1.64721217687586
H           15.58011276646674       29.28042045823060        0.60821983291498
C           14.06557035263347       32.03073319008324        9.88717893466155
H           14.08396621555322       33.08792896377745       10.14132965446132
H           14.74897096362825       31.50533410866855       10.55475400457495
H           13.06024316960097       31.65351065998111       10.07231050227250
C           15.27450126873613       34.16109359750129        7.78631996104385
H           14.54175737413669       34.80435160925391        7.29582149349748
H           16.25563430634373       34.39891505514561        7.37912531784129
H           15.28074720382219       34.39781943423783        8.84752771703254
C           12.46354689763295       26.99075061564990        9.62028629912131
H           11.78839022549539       27.80356489991809        9.89224304467818
H           13.33429951107534       27.04733846679786       10.27407266957965
H           11.95778726665970       26.04434343187553        9.79657067294073
C           12.12771046240583       24.86982148954912        7.26452947468543
H           11.30388278095511       24.63948987201062        6.59905191329021
C           12.58740920066056       23.94038249604338        8.09820761772022
H           13.41504031998528       24.13967826311579        8.75905619885006
H           12.14211809896216       22.96232531964434        8.16940542035145
C           13.55995865047592       24.61380986364784        2.14775274747603
H           12.78277450641127       24.32166579444728        2.84908850096923
H           14.40690677357535       23.93953333690561        2.28733262701101
H           13.18125663915130       24.48104289033871        1.13591663196652
C           15.00828881172247       26.63343832505336        0.12791750423220
H           15.16739369296105       27.51200605228737       -0.48616638304837
C           15.24924809492086       25.43615995793141       -0.42025795317724
H           15.14619639459448       24.51315979241691        0.12336478021271
H           15.55174357266995       25.33779002099489       -1.45137692317214
C           16.63452002735446       31.75878088860279        0.35008000122525
H           15.78788879471411       31.67367190326284       -0.33093616184341
H           17.35263388449556       30.97906007391166        0.09702852149162
H           17.10557663222170       32.72502165617365        0.18525770567670
C           16.95746706128269       33.88618931610006        2.73019685483289
H           16.22325685749543       34.67711145717864        2.56953281706608
H           17.68902383135349       33.93543686121767        1.92610988571591
H           17.47332467954221       34.08933689803003        3.66681592219506
O           16.36261584657285       28.43915345766246        5.26343686858561
H           16.48101281950026       27.67582367911671        4.68194695096516
H           17.17254069974726       28.70519328333880        5.70499935385276
C            9.31800219192738       30.58813021970616        2.66968370626333