78
 energy: -116.058024930242 gnorm: 0.000065413531 xtb: 6.7.1 (edcfbbe)
Fe          14.43940367376016       29.37203551617415        5.00300375283061
N           14.57657172219325       30.74204323498314        6.44110630322624
N           13.66459000484228       28.06600700380658        6.29919385850978
N           14.36467520642000       27.97652426797726        3.54923835345144
N           15.27069543582679       30.66024905318698        3.70169151734324
C           15.04015888715141       32.01270306840005        6.32344456983067
C           14.97684372544475       32.70203819233178        7.59479515670168
C           14.46371826024559       31.81277886814769        8.48498085315427
C           14.21608020270662       30.59459099674504        7.74311124767518
C           13.41292947422175       28.27957854523940        7.61836994121590
C           12.83738059733665       27.10825620791125        8.22900150361085
C           12.74420043985367       26.16597828506579        7.23985726227157
C           13.26154070069222       26.79577222266682        6.03921474937909
C           13.85883513690841       26.71601323190971        3.65806481161449
C           13.94813779901912       26.01847381446494        2.40229670577874
C           14.52416228432269       26.89105124086964        1.51579196013534
C           14.76077693571118       28.11394148618707        2.25618861832893
C           15.55023836588145       30.43586114805905        2.38834251600068
C           16.10665379786278       31.62073711455742        1.77481687222293
C           16.14629692873568       32.57107050595075        2.74756201262314
C           15.62034415711993       31.95206882348004        3.94310868145489
C           15.51699389136398       32.59224878225162        5.16298593804475
H           15.84230213548613       33.61992121532145        5.21502878847192
C           13.67367229226829       29.45511780995005        8.30193878973909
H           13.44279889945327       29.48070561058050        9.35611585002647
C           13.35101565058991       26.15773925440151        4.81788010730321
H           13.00792490312385       25.13601339116313        4.76385355522559
C           15.33208470066626       29.25014847517290        1.71105492295006
H           15.61550948650658       29.21641339435182        0.67029458204434
C           14.18781900551674       31.98269762808272        9.93978715003246
H           14.46758991196495       32.97913894103237       10.27273585081076
H           14.75275768962441       31.25517419743568       10.52255505543026
H           13.12811131059564       31.83569795110753       10.15153578591300
C           15.41384443480368       34.11041480479347        7.81053930428219
H           14.85087207040033       34.78953952991859        7.16973751337778
H           16.47223732208800       34.22275932162643        7.57466069434558
H           15.26054826063865       34.40923033680065        8.84461119093503
C           12.38357857496720       27.01269163525348        9.64402572105944
H           11.93368778373600       27.94926087569479        9.97069973966234
H           13.22229525034836       26.79321887421727       10.30646527589077
H           11.64757164750602       26.21779130343144        9.74721303262228
C           12.22091408578228       24.81948733628671        7.30598532147575
H           11.72293818977188       24.46587938523727        6.41030084508861
C           12.31190447575466       24.00681165806758        8.35380223434689
H           12.83711781585639       24.28520142349440        9.25055323866743
H           11.88556486054755       23.01738987554462        8.33797122487827
C           13.43608957764145       24.64414315246470        2.14686304270679
H           12.50106438543721       24.47704156330147        2.67939361817825
H           14.15319292011243       23.89223729234701        2.48080657309635
H           13.26080185332268       24.50282610264104        1.08229280025959
C           14.83061401709990       26.70293733002849        0.11505581249199
H           14.73663828803942       27.58498739986217       -0.50812092760627
C           15.21781580515707       25.56049102986166       -0.44297846074963
H           15.37481737587087       24.66539669555977        0.13316479267533
H           15.41742407505492       25.48888469927429       -1.49931984989307
C           16.52775771394778       31.71024205264919        0.34792362396375
H           15.67986924976856       31.53320664638968       -0.31455406565531
H           17.29152483384288       30.96478310991333        0.12475439336308
H           16.93471501019987       32.69366682049297        0.12610353681902
C           16.62456493834393       33.98031942200294        2.67177898318773
H           15.82239825511058       34.67093045994536        2.93258320889079
H           16.96946560979629       34.21904025410111        1.66868925571546
H           17.44928551143851       34.14320521534430        3.36608862947668
O           16.56534216353194       28.61273783029234        5.41161349686628
H           16.53411567590793       27.75901806417877        4.96643793538593
H           17.06390843952209       29.21039865908463        4.84374306012824
C            9.86142215067689       31.04110743077064        2.29458624737354
H            9.52460021044722       32.06828390533060        2.43382144660623
H            8.98864216470968       30.38899440790734        2.32634340544904
H           10.32363241737256       30.95575574889942        1.31621845909017
N           10.53932474662069       30.68333910426935        4.67870125689262
H            9.65357979561416       30.94911448603259        5.07677369657181
C           10.84211458575783       30.66078882981354        3.34247925351740
C           11.63968472804930       30.28356692132037        5.35527558225570
H           11.69416905785459       30.20481148509335        6.42170141992653
N           12.61996113222289       30.00951368832243        4.52887728647253
C           12.13910430251210       30.23966935279884        3.27358270214694
H           12.75347062336466       30.08809500041633        2.41080682438674
