78
 energy: -115.966853602618 gnorm: 0.264680822047 xtb: 6.7.1 (edcfbbe)
Fe          27.79700000000000       90.75200000000000       52.13699999999999
N           28.78800000000000       92.40800000000000       51.48200000000000
N           28.89500000000000       90.77500000000001       53.85200000000000
N           26.79300000000000       89.10800000000000       52.79099999999999
N           26.56300000000000       90.84800000000000       50.44299999999999
C           28.54600000000000       93.08499999999998       50.29999999999999
C           29.34200000000000       94.28900000000000       50.31500000000000
C           30.02700000000000       94.32800000000000       51.46200000000000
C           29.69400000000000       93.14299999999999       52.21900000000000
C           29.89400000000000       91.67299999999999       54.15900000000000
C           30.57200000000000       91.20099999999998       55.34499999999999
C           29.97500000000000       90.06900000000000       55.73799999999999
C           28.92000000000000       89.77100000000000       54.79300000000000
C           27.02300000000000       88.44399999999999       53.97800000000000
C           26.00000000000000       87.42900000000000       54.12800000000000
C           25.17000000000000       87.52000000000000       53.07599999999999
C           25.66700000000000       88.56500000000000       52.21299999999999
C           25.59100000000000       89.89500000000000       50.15999999999999
C           25.12500000000000       90.08600000000000       48.80600000000000
C           25.92500000000000       91.26000000000001       48.26299999999999
C           26.79300000000000       91.66799999999999       49.34399999999999
C           27.69800000000000       92.70000000000000       49.28600000000000
H           27.74900000000000       93.26400000000000       48.35500000000000
C           30.20200000000000       92.81399999999999       53.45199999999999
H           30.90500000000000       93.51200000000000       53.90699999999999
C           28.06400000000000       88.69100000000000       54.84399999999999
H           28.22700000000000       87.96700000000000       55.64299999999999
C           25.10500000000000       88.94199999999999       51.02000000000000
H           24.18500000000000       88.43700000000000       50.72699999999999
C           31.01200000000000       95.43199999999999       51.90800000000000
H           30.56700000000000       96.00900000000000       52.74699999999999
H           31.21000000000000       96.12299999999999       51.06100000000000
H           31.96200000000000       94.97100000000000       52.25200000000000
C           29.37300000000000       95.34699999999999       49.19900000000000
H           28.46100000000000       95.25100000000000       48.57200000000000
H           30.26800000000000       95.19199999999999       48.56000000000000
H           29.39699999999999       96.36400000000000       49.64600000000000
C           31.75300000000000       91.92499999999998       56.02099999999999
H           31.87600000000000       92.93300000000001       55.57100000000000
H           32.68800000000000       91.34500000000000       55.86599999999999
H           31.55200000000000       92.03700000000001       57.10800000000000
C           30.35100000000000       89.18400000000000       56.94100000000000
H           29.62300000000000       88.48500000000000       57.37800000000000
C           31.58100000000000       89.25599999999999       57.47400000000000
H           32.33000000000000       89.94599999999998       57.05800000000000
H           31.85500000000000       88.62600000000000       58.33300000000000
C           25.90100000000000       86.47099999999999       55.33600000000000
H           26.46400000000000       86.89600000000000       56.19400000000000
H           26.33900000000000       85.48500000000000       55.07000000000000
H           24.83700000000000       86.34699999999998       55.63000000000000
C           23.92300000000000       86.67200000000000       52.73400000000000
H           23.16100000000000       87.06100000000001       52.04199999999999
C           23.73700000000000       85.45699999999999       53.26199999999999
H           24.47500000000000       85.03199999999998       53.95800000000000
H           22.84400000000000       84.86799999999999       53.00700000000000
C           24.05200000000000       89.27000000000000       48.05600000000000
H           23.05200000000000       89.48300000000000       48.49100000000000
H           24.26599999999999       88.18500000000000       48.15900000000000
H           24.04600000000000       89.55600000000000       46.98199999999999
C           25.82600000000000       91.87700000000000       46.85000000000000
H           24.85500000000000       91.59600000000000       46.39000000000000
H           26.65100000000000       91.49200000000000       46.21399999999999
H           25.88500000000000       92.98399999999999       46.91899999999999
O           26.47300000000000       92.06800000000000       53.17200000000000
H           26.68000000000000       92.94900000000000       52.86100000000000
H           25.85200000000000       91.85400000000000       53.77100000000000
C           30.30100000000000       86.98900000000000       48.82000000000000
H           30.57500000000000       86.01900000000001       49.28600000000000
H           31.14900000000000       87.34099999999999       48.19500000000000
H           29.39900000000000       86.84299999999999       48.18800000000000
N           30.93400000000000       88.37300000000000       50.83400000000000
H           31.86700000000000       88.01800000000000       50.89300000000000
C           30.01100000000000       87.99100000000000       49.88900000000000
C           30.39000000000000       89.27300000000000       51.63800000000000
H           30.90200000000000       89.74400000000000       52.47600000000000
N           29.14600000000000       89.48399999999998       51.24299999999999
C           28.88200000000000       88.69599999999998       50.15200000000000
H           27.91500000000000       88.70999999999999       49.66500000000000
78
 energy: -116.023650708470 gnorm: 0.108764587501 xtb: 6.7.1 (edcfbbe)
Fe          27.80211933559672       90.74406998416175       52.13693004070481
N           28.77002500429358       92.41250996509325       51.48977809944060
N           28.90962666748121       90.75680853134142       53.84201347485590
N           26.77624671164004       89.12483604895579       52.79917373604194
N           26.58750388024916       90.82934934190479       50.44329512159575
C           28.54654240742474       93.08155108394453       50.30942197054784
C           29.34274380758502       94.29450640217327       50.30019061561107
C           30.03511987064732       94.33612848876102       51.46253000970294
C           29.67982942591202       93.14567016273041       52.20940959016621
C           29.89094235424373       91.65645686801226       54.16441960190625
C           30.57742574504492       91.20928325738535       55.35845276678800
C           29.98366352393978       90.04833970255874       55.75351343008781
C           28.92661766951369       89.77289279393455       54.79290436606635
C           27.01326623643680       88.43927787527169       53.96214598761335
C           25.99538002812180       87.41767404208461       54.13312000502613
C           25.15218815754162       87.50685509933815       53.06591890988896
C           25.66053118779952       88.57709973720051       52.22173460870964
C           25.60005210556041       89.92522572872625       50.13833254353915
C           25.14155174060778       90.12762493991322       48.78422322055142
C           25.89856448542868       91.22536425156984       48.27388289169790
C           26.78099848471841       91.63044882162853       49.34414117402948
C           27.69076531433416       92.68274847273076       49.29324600584427
H           27.73494247465830       93.25373328647829       48.36994302036515
C           30.19340402882353       92.80566990557629       53.44756814368044
H           30.90231449371771       93.49818777275446       53.89164564209465
C           28.06121725247849       88.69213418401577       54.83674617631574
H           28.21608460969179       87.98019372724573       55.64128104734322
C           25.11026939151833       88.95611624381301       51.01077825397375
H           24.20609452364376       88.43641317287342       50.70972787248435
C           31.00008154682131       95.41742767603674       51.90820292310643
H           30.57342706818931       95.99665281830032       52.73642736318737
H           31.20728164377038       96.10259518560056       51.07990511801934
H           31.94449587491987       94.97693353513627       52.24530652319015
C           29.36794501748726       95.33534086133675       49.20371533786794
H           28.47435093641988       95.25550863308273       48.57846776461448
H           30.25196523987182       95.19626970853362       48.57007461638363
H           29.39784558758838       96.34216590842254       49.63514908373487
C           31.73773093434546       91.93209100080685       56.00872017489558
H           31.87090764372815       92.92711206313561       55.57788800704901
H           32.67145225243605       91.37638331409346       55.85451810013026
H           31.55766068300848       92.03517403424794       57.08553935649682
C           30.35828960364585       89.19906075329193       56.92235734429565
H           29.62244625927033       88.51308339798662       57.34101825658832
C           31.56960423179755       89.25012384158127       57.47435760403715
H           32.33101557916022       89.90449896470498       57.08204257039540
H           31.84049147024188       88.62987667003017       58.32193986528123
C           25.90551019890680       86.48679649516876       55.32647774553520
H           26.45643424220758       86.89306266348450       56.18018704498298
H           26.33311847881080       85.50700948560927       55.07749882076234
H           24.85934296958776       86.35270271723176       55.62376238212502
C           23.94753669087699       86.67724478703433       52.75043838817112
H           23.20316284204305       87.07674881405114       52.06081486966114
C           23.74255161008956       85.46611560071742       53.26203750134811
H           24.45770443490125       85.01956632874584       53.93783845316023
H           22.86084669848324       84.88357206287552       53.01020997223162
C           24.08186209827669       89.30114637251255       48.07024835406965
H           23.08169079711771       89.48791271320212       48.48783089110636
H           24.27485389994930       88.22273982129626       48.16158689943681
H           24.05185677704291       89.55297231233223       47.00482242256426
C           25.81962680017072       91.85211307613645       46.88845287995338
H           24.87075267948842       91.59693047902216       46.40415776930303
H           26.63345459408147       91.49571220333436       46.24060827218842
H           25.88519581107240       92.94787966934672       46.93343924775640
O           26.47564002291436       92.07525382426721       53.15391658110291
H           26.66453650600212       92.96834817061897       52.87193269903017
H           25.82215095146354       91.86489715359787       53.79503088252719
C           30.30544369877450       86.98572520800823       48.82209119350213
H           30.57546329599556       86.02345895163758       49.27192386648130
H           31.13765241747398       87.32734415938027       48.19595587890203
H           29.41853967186999       86.84611187912084       48.19802792179163
N           30.93972555892484       88.36213019443504       50.82279142759242
H           31.87736542146427       88.00663746035295       50.88608177058956
C           30.01514437606329       87.98502347681948       49.88389227547420
C           30.37838916342153       89.27479397042515       51.62849521438883
H           30.88338050581056       89.74026452075910       52.45887001235572
N           29.13959236939778       89.49899160442268       51.24643772694590
C           28.89084569950310       88.70286587390132       50.16332698530651
H           27.93160622645872       88.71445969164569       49.67871531370645
78
 energy: -116.040719491425 gnorm: 0.038552935230 xtb: 6.7.1 (edcfbbe)
Fe          27.80443428355479       90.73598965033064       52.13307212378852
N           28.75382447176868       92.41120956584730       51.49402753967729
N           28.91962367252212       90.74041298240547       53.82872835661394
N           26.76402214647710       89.14140021961958       52.80473720630236
N           26.61410089431277       90.80643124489812       50.44331319975536
C           28.54153731414894       93.07421026252726       50.31947750858387
C           29.33643468032193       94.29121557797176       50.29105121636179
C           30.03291429911225       94.33439517008806       51.46265617955243
C           29.66228283894859       93.14245475487643       52.20156685764724
C           29.88743359540592       91.64023373698251       54.15957418295886
C           30.57959134772468       91.21631585689856       55.35674375431485
C           29.99215506390236       90.03542924827106       55.75393971953213
C           28.93507829344503       89.77160416389587       54.78363069442611
C           27.00421839169939       88.44642307126428       53.95163121517840
C           25.99999111071504       87.41617680076504       54.13396683870887
C           25.14618823672495       87.50332829603585       53.05844557872087
C           25.65708866862780       88.59335467665834       52.23017460853640
C           25.61716815780472       89.93717006354873       50.12975460885725
C           25.15844429313263       90.16149548867000       48.77339912543371
C           25.88043187561766       91.19567005396506       48.28924006806978
C           26.78426664746060       91.59867360214420       49.35032951604436
C           27.68473118410041       92.66515246918642       49.30286286164714
H           27.71543966871379       93.24340041351006       48.38753524187278
C           30.18418332707417       92.79338851330807       53.43797963804175
H           30.90171650836921       93.47887729673712       53.87002116626394
C           28.05734861006735       88.69745539101835       54.82962936502410
H           28.19927776494544       87.99707861145238       55.64183576856601
C           25.12163035591414       88.96428520503180       51.00344125213472
H           24.23573793327441       88.42920399231602       50.68572120876696
C           30.98571739332415       95.39659447818035       51.90786997187890
H           30.57042898866588       95.97655185539988       52.73257273547423
H           31.19965147618937       96.08066056537619       51.09049618680000
H           31.92802792853849       94.96713488449024       52.24237054795341
C           29.36177736233018       95.31857750992170       49.20704357197092
H           28.47851712904970       95.25106354851090       48.58062200715580
H           30.24097500340172       95.19139133616672       48.57488187969006
H           29.39783907664157       96.32024367396032       49.63192101919848
C           31.71924100679029       91.93984185598575       55.99430838945231
H           31.84735965394222       92.93263602593566       55.57777580443359
H           32.65587226421683       91.40252122815342       55.83660300037834
H           31.55769240911808       92.03085857944659       57.06834466995407
C           30.35809980805446       89.21677695992810       56.89231518190144
H           29.60816241632932       88.54175660694149       57.28951915233598
C           31.55721337902288       89.23929374965942       57.47189761161368
H           32.34524917469714       89.86398969683634       57.10510361205888
H           31.80860718404539       88.62405144778667       58.31849371268903
C           25.91287101604545       86.50430087966053       55.31359268177501
H           26.45588023682020       86.90501989034001       56.16451279219200
H           26.33502986895307       85.52559758173814       55.07943699266801
H           24.87470343809911       86.36350803269484       55.61055491444429
C           23.98302157908214       86.69101221367099       52.76264519538216
H           23.25280365867584       87.10667622826051       52.07674783208935
C           23.75235992721987       85.47691147439244       53.25874339935198
H           24.44744623676497       84.99763648127528       53.91971236417051
H           22.87008103055613       84.91027411866067       53.00891014854479
C           24.10966164935280       89.33587375413119       48.08371382247444
H           23.11593597654257       89.51234170490677       48.50299081181221
H           24.30828905216219       88.26612361025735       48.17977152886323
H           24.06762497003658       89.56799145945014       47.02177783021200
C           25.81326500049522       91.82712556315565       46.92750333787419
H           24.87599062145566       91.58424016053750       46.43051043856754
H           26.62739984080021       91.48268836598362       46.28394532469657
H           25.88530250949475       92.91470414232674       46.97702073595873
O           26.45282946905121       92.07952358985376       53.12714976013020
H           26.63213715515117       92.99593281862273       52.90719904463505
H           25.81008252599549       91.89005800081932       53.81132321535592
C           30.30696665963153       86.98224210258948       48.82286126422248
H           30.57659209307599       86.02413964478309       49.26325734523849
H           31.13154151222910       87.31719719485896       48.19603538981188
H           29.42854367383730       86.84652570506411       48.20241277822532
N           30.94429138984146       88.35543352295090       50.81514378918133
H           31.88414349448478       88.00024888221508       50.88311177737224
C           30.01688270934285       87.98112317728626       49.88072043392156
C           30.37101673619036       89.27836768170457       51.61902336171409
H           30.87177334947956       89.74117449677043       52.44342630430137
N           29.13496864356062       89.50991441894732       51.24901631454043
C           28.89818511839908       88.70906648484441       50.17081450190020
H           27.94465156692829       88.71464623434295       49.68578891205114
78
 energy: -116.046393303764 gnorm: 0.026246476436 xtb: 6.7.1 (edcfbbe)
Fe          27.80071423397805       90.73771420349823       52.13112120669069
N           28.74317188198629       92.40754640400247       51.49387337861832
N           28.92352561246643       90.73430809323547       53.81477656057307
N           26.76248851903111       89.15620901955198       52.80946966302228
N           26.63708024851174       90.78719229294079       50.44415629359842
C           28.53712649116665       93.06838770477988       50.32207049092582
C           29.32871853610972       94.28363651527120       50.28823568410738
C           30.02424057265234       94.32628352030893       51.46014882930543
C           29.65164251335643       93.13732795144909       52.19668741290600
C           29.88754213675125       91.63506793780290       54.14516894843938
C           30.58294568507337       91.22089113887232       55.33841973536288
C           30.00393906181871       90.03438396698776       55.73530913900129
C           28.94326863928348       89.77078548885366       54.77099016396080
C           27.00704427666928       88.45903025694629       53.95181361311790
C           26.01497172797654       87.42422383238589       54.13481850711082
C           25.16044232602898       87.50721503668507       53.05941013889897
C           25.66319236999114       88.60126710178110       52.23595360635110
C           25.63214589764038       89.92743798034391       50.13965858135394
C           25.16119194209793       90.15892819729129       48.78776642173180
C           25.89275592666375       91.19386976718364       48.29843417553769
C           26.80327513570782       91.58606148552229       49.35812105260543
C           27.68634679379547       92.65699048353844       49.30629338606607
H           27.69972394017491       93.24116193282660       48.39603789827808
C           30.18143617326333       92.78688680053435       53.42584006094293
H           30.91013232006645       93.46477449451557       53.84767865926902
C           28.05939315903468       88.70511166873816       54.82809058367747
H           28.18791428585183       88.01345174439591       55.64894445834010
C           25.13393062809488       88.95854243574573       51.00448199212933
H           24.26485692718058       88.40774106429684       50.66783741945711
C           30.97723108672879       95.38021270875177       51.91111397676658
H           30.56231434927605       95.95633422842847       52.73894048695742
H           31.19410497001226       96.06578486651352       51.09604382251027
H           31.91760801228440       94.94540445814742       52.24457272521176
C           29.35516101725243       95.30580015417078       49.20285674373220
H           28.47224357804637       95.24156606700558       48.57496853992001
H           30.23461692201614       95.17778990418454       48.57092457348685
H           29.39492173920558       96.30709439524351       49.62841578455059
C           31.70792726726241       91.96107886473668       55.97518307789984
H           31.80533840905200       92.96574965562863       55.57581212909447
H           32.65757318644425       91.45253679748073       55.79357570847827
H           31.55766359186258       92.02548729253246       57.05381730041068
C           30.35201078382100       89.21791334100070       56.87213116147198
H           29.57959743539042       88.55487180885210       57.24675166588835
C           31.53869289319621       89.21025222883149       57.48383356093856
H           32.36677471309628       89.80092043793985       57.13661997355319
H           31.74965015170616       88.58702138793528       58.33587013084617
C           25.92504159230964       86.51792991169351       55.31239865580290
H           26.46266090098839       86.92468927991924       56.16397207833301
H           26.34913820285220       85.53892558213394       55.08380224401342
H           24.88445471201409       86.37587004951311       55.60051717492644
C           24.00236456906102       86.70200939803892       52.76675055561162
H           23.28150278264609       87.13516529925924       52.08287849881054
C           23.75391326899196       85.48498716000823       53.25064578655419
H           24.44535643033515       84.97232916546761       53.89458037603113
H           22.86184302074744       84.93859166095162       52.99486163153106
C           24.11552134626628       89.34692561305867       48.09912777225361
H           23.12936316608666       89.53096796511164       48.52667976377369
H           24.32892213836124       88.28287470262832       48.19926690210874
H           24.07742016850441       89.58380598415779       47.03897929096918
C           25.81855376980003       91.82273834251427       46.94674843358702
H           24.88088038998039       91.57493073368985       46.45497354095909
H           26.63596195173218       91.47452779020711       46.31289343817502
H           25.88866704014981       92.90691540716746       47.01319842040090
O           26.39011076256546       92.08783403919236       53.08212526230643
H           26.61279413845026       93.02602945952088       52.96076847578873
H           25.80892210222624       91.91499423705136       53.83731788916531
C           30.30725150360307       86.97931813840951       48.82323388130778
H           30.57779886230808       86.02007210828067       49.26115492953947
H           31.13134188137987       87.31117964489179       48.19363107995615
H           29.42907287315297       86.84372609811452       48.20241104496226
N           30.94659566412381       88.35677840586591       50.81202861768198
H           31.88644604197116       88.00131252518895       50.88202021701702
C           30.01726875822321       87.98031179665466       49.88001770755610
C           30.37138593673762       89.28384678898301       51.61270302416638
H           30.87213198615838       89.74946928151887       52.43436139611487
N           29.13445001177897       89.51563702482650       51.24669522067387
C           28.90024010451127       88.71036752322171       50.17114481146354
H           27.94803585290610       88.71069176508928       49.68507245536139
78
 energy: -116.048790332793 gnorm: 0.050386784405 xtb: 6.7.1 (edcfbbe)
Fe          27.79538455857328       90.74133097963707       52.12663735821845
N           28.73082685568207       92.40200947269560       51.49161278675057
N           28.91635671637563       90.73893521289328       53.80234974698094
N           26.76698361840439       89.17177685673778       52.81075413741806
N           26.66447957145091       90.76838004766947       50.45409292320149
C           28.53034654379417       93.06301688389358       50.32252997563180
C           29.31936285091766       94.27489853957668       50.28424133042752
C           30.01388223683742       94.31649630020978       51.45484437429454
C           29.64129167581269       93.13123124119467       52.18975346476542
C           29.88709109352729       91.63413728747464       54.12761073042964
C           30.58559730560410       91.22496331356628       55.31544544803990
C           30.01145306326424       90.03874858948811       55.71252706506530
C           28.94701351333541       89.77556659782883       54.75717622563843
C           27.01268008848783       88.47590780194648       53.95339122748071
C           26.03515315286483       87.43488769346081       54.13513847339718
C           25.18304489692735       87.51059083027270       53.05917348392698
C           25.67710531257881       88.60440879013228       52.23814238459905
C           25.65533849366084       89.91403090578666       50.15412963823918
C           25.17246340573794       90.15351289066110       48.80870098611996
C           25.90694287261506       91.19158077931347       48.31751761682288
C           26.82431972986487       91.57289029871814       49.37275610260048
C           27.68581358974765       92.64957474418884       49.30825841452143
H           27.68025739497025       93.23544061482718       48.40068914240232
C           30.18317219858322       92.78136798517544       53.40927646472558
H           30.92512365297013       93.45085093409430       53.81802029855927
C           28.06063307456036       88.71752520616405       54.82901408106317
H           28.17868922801636       88.03231403052075       55.65535483391774
C           25.15497920429427       88.94366280682461       51.00160226357715
H           24.30246603833662       88.38058988979677       50.64657017926182
C           30.96975122162911       95.36232893415533       51.91564144473009
H           30.55421516389055       95.93056821212555       52.74973224518595
H           31.19049895618749       96.05372884396152       51.10584940400722
H           31.90706559472442       94.91712245450107       52.24732931300476
C           29.34700398448157       95.29181946330766       49.19448460094321
H           28.46205955426268       95.22807081157542       48.56764559392263
H           30.22555322425171       95.15727449720370       48.56123701199622
H           29.39123346388481       96.29447927001236       49.61865748600953
C           31.69847780018867       91.97100641192034       55.96319951368943
H           31.76012897461600       92.99334343744738       55.59165684249156
H           32.65784889759077       91.48695760547062       55.76179791007588
H           31.55667111136016       92.00282817232433       57.04472589453096
C           30.34458683171187       89.21568215675019       56.84674833985119
H           29.55120269743666       88.56966249617803       57.20752949397440
C           31.51911904402117       89.18014591346535       57.47712008191582
H           32.36753739408526       89.76469467218269       57.16378803110777
H           31.68427038110156       88.55388463025817       58.34072065588763
C           25.94035819173608       86.53140957522309       55.31302631333713
H           26.46685625020638       86.94626044729546       56.16916500936036
H           26.37197008290889       85.55350208701586       55.09215651891042
H           24.89560015687543       86.38504622907803       55.58701590805256
C           24.02187227772186       86.71212749474488       52.76487350710907
H           23.30284748632059       87.16887150618867       52.09399226408462
C           23.75902652097214       85.49150077821403       53.23129539361403
H           24.43763918195533       84.95271953163163       53.86961421020401
H           22.84950964108614       84.97335818233526       52.97431722316801
C           24.12130292714086       89.35557982809151       48.12199462266768
H           23.14059243139673       89.54517717240779       48.55687186481722
H           24.33768952437926       88.29301503486256       48.21800745180031
H           24.08142127913328       89.60027204734730       47.06344777210237
C           25.82742469983561       91.82093904914396       46.97154976328921
H           24.89063138768778       91.56725378965896       46.48096672004028
H           26.64838162314713       91.47632312372527       46.34134915846772
H           25.89042317317760       92.90359782460727       47.04808725753952
O           26.30192371647076       92.10055245607535       53.02151615400624
H           26.59169246013322       93.04711070874127       53.02100351366801
H           25.82820528302002       91.95818312314857       53.88473388851322
C           30.30715451289381       86.97594777917914       48.82354818546489