78
 energy: -116.058077621110 gnorm: 0.000140520334 xtb: 6.7.1 (edcfbbe)
Fe          27.75488848616849       90.75398718508450       52.11713932537274
N           28.71521277438421       92.40530262952355       51.48103019366550
N           28.87598022727964       90.76566402936233       53.79342973486723
N           26.76808773687884       89.15545430256655       52.78397592242123
N           26.61846228875498       90.79147024189422       50.48227798395573
C           28.52601894952610       93.05539900636832       50.30190189829187
C           29.43588583122963       94.17154188867799       50.18153668390367
C           30.18503038954218       94.18007924657881       51.31741798607241
C           29.72499452491174       93.06570950048194       52.11471293205951
C           29.86506936000069       91.64713686096142       54.11696044796248
C           30.47651196308950       91.29351415691116       55.37038834205503
C           29.84289607801498       90.15643488752846       55.80112042483655
C           28.84065215172890       89.85276073210660       54.79980818631261
C           27.00561880212575       88.46882812076103       53.93450356791579
C           26.10288219169055       87.35174509145442       54.06170583973683
C           25.30542072262114       87.37474059300781       52.94931458361536
C           25.74192452901902       88.51785321103999       52.16942808195365
C           25.61749874830563       89.92959397880306       50.16891731535641
C           25.03326363227476       90.26489444659913       48.88739566537691
C           25.71063676550035       91.35193519103713       48.43387364125529
C           26.69796742535830       91.66528809235037       49.44533503762538
C           27.58621916685611       92.71841138206619       49.34582323139260
H           27.54161312400338       93.32752510540648       48.45610421057583
C           30.25865143739441       92.72747212583917       53.34331032468543
H           31.06424559717552       93.34022951028517       53.71813377804079
C           27.97952382025121       88.77495949018031       54.86778074280649
H           28.07511469206005       88.11631558576069       55.71722500159356
C           25.20077591335051       88.86609073222974       50.94580505219002
H           24.39461832749376       88.25845591171407       50.56372984747298
C           31.27262087408765       95.11437648694653       51.72521192249874
H           31.01947827329373       95.61404431000608       52.66077018379062
H           31.43380470021346       95.87468741064379       50.96506633588466
H           32.20861702143493       94.57492475686804       51.87383513108446
C           29.48437630340449       95.09386225496439       49.01212802943937
H           28.52565803532593       95.59591063391713       48.87999798874614
H           29.70461931367101       94.54172809378049       48.09828589688714
H           30.25177602878715       95.85208195844315       49.14781998156785
C           31.53654265903457       92.07985099920519       56.06033536208166
H           31.37786094241675       93.14823589220394       55.92076579437261
H           32.52501538555698       91.83200052529166       55.66930146292285
H           31.52633260251937       91.86308239547360       57.12662785052508
C           30.05781270655107       89.39407215791708       57.01067979222524
H           29.17559007978534       88.92583141881865       57.43151171993466
C           31.22687806844846       89.22509846419331       57.62013563629696
H           32.14378041918856       89.62566070446871       57.22433641451634
H           31.30999182431215       88.65357680842628       58.52964521407313
C           26.03689964979767       86.43052680421422       55.22947648841187
H           26.19170342778089       86.97546699967377       56.15952114701582
H           26.80387702359863       85.65724768923465       55.15969320880589
H           25.06308056536238       85.94676824693747       55.26819081902130
C           24.21779385563091       86.49455330393248       52.58342197482980
H           23.39936474492314       86.96090943851809       52.04731907492859
C           24.15767358799210       85.19274402389516       52.84463026948116
H           24.96140287513849       84.66841609790505       53.33158302363115
H           23.30695912688862       84.59845842445301       52.55467261143409
C           23.90826680325611       89.51937758234105       48.25562117373708
H           23.02597007529750       89.54582676054133       48.89530619198216
H           24.17982271502403       88.47530993563318       48.09729590833721
H           23.64688022572357       89.95472843972826       47.29423930099659
C           25.52895245617403       92.11988329264622       47.16966392948729
H           24.73170889691546       91.69082666978180       46.56775198478757
H           26.44635724117018       92.11169573011357       46.58053723135254
H           25.27476885091794       93.15792388177111       47.38527439593716
O           26.33434316090439       92.17622087837694       53.22327214025661
H           26.63505638220134       93.01529791720776       52.85742936150415
H           26.69623545939305       92.10986811650663       54.11369767770589
C           30.31808338982825       86.75810976900947       49.19582119209419
H           30.93987661556767       86.04928607063194       49.74250423991042
H           30.84627524764416       87.04411135940623       48.28627296030958
H           29.39049670492520       86.26656695977637       48.91990838394840
N           31.00139767460436       88.76407285243708       50.53037457387831
H           31.99160712200707       88.64464843627789       50.39332762058327
C           30.01956696973154       87.94975439470122       50.02970530259619
C           30.39828756965681       89.74485005157585       51.23892625742290
H           30.92270620368234       90.52841552291605       51.74546849644353
N           29.09556112842267       89.60140224694078       51.21707877653261
C           28.84432955131605       88.48919339582369       50.46822867362891
H           27.84227380351532       88.15372019892847       50.29724490879534
