78
 energy: -115.912237970663 gnorm: 0.327046091290 xtb: 6.7.1 (edcfbbe)
Fe         -90.44600000000000      -11.82900000000000      -88.04200000000000
N          -89.20099999999998      -10.63100000000000      -89.07199999999999
N          -90.50300000000000      -13.09800000000000      -89.56699999999999
N          -91.70199999999998      -13.00300000000000      -87.03599999999999
N          -90.46100000000000      -10.51700000000000      -86.54200000000000
C          -88.60800000000000       -9.45600000000000      -88.64700000000001
C          -87.77700000000000       -8.87900000000000      -89.68899999999999
C          -87.97299999999998       -9.64500000000000      -90.80100000000000
C          -88.77100000000000      -10.79500000000000      -90.36799999999999
C          -89.90800000000000      -12.95000000000000      -90.80200000000001
C          -90.28100000000001      -14.03000000000000      -91.70499999999998
C          -90.94199999999999      -14.94700000000000      -90.94499999999999
C          -91.15200000000000      -14.31900000000000      -89.64100000000001
C          -92.17900000000000      -14.27300000000000      -87.41199999999999
C          -93.01400000000000      -14.84800000000000      -86.37000000000000
C          -93.12000000000000      -13.89400000000000      -85.42200000000000
C          -92.30700000000000      -12.77300000000000      -85.83000000000000
C          -91.22199999999999      -10.58300000000000      -85.38500000000001
C          -90.95699999999998       -9.44400000000000      -84.50100000000000
C          -90.06000000000000       -8.68200000000000      -85.15900000000001
C          -89.73900000000000       -9.37100000000000      -86.42800000000000
C          -88.81100000000001       -8.91000000000000      -87.37999999999998
H          -88.19799999999998       -8.05200000000000      -87.10299999999999
C          -89.05300000000000      -11.90200000000000      -91.15100000000000
H          -88.56500000000000      -11.96100000000000      -92.12400000000000
C          -91.89599999999999      -14.87500000000000      -88.60599999999998
H          -92.28800000000000      -15.88000000000000      -88.76099999999998
C          -92.13799999999999      -11.60400000000000      -85.09900000000000
H          -92.77500000000001      -11.46900000000000      -84.22499999999999
C          -87.49800000000000       -9.41300000000000      -92.20699999999998
H          -86.71299999999999      -10.15700000000000      -92.46100000000000
H          -87.06799999999998       -8.39200000000000      -92.29400000000000
H          -88.34699999999999       -9.53000000000000      -92.91400000000000
C          -86.86900000000000       -7.64900000000000      -89.53899999999999
H          -86.36400000000000       -7.67900000000000      -88.55000000000000
H          -87.47799999999998       -6.72200000000000      -89.60399999999998
H          -86.09699999999998       -7.65200000000000      -90.33799999999999
C          -89.94999999999999      -14.05900000000000      -93.18300000000001
H          -88.85700000000000      -14.20800000000000      -93.31500000000000
H          -90.24100000000000      -13.09500000000000      -93.65200000000000
H          -90.48999999999999      -14.89800000000000      -93.67200000000000
C          -91.35400000000000      -16.35500000000000      -91.29799999999999
H          -90.77700000000000      -17.25000000000000      -91.03300000000000
C          -92.67899999999999      -16.43800000000000      -92.07699999999998
H          -93.23699999999998      -15.52400000000000      -92.32899999999998
H          -93.08199999999998      -17.41200000000000      -92.38999999999999
C          -93.60299999999999      -16.25100000000000      -86.40899999999999
H          -92.78200000000000      -16.99700000000000      -86.46899999999998
H          -94.25400000000000      -16.36000000000000      -87.30200000000001
H          -94.19100000000000      -16.43700000000000      -85.48500000000000
C          -93.92499999999998      -13.96500000000000      -84.11799999999998
H          -93.49700000000000      -14.12200000000000      -83.12199999999999
C          -95.45600000000000      -13.78500000000000      -84.36899999999999
H          -95.83999999999999      -13.63000000000000      -85.38800000000001
H          -96.16600000000000      -13.81200000000000      -83.53000000000000
C          -91.60699999999999       -9.24800000000000      -83.15700000000000
H          -91.36099999999999      -10.10700000000000      -82.49700000000000
H          -92.70999999999998       -9.19100000000000      -83.27799999999999
H          -91.22799999999999       -8.31400000000000      -82.68899999999999
C          -89.44899999999998       -7.35800000000000      -84.77499999999999
H          -88.37500000000000       -7.50200000000000      -84.52899999999998
H          -89.97100000000000       -6.94800000000000      -83.88400000000000
H          -89.53200000000000       -6.64600000000000      -85.62399999999998
O          -92.14199999999998      -10.92300000000000      -88.92700000000001
H          -92.42199999999998      -11.51400000000000      -89.62600000000000
H          -92.52600000000000      -10.15200000000000      -88.70399999999999
C          -86.98800000000000      -14.23100000000000      -84.27399999999999
H          -85.94199999999998      -13.87100000000000      -84.17200000000000
H          -86.98800000000000      -15.34200000000000      -84.28300000000000
H          -87.58300000000000      -13.85800000000000      -83.41300000000000
N          -87.03499999999998      -14.00700000000000      -86.79100000000000
H          -86.20399999999999      -14.54400000000000      -86.93599999999999
C          -87.57200000000000      -13.71500000000000      -85.55400000000000
C          -87.78799999999998      -13.46900000000000      -87.73399999999999
H          -87.59099999999999      -13.54800000000000      -88.80200000000001
N          -88.79299999999999      -12.83700000000000      -87.15500000000000
C          -88.68100000000000      -12.97500000000000      -85.79200000000000
H          -89.40400000000000      -12.53200000000000      -85.11900000000000
78
 energy: -116.011583643791 gnorm: 0.148391063057 xtb: 6.7.1 (edcfbbe)
Fe         -90.43368074290878      -11.84229591430141      -88.03276653307859
N          -89.19991196770322      -10.62228548581886      -89.07446053252616
N          -90.50068479087621      -13.11325224643289      -89.57839523080489
N          -91.71595362468065      -13.01832651564460      -87.02866182484408
N          -90.46730714237034      -10.51346294333620      -86.53332066187248
C          -88.60301105981104       -9.46606152119795      -88.63507272629653
C          -87.78049705379675       -8.88084576882200      -89.68208151704771
C          -87.96610408862989       -9.65562953842037      -90.79011856054503
C          -88.78176042496689      -10.78901954959795      -90.36664389755322
C          -89.91731846835275      -12.94473937846730      -90.80714198509610
C          -90.26809458613863      -14.03767270792018      -91.69858994681994
C          -90.95243578764804      -14.95434704207622      -90.94581602343297
C          -91.13431482330593      -14.33193286858837      -89.63814042327886
C          -92.16927076635690      -14.27391213496781      -87.40312945075981
C          -93.01555244445771      -14.84445296688645      -86.36919657412183
C          -93.13475291082038      -13.89047444783147      -85.40368362839206
C          -92.30805295271907      -12.77225309019186      -85.82408710519445
C          -91.22810445887737      -10.58647171825665      -85.38974176824421
C          -90.96117135391314       -9.44890656453880      -84.51656926936590
C          -90.04998279162236       -8.68406811567344      -85.17141539808246
C          -89.73555138661432       -9.37253310902731      -86.42782602443911
C          -88.81310442194862       -8.91671102356756      -87.37463912356479
H          -88.21328209740597       -8.05198200517436      -87.10749568810444
C          -89.06856864920273      -11.89439102895485      -91.15382462304450
H          -88.57928600255029      -11.95462205834034      -92.12135522661448
C          -91.88406460481607      -14.88190692387785      -88.60633701983680
H          -92.28900577663262      -15.87566392712989      -88.76783983426658
C          -92.13459545778301      -11.60157233867232      -85.09690078395499
H          -92.76145172331528      -11.47414089414145      -84.22027014244647
C          -87.49508796422145       -9.42004884974403      -92.19410641404245
H          -86.71944708371392      -10.14893465262766      -92.46463967942954
H          -87.07583244713405       -8.41067383356287      -92.29430680304874
H          -88.32986335599593       -9.52756067730310      -92.90105067255828
C          -86.88613350752998       -7.66289396873994      -89.53821324411119
H          -86.37585017512677       -7.68002450571722      -88.56610691845046
H          -87.46976399979954       -6.73465228234430      -89.60348267240687
H          -86.11781816242804       -7.65340297950697      -90.32325100702506
C          -89.94571501652328      -14.06424283523938      -93.16821368519101
H          -88.86756824565796      -14.20713477018166      -93.31908742765945
H          -90.23544340512855      -13.11491361057973      -93.64120343347224
H          -90.48115601476519      -14.88557542503366      -93.66122116699670
C          -91.43114091609550      -16.31678809312058      -91.33384108653027
H          -90.83366142195813      -17.19840671303256      -91.05808842000162
C          -92.62114080983051      -16.43868217338244      -92.04486951464425
H          -93.19504473261505      -15.54972127635596      -92.30633017247403
H          -93.04185117022014      -17.39153924579088      -92.36644351403589
C          -93.59752512948998      -16.23564712437528      -86.40917976751358
H          -92.79426573087038      -16.98370450481123      -86.46947879847278
H          -94.24504933055434      -16.35840472965556      -87.28734892568836
H          -94.18336920065454      -16.42886498500882      -85.50155923308456
C          -94.00074631169535      -13.94447137155090      -84.17261608181758
H          -93.54843344985339      -14.10474218423021      -83.18398064568093
C          -95.38254966052753      -13.79617048745731      -84.35081862970618
H          -95.79294508347853      -13.63918602335366      -85.34956275396246
H          -96.11106277449250      -13.81743239801318      -83.53919661896944
C          -91.60138452477027       -9.25017919982934      -83.17183284808047
H          -91.36625596757163      -10.09376563789364      -82.50759106520924
H          -92.69355033886296       -9.18981963239477      -83.27324722919413
H          -91.23646862673853       -8.32971903948501      -82.69791322751036
C          -89.44893289653045       -7.36728680401690      -84.77679095349443
H          -88.38617588907329       -7.49555223285776      -84.53115449642804
H          -89.96151333688776       -6.95240557859181      -83.89961893284351
H          -89.52962973326169       -6.65419594613682      -85.60755789808303
O          -92.13118973443147      -10.93503633949625      -88.93316956850330
H          -92.43771952693876      -11.50703374853375      -89.63511630938643
H          -92.54946059667560      -10.12671392726443      -88.70619074726916
C          -86.98381482698299      -14.22992315855911      -84.27708753192016
H          -85.95021217194203      -13.87840197178015      -84.16713164949124
H          -86.98561818423229      -15.32770381316342      -84.27586438571015
H          -87.57297401392556      -13.86606403206625      -83.42838553488690
N          -87.02843804051716      -14.01319301865320      -86.77998913986664
H          -86.19399569118318      -14.55126300529660      -86.93038202082067
C          -87.56844453192905      -13.72204033753160      -85.55029027149682
C          -87.79909611084665      -13.46137729215038      -87.72612251644289
H          -87.60391967644534      -13.53932899038009      -88.78499252999413
N          -88.80466205544334      -12.82928077117684      -87.16189716241242
C          -88.67973007599815      -12.97801157324615      -85.80603928890508
H          -89.39547598822594      -12.53795042091996      -85.13391588144704
78
 energy: -116.028470750360 gnorm: 0.152797426197 xtb: 6.7.1 (edcfbbe)
Fe         -90.41923589870065      -11.85539952800890      -88.02212257862176
N          -89.19432618366110      -10.62075175616762      -89.07313047494137
N          -90.48995333220573      -13.13351951056892      -89.58324398526410
N          -91.72046514185014      -13.03895890488104      -87.01683700867093
N          -90.47054292544064      -10.51477951256005      -86.52488521801713
C          -88.60073293546364       -9.47878224978508      -88.62465776264821
C          -87.78400149216452       -8.88693174682804      -89.67413896943880
C          -87.96137650790476       -9.66853964170858      -90.77833256630775
C          -88.79254658229240      -10.78637933857735      -90.36291207572584
C          -89.91940768023494      -12.94605446100661      -90.80657111424875
C          -90.26013700692535      -14.04207150769232      -91.69212905271482
C          -90.96197710919181      -14.95244132874817      -90.94610715275974
C          -91.11997864063046      -14.34215266795898      -89.63383726456243
C          -92.15237434574433      -14.27735194316923      -87.39116521460605
C          -93.01960055187750      -14.83828306676591      -86.37294400801476
C          -93.15536067467146      -13.88445750675239      -85.40063961614193
C          -92.31309409506930      -12.77188169388746      -85.82245331132950
C          -91.23272856307979      -10.58920117758221      -85.39573181214276
C          -90.96635619855424       -9.45248552266322      -84.53232854310002
C          -90.04125389443742       -8.68950182289071      -85.18161506154738
C          -89.73201403857576       -9.37773516793851      -86.42546248025899
C          -88.81707102464010       -8.92447845119679      -87.37023373785090
H          -88.23513697918817       -8.04800471501840      -87.11480437668752
C          -89.08791751274887      -11.88657282854942      -91.15596407316525
H          -88.60891462978437      -11.93883008575607      -92.12500536524142
C          -91.86866234388877      -14.89040873748644      -88.60227524566382
H          -92.28893382770883      -15.87281701887149      -88.77223649286522
C          -92.13139046555398      -11.60266077585247      -85.09467729224636
H          -92.74115792559472      -11.48532558152573      -84.20843439757374
C          -87.49028751022017       -9.42986738405162      -92.17909471093762
H          -86.72087786198536      -10.14849582361203      -92.46340169962072
H          -87.07994228249859       -8.42691804460380      -92.28464278690915
H          -88.31905453889144       -9.53032032630693      -92.88226913472440
C          -86.90541331257262       -7.67811181590339      -89.53510681977113
H          -86.39220997111931       -7.68674977808915      -88.57330197318544
H          -87.47584681881732       -6.75023761784646      -89.60216482934264
H          -86.14356723626577       -7.66265459947212      -90.31527585886512
C          -89.94041656063649      -14.07287292257903      -93.15332852162994
H          -88.87125353563971      -14.21041303167397      -93.31836583612612
H          -90.23157079723374      -13.13202970795970      -93.62525436255157
H          -90.47432279741419      -14.88348483577477      -93.64609360263840
C          -91.48745421733970      -16.27952100793796      -91.36069808164244
H          -90.87558714179987      -17.14420747494640      -91.07013706139460
C          -92.57540366209409      -16.42018917397057      -92.01244436827258
H          -93.17225298135634      -15.55960855740394      -92.29375275440491
H          -92.99309354174400      -17.36608223844858      -92.33893249126604
C          -93.59516141882129      -16.21896151107512      -86.40913390483257
H          -92.80020231554454      -16.96542054645762      -86.46938411079513
H          -94.23960183657522      -16.35122003779525      -87.27884531339710
H          -94.17965727594775      -16.41417587327927      -85.51149325039465
C          -94.05551423856599      -13.92993111324539      -84.22044930730476
H          -93.58154736300784      -14.08365802673844      -83.24247815930613
C          -95.30976675631675      -13.79838767128643      -84.35156744028767
H          -95.75824265411573      -13.64633078857951      -85.32912606745029
H          -96.03985137575236      -13.82610816485885      -83.54875376921181
C          -91.59737404909256       -9.25035874516729      -83.18874388691204
H          -91.36610835740093      -10.08612248673137      -82.52526443178397
H          -92.68287443838169       -9.18794814302902      -83.27686032584602
H          -91.23793531380304       -8.33856996650436      -82.71496582316682
C          -89.44791904918930       -7.37831248636907      -84.77879490215599
H          -88.39170908462287       -7.49389185650053      -84.53275412841313
H          -89.95772641679561       -6.96417735379509      -83.91093999172087
H          -89.52827841232033       -6.66247989734130      -85.59697355615396
O          -92.12016636220443      -10.93323716841889      -88.94144554480945
H          -92.47152184712039      -11.48211039008349      -89.64415803170101
H          -92.57256725727876      -10.12232366225656      -88.71753302475135
C          -86.98179943025757      -14.22782144744987      -84.28022948614165
H          -85.95523898826777      -13.88239600025346      -84.16531924848525
H          -86.98208466106159      -15.31779778020448      -84.26973065695215
H          -87.56731155606282      -13.86981531286527      -83.43926275817799
N          -87.02578375066290      -14.01730714301620      -86.77424687442593
H          -86.18922441360874      -14.55516305605689      -86.93039254975793
C          -87.56849719101422      -13.72728286128462      -85.54960164400114
C          -87.81079761959049      -13.45383030400848      -87.71997371518673
H          -87.61734618919216      -13.52896232073884      -88.77175906343399
N          -88.81760179665612      -12.82420012246525      -87.16664061429150
C          -88.68052573256712      -12.98136778126094      -85.81753978686048
H          -89.38885957278829      -12.54580738990431      -85.14249748625009
78
 energy: -116.039184338648 gnorm: 0.023860021883 xtb: 6.7.1 (edcfbbe)
Fe         -90.41820407378266      -11.85586533800883      -88.02172895121399
N          -89.19385388170282      -10.62814820167987      -89.06693284351488
N          -90.47516343096959      -13.13586966046996      -89.57552870217249
N          -91.70930590270650      -13.04207638094399      -87.01861683116449
N          -90.46986082167231      -10.51975251656355      -86.52762205341908
C          -88.59808326403414       -9.49038679742172      -88.61680695257786
C          -87.78707850498431       -8.89722915557683      -89.66564545209350
C          -87.95847694843269       -9.67824607175869      -90.76861147115214
C          -88.80117749764337      -10.78585618949251      -90.35923607700114
C          -89.92012407802470      -12.93995312005028      -90.80390157995750
C          -90.25082184221853      -14.03748017807597      -91.68605728131020
C          -90.95480358644555      -14.93695501763483      -90.93855292956444
C          -91.10149638108312      -14.34350565967655      -89.62390722874152
C          -92.13349230140467      -14.28290323435637      -87.38983374381219
C          -93.01285220658949      -14.83502245488529      -86.38180324563224
C          -93.14259439810012      -13.88022994965777      -85.41676882812941
C          -92.30467113784212      -12.77031192185704      -85.82902015091933
C          -91.23231764977186      -10.59116602862983      -85.40086793410944
C          -90.96832016444198       -9.45321729802798      -84.54231336207727
C          -90.03896626929138       -8.69467700131895      -85.18683930748742
C          -89.73042725123298       -9.38468577279261      -86.42620953348489
C          -88.81693397979663       -8.93095438331755      -87.36762708333011
H          -88.25504448692587       -8.03865244143178      -87.12167978720657
C          -89.10626834027512      -11.87380992818017      -91.16075663774821
H          -88.64689780820635      -11.91287640815042      -92.13934475596805
C          -91.84752002450344      -14.89812828274154      -88.59678347893671
H          -92.28249908118488      -15.87309496138534      -88.77669404209610
C          -92.12455273270876      -11.60692644312868      -85.09507900939805
H          -92.71737939154049      -11.50114982005426      -84.19495642149980
C          -87.48298659279789       -9.44123775760695      -92.16583326636365
H          -86.71454242935697      -10.15816495799294      -92.45669429320577
H          -87.07468205242992       -8.43850098266312      -92.27031133640202
H          -88.31218664199994       -9.53798415953850      -92.86706693646583
C          -86.92074207355270       -7.68529051679970      -89.52900476531805
H          -86.40674034001132       -7.69230515395787      -88.56892482763843
H          -87.49544315697435       -6.76122984544607      -89.59775902859262
H          -86.16422929636575       -7.67057031450955      -90.31213924456443
C          -89.93090481544728      -14.08032791026755      -93.14385619234402
H          -88.86283515308953      -14.21747262071743      -93.31458911767452
H          -90.22631753804181      -13.14308503484012      -93.61677926506897
H          -90.46734218680085      -14.89276787676619      -93.62899703429653
C          -91.47607359150922      -16.25245672068260      -91.34277431223258
H          -90.87552362846519      -17.11335609345661      -91.05494699824361
C          -92.59666696200036      -16.41572747674839      -92.03007177218271
H          -93.19555379844297      -15.56078041649442      -92.30818548066479
H          -92.98253027490861      -17.37554393766018      -92.33694835125750
C          -93.59623502911350      -16.20855656453892      -86.41291782365998
H          -92.80278997190763      -16.95523813917242      -86.47010134087786
H          -94.24096197430951      -16.34181654278292      -87.28112755021840
H          -94.18158753258194      -16.39536895398614      -85.51515220542525
C          -94.01798686059915      -13.91955044027443      -84.23813266960238
H          -93.55380411055586      -14.06577958058963      -83.26566087156921
C          -95.33990374083928      -13.80317155056655      -84.35311979798863
H          -95.78553097699803      -13.64641568628513      -85.32571913831863
H          -96.03198721088096      -13.83169558463395      -83.52580821571134
C          -91.59773138492179       -9.24953257749873      -83.20225016240889
H          -91.36544963928272      -10.08481689115317      -82.54015126585993
H          -92.68253988241852       -9.18491393407668      -83.28639774045102
H          -91.23584362435473       -8.33860464366278      -82.73139736200076
C          -89.44444227677448       -7.38662169667455      -84.78089826178913
H          -88.38852582344262       -7.49791572161044      -84.53295421994282
H          -89.95664736517378       -6.97564056483278      -83.91409625796855
H          -89.52516506119569       -6.66680643353988      -85.59458914264987
O          -92.12179135955544      -10.91642156721584      -88.95982219777218
H          -92.50222179982708      -11.46357256592795      -89.65152876176867
H          -92.58982654566907      -10.11829394151705      -88.72164973455084
C          -86.98005451292845      -14.22772782906972      -84.28222006461732
H          -85.95369329998130      -13.88239605312941      -84.16478348032369
H          -86.97810152559715      -15.31724655285656      -84.26443012649150
H          -87.56632295562204      -13.86931107612093      -83.44281372193801
N          -87.02858851395098      -14.01853686753911      -86.77628266771384
H          -86.19099598519267      -14.55549015261018      -86.93364168213640
C          -87.57059624572416      -13.73073687907100      -85.55120659543614
C          -87.81617735081311      -13.45170192927472      -87.71872989068127
H          -87.62658286859673      -13.52038543721977      -88.77016565569069
N          -88.82338006109211      -12.82431144060089      -87.16476516326611
C          -88.68371604481845      -12.98654945486528      -85.81739025129183
H          -89.39033049556944      -12.55294035368535      -85.14148808164322
78
 energy: -116.042857133028 gnorm: 0.021231704777 xtb: 6.7.1 (edcfbbe)
Fe         -90.41291352580681      -11.85645232528684      -88.02190780884496
N          -89.18786985687336      -10.63949888502673      -89.05938086026890
N          -90.45713340880968      -13.13988104713275      -89.56859566381947
N          -91.69384226164159      -13.04709015600875      -87.01935030009591
N          -90.46606451503470      -10.52674839670838      -86.52944048907939
C          -88.59753943973973       -9.50223181406623      -88.61032787574658
C          -87.78928707919697       -8.90788006618934      -89.65666087533874
C          -87.95677824632881       -9.68841973424311      -90.75877118721205
C          -88.80383230051449      -10.78951182260081      -90.35322687100401
C          -89.91634474056985      -12.93768445365276      -90.80032940625030
C          -90.24605153652664      -14.03343957256350      -91.68132348202691
C          -90.95287254527059      -14.92692683093995      -90.93375898147816
C          -91.08361206690635      -14.34427075278781      -89.61604237807923
C          -92.11386969525857      -14.28595520046490      -87.38828226828844
C          -93.00693253070291      -14.83104473168423      -86.39109474154704
C          -93.13972764752721      -13.87425173602357      -85.43023105816457
C          -92.29121059228746      -12.77208752691018      -85.83313487515538
C          -91.22703202068146      -10.59626035563416      -85.40464198809109
C          -90.96932878506688       -9.45557163478969      -84.55155216945570
C          -90.03496073104040       -8.70074759210119      -85.19203257548217
C          -89.72816458698362       -9.39128742886498      -86.42740215868920
C          -88.82044446199143       -8.93396004192805      -87.36794691120542
H          -88.27673142024382       -8.02841180430585      -87.13170534849272
C          -89.12385910629854      -11.86206144323329      -91.16668703296401
H          -88.70442555031225      -11.87401769724471      -92.16520410532642
C          -91.82595015949286      -14.90515925214137      -88.59205770791178
H          -92.26349267423454      -15.87708371231825      -88.77589792459095
C          -92.11001707478906      -11.61609965302797      -85.09155990613981
H          -92.68695481514564      -11.52263559283080      -84.18000018885232
C          -87.47187500309447       -9.45615644807433      -92.15102041267254
H          -86.70508633557844      -10.17578575335149      -92.43771350849485
H          -87.06004195150327       -8.45500793208703      -92.25125295085674
H          -88.30025224326020       -9.55111346800050      -92.85287428972458
C          -86.93812711917232       -7.69096459084098      -89.51887649352966
H          -86.42437843586180       -7.69299857606534      -88.55911384574550
H          -87.52756413407870       -6.77648653651990      -89.58684267644306
H          -86.18644378277519       -7.66924131711883      -90.30575811154009
C          -89.92075139887511      -14.09134411397990      -93.13470982096418
H          -88.85251186963472      -14.22909734796388      -93.30130700792938
H          -90.21758247445642      -13.15988590386238      -93.61726581028780
H          -90.45493329634594      -14.91204195132056      -93.60764273473471
C          -91.48127714038191      -16.23114188657675      -91.33648438678348
H          -90.88990762583614      -17.08996556658325      -91.03642633999793
C          -92.60182717065679      -16.39899417587190      -92.02893044680273
H          -93.20408239037339      -15.55476789839287      -92.32835253607722
H          -92.96145966938883      -17.37054242888005      -92.32533915278565
C          -93.60062437070643      -16.19679493724982      -86.41970189535479
H          -92.81177061389384      -16.94813964769799      -86.47236934850200
H          -94.24531401042627      -16.32762014752902      -87.28804552604915
H          -94.18907516408230      -16.37091654388746      -85.52169839042689
C          -94.01006397655664      -13.90664331493983      -84.25723776211760
H          -93.54070099722010      -14.02913327036431      -83.28731296026828
C          -95.32973261061112      -13.79514203778784      -84.35885037222376
H          -95.79787681641949      -13.66919079072301      -85.32432951118697
H          -95.99120305951622      -13.83839260539601      -83.50942615084431
C          -91.60070092456446       -9.24641387311881      -83.21677415088247
H          -91.36756242338028      -10.08090677125846      -82.55465415194126
H          -92.68495876718065       -9.18089461736855      -83.30263027564513
H          -91.23622638308588       -8.33403254914152      -82.75198503830285
C          -89.43942637950585       -7.39655507129269      -84.78180242087780
H          -88.38360741293630       -7.50878158704617      -84.53478627552801
H          -89.95296581523112       -6.99238916693635      -83.91300710314719
H          -89.52084758629829       -6.67240314597033      -85.59169436638253
O          -92.10786847246854      -10.88286253387160      -88.99959916436127
H          -92.55969137285689      -11.44246568867669      -89.64781249165452
H          -92.62791499391059      -10.12286400567869      -88.71457993125772
C          -86.97927437387369      -14.22715365113800      -84.28616029424181