78
 energy: -116.058078180510 gnorm: 0.000168893210 xtb: 6.7.1 (edcfbbe)
Fe         -39.68049335529033      -74.20098062822245       -1.13813172901028
N          -39.08474307324426      -75.86515962288276       -2.10208634742015
N          -41.36928954653638      -74.18475819068624       -2.24018648731844
N          -40.30679949155528      -72.58825730424661       -0.14827195576902
N          -38.03433321812835      -74.26660432157064       -0.01890693242985
C          -37.91515162902328      -76.53565550472200       -1.92511268052005
C          -37.82425526384232      -77.65441324480376       -2.83526395993248
C          -38.96814614368918      -77.64353935526945       -3.57205256522425
C          -39.74088423443612      -76.51519105478901       -3.10422065545604
C          -41.72016927532847      -75.06287879580607       -3.22285507277012
C          -42.97511371118451      -74.68953263528816       -3.81931227278445
C          -43.37841768498358      -73.54381740502654       -3.18327919143214
C          -42.35944617739749      -73.25472243273697       -2.19465554907519
C          -41.44729075514081      -71.88135225765826       -0.37454915141167
C          -41.54349454173124      -70.75956052881597        0.52619335678702
C          -40.42271693751321      -70.80088611180155        1.31100053294230
C          -39.66924678717087      -71.95963609355697        0.86931881380955
C          -37.69526122075258      -73.40957990418745        0.97787436389868
C          -36.41502344010169      -73.76865482658043        1.55065405906216
C          -35.98822406160065      -74.86445487074752        0.86997964193699
C          -37.01464172138528      -75.15963640606574       -0.10746350550414
C          -36.94337777145905      -76.21513233780875       -0.99568961127521
H          -36.06436508766905      -76.84016092305367       -0.95960196452245
C          -40.96970547286396      -76.15673900406745       -3.62393739818544
H          -41.36457526852132      -76.76403554140029       -4.42407586371145
C          -42.39775429742414      -72.17348171255259       -1.33601254464112
H          -43.23659885121541      -71.50021331528667       -1.42312969222764
C          -38.44733295693123      -72.33025387362591        1.39939376539742
H          -38.04592020387337      -71.72827212113680        2.20038582383234
C          -39.40406288899062      -78.57105785208867       -4.65453144042257
H          -38.65917672700154      -79.34464695270732       -4.82356330334944
H          -39.55347533138111      -78.02946184256663       -5.58916668385473
H          -40.34540764986830      -79.05413329786009       -4.39086455547581
C          -36.67180798549632      -78.59716884862566       -2.89553976532739
H          -36.53882883557942      -79.10153722913897       -1.93814896476301
H          -35.75066935506550      -78.06120049747412       -3.12509808815568
H          -36.82863410392768      -79.35283751416425       -3.66143032783970
C          -43.69180295220956      -75.46711492376649       -4.86800829009647
H          -43.57197713607349      -76.53728031536401       -4.70502799898003
H          -43.30625669471801      -75.23229345669900       -5.86179407407106
H          -44.75335461824431      -75.22894193556102       -4.84782587875874
C          -44.57769584817248      -72.76172366654829       -3.38497308718890
H          -44.98057448311545      -72.28580991796319       -2.49848141555554
C          -45.19722824015943      -72.58358725346281       -4.54733572716653
H          -44.81775228721605      -72.99077659813558       -5.46823577583038
H          -46.09765150545906      -71.99661345070980       -4.62114896228630
C          -42.69367456241604      -69.81727959153710        0.60282509467866
H          -43.63526252785773      -70.34679372036837        0.46501162053396
H          -42.62146791746918      -69.05034756410862       -0.17025690443952
H          -42.70985306846315      -69.32673540721218        1.57385834175557
C          -40.02826759443047      -69.92387204219848        2.39124831027622
H          -39.49326151036387      -70.39731559764520        3.20631897427866
C          -40.26285224157426      -68.61685884247919        2.44788389544695
H          -40.74729699584159      -68.08667820645911        1.64646290382362
H          -39.95269425499503      -68.02455393363022        3.29283181491653
C          -35.75962069828551      -73.03500586823634        2.66992070164062
H          -36.39302959070628      -73.04789562817797        3.55703579882042
H          -35.58234516371036      -71.99454764724484        2.39624044961879
H          -34.80526488516713      -73.48945375055722        2.92446684677215
C          -34.73669760988559      -75.65540619736527        1.04054409153392
H          -34.11994354122027      -75.23721017881793        1.83220260421958
H          -34.15573244096365      -75.65807678843373        0.11790904910395
H          -34.96883162442737      -76.68931473870975        1.29698305055485
O          -40.79657123020259      -75.59975471200048        0.29841642624385
H          -40.44437803266940      -76.44595563456919        0.00145582146640
H          -41.68825237480375      -75.52311737993858       -0.05827877708585
C          -36.69943397568970      -70.27679772803124       -3.74314053899965
H          -37.23539614249282      -69.55596463708784       -4.36042070286499
H          -35.80314532177302      -70.58613399481368       -4.28077843218114
H          -36.40112207898139      -69.79040590021143       -2.81979157897191
N          -38.09082344592066      -72.25050460234814       -4.40688395191005
H          -37.96350165414462      -72.13579848223553       -5.39894929377477
C          -37.55875431230039      -71.44712421902383       -3.43261705297721
C          -38.81514851575312      -73.21325954267267       -3.79351538827096
H          -39.34660399061637      -73.98521391823654       -4.31044132241582
N          -38.77387864640848      -73.06866005958882       -2.49136191892552
C          -37.99547380323563      -71.97440654884602       -2.25118959339166
H          -37.80429142455980      -71.64181105997558       -1.25182122741285
