87
 energy: -124.720440233319 gnorm: 0.000120267010 xtb: 6.7.1 (edcfbbe)
Fe          16.49726653376160       12.40845007273217       22.37838036882315
N           18.38649859795167       12.03539840970000       22.92712964598229
N           17.14068151419877       13.11405384314500       20.62173126137611
N           14.60810347620196       12.85484860897429       21.87685157635976
N           15.85486930613041       11.69906397109444       24.14175588853314
C           18.81338193902370       11.54568764762510       24.11965721805792
C           20.25585453294032       11.45132446322488       24.14809470491215
C           20.69101212810845       11.89341842911140       22.93782811878917
C           19.50721350612506       12.25653067730525       22.18978151244819
C           18.42418549908296       13.14475854314885       20.17429789755766
C           18.48889138107780       13.67205005104653       18.83487215150769
C           17.20106494842021       13.96725557624879       18.47661041861092
C           16.37852267139417       13.61700923932172       19.61947643262046
C           14.19170048415980       13.43349550431550       20.71914166795824
C           12.76369815581578       13.62234848287216       20.72517248490418
C           12.31611507693937       13.13639495750248       21.92535996282253
C           13.49419336771761       12.66894968127298       22.62917063178275
C           14.56760752545288       11.62529259914996       24.57308630305308
C           14.50308253300953       11.04355828744237       25.89574020152758
C           15.78767851101216       10.79144471291805       26.26374656673930
C           16.61756033665788       11.21887552450055       25.15911725977501
C           17.99809448632982       11.15390381728525       25.16509327695489
H           18.47520203289845       10.76609875119570       26.05204399105298
C           19.53478970231703       12.75037864690475       20.90019476474141
H           20.49967089972279       12.83713885142700       20.42414353623214
C           15.00770575252798       13.77235971401001       19.65470809848315
H           14.53024252804733       14.18286333994627       18.77832727283526
C           13.46002860885521       12.07285561229398       23.87688368966910
H           12.49699555570301       11.95550573900095       24.34986130599801
C           22.08269275148216       12.00375460696709       22.41579589422948
H           22.20588032690618       11.39191286583122       21.52171064180316
H           22.80209714097036       11.67015753609449       23.15961244371810
H           22.31529640618162       13.03620213568821       22.15273478603297
C           21.04331718234343       10.94916191520308       25.30924096277325
H           20.78355112271163        9.91315428780950       25.52903192157199
H           20.83756481383923       11.54481404446221       26.19885350601369
H           22.10989657880067       10.99738208967596       25.10366033535069
C           19.74024165101312       13.90029602474631       18.06070099141005
H           20.07481253569241       12.97770690442697       17.58385735763887
H           20.54046405023233       14.25150429171715       18.71093755521194
H           19.56926760605695       14.64499806001627       17.28588373681686
C           16.70358853833953       14.53999899059444       17.24552627884192
H           15.84425337832027       15.19317063971074       17.34612228871027
C           17.20610465643862       14.32133091236762       16.03469407542923
H           18.02548643495875       13.64417201507925       15.86850408405578
H           16.79161846123167       14.79315167240932       15.15913574860029
C           11.98246844418345       14.28718092025787       19.64633843006764
H           11.76897080766535       13.59039115452119       18.83395501574541
H           12.53734728793503       15.12749666683728       19.23177985340804
H           11.03743266555471       14.65451073351129       20.04148183912079
C           10.97051500030904       13.09431498393394       22.45308467940739
H           10.88427165643866       13.21707293191798       23.52681831648993
C            9.86606301065128       12.91128224544969       21.73664099411121
H            9.89409755471299       12.73549356039476       20.67548535688293
H            8.89137218195169       12.90428165266441       22.19580867214359
C           13.23933817008482       10.80493211481132       26.64880948706061
H           12.56083347005144       10.17502325847021       26.07283774211751
H           12.73110108405250       11.74772052798490       26.85440595102148
H           13.44152278268616       10.31304866622338       27.59713099747540
C           16.30993258233847       10.20115756337340       27.52846326601310
H           16.89110287422422        9.30185423957758       27.32217346186808
H           15.49463912086256        9.93600555489298       28.19722817700548
H           16.95801262688599       10.91112432240078       28.04317021696519
C           15.71873523115426       17.18192809000921       25.16313915465534
H           15.55516839465160       18.08717287048606       24.57846874802881
H           16.40320870758893       17.42097706088494       25.97707284103830
H           14.77072787255958       16.86581487861754       25.58691952347939
N           17.46149004405597       16.21447695989675       23.64680012588674
H           18.06746786189879       17.01833642620070       23.66261431028999
C           16.26906157570690       16.09697402571352       24.31190212839687
C           17.66812630598298       15.06295910980573       22.96962853247733
H           18.52567331567398       14.87101927482562       22.35859005436117
N           16.68031349878928       14.22448536424073       23.16553882225861
C           15.80263190802286       14.85261240152461       23.99834777170658
H           14.90058143139123       14.37162535309957       24.31416948355164
C           18.58871119255146        8.78837828965865       21.78191755917276
H           19.11689818906447        8.05395512457140       22.38689090295993
H           19.14510415691261        9.72062481100416       21.80214081846511
H           18.54695823426837        8.43414538494533       20.75468487629082
C           17.18853223261457        8.99919427534272       22.32454342649247
H           17.21253178037496        9.35088085931580       23.35453039877651
H           16.60731211171288        8.07934053109838       22.25984917795257
S           16.30117379484992       10.25795940358622       21.31790755817315
C           14.60622676046864        9.67360348631373       21.62434714777451
H           14.39453400075293        9.69908045202957       22.68854490985293
H           14.50076966735696        8.66720215376835       21.22765313223448
H           13.93899518390563       10.35017956831807       21.10192532050211
