87
 energy: -124.645472924938 gnorm: 0.213874703307 xtb: 6.7.1 (edcfbbe)
Fe          16.41900000000000       12.39700000000000       22.37000000000000
N           18.35400000000000       12.07900000000000       22.96300000000000
N           17.09800000000000       13.06500000000000       20.61600000000000
N           14.53500000000000       12.79300000000000       21.84500000000000
N           15.78600000000000       11.81000000000000       24.17000000000000
C           18.79600000000000       11.56900000000000       24.19100000000000
C           20.25900000000000       11.44200000000000       24.21700000000000
C           20.68100000000000       11.93600000000000       23.01100000000000
C           19.50600000000000       12.30100000000000       22.22400000000000
C           18.42400000000000       13.16900000000000       20.17900000000000
C           18.48600000000000       13.78700000000000       18.86900000000000
C           17.19700000000000       14.07000000000000       18.50600000000000
C           16.33500000000000       13.60600000000000       19.58900000000000
C           14.12500000000000       13.33800000000000       20.63400000000000
C           12.70700000000000       13.55100000000000       20.59900000000000
C           12.23700000000000       13.12600000000000       21.82400000000000
C           13.39300000000000       12.65100000000000       22.59900000000000
C           14.47700000000000       11.71000000000000       24.64400000000000
C           14.48900000000000       11.09800000000000       26.00500000000000
C           15.78700000000000       10.86500000000000       26.31100000000000
C           16.58400000000000       11.30000000000000       25.21300000000000
C           17.96400000000000       11.20200000000000       25.24200000000000
H           18.42800000000000       10.81200000000000       26.14800000000000
C           19.53900000000000       12.80400000000000       20.92700000000000
H           20.51700000000000       12.92100000000000       20.46000000000000
C           14.95100000000000       13.71800000000000       19.59400000000000
H           14.47900000000000       14.13900000000000       18.70700000000000
C           13.35900000000000       12.12700000000000       23.91200000000000
H           12.38400000000000       12.04100000000000       24.39200000000000
C           22.12800000000000       12.12200000000000       22.60700000000000
H           22.44400000000000       11.27600000000000       21.96000000000000
H           22.77100000000000       12.14300000000000       23.51300000000000
H           22.24000000000000       13.07100000000000       22.04000000000000
C           21.13600000000000       10.66900000000000       25.22600000000000
H           20.48900000000000       10.04000000000000       25.87400000000000
H           21.69600000000000       11.38600000000000       25.86400000000000
H           21.84600000000000       10.01200000000000       24.68000000000000
C           19.73900000000000       14.05300000000000       18.03100000000000
H           19.94200000000000       13.17600000000000       17.37900000000000
H           20.61100000000000       14.21400000000000       18.70000000000000
H           19.58000000000000       14.94800000000000       17.39200000000000
C           16.78000000000000       14.76700000000000       17.36700000000000
H           16.22400000000000       15.70800000000000       17.48900000000000
C           17.02400000000000       14.34400000000000       16.07900000000000
H           17.57500000000000       13.41000000000000       15.89300000000000
H           16.67100000000000       14.93500000000000       15.22100000000000
C           11.90300000000000       14.22500000000000       19.46600000000000
H           11.58200000000000       13.45600000000000       18.73100000000000
H           12.54000000000000       14.97400000000000       18.94800000000000
H           11.00200000000000       14.71900000000000       19.88800000000000
C           10.89000000000000       13.22100000000000       22.27100000000000
H           10.64600000000000       13.66900000000000       23.24600000000000
C            9.84600000000000       12.73800000000000       21.46200000000000
H           10.06200000000000       12.28600000000000       20.48300000000000
H            8.80100000000000       12.80700000000000       21.79900000000000
C           13.36500000000000       10.67800000000000       26.96500000000000
H           12.38000000000000       10.89700000000000       26.50100000000000
H           13.45000000000000       11.24800000000000       27.91500000000000
H           13.43300000000000        9.58800000000000       27.16900000000000
C           16.28100000000000       10.20700000000000       27.59000000000000
H           16.34100000000000        9.10800000000000       27.44200000000000
H           15.57300000000000       10.42100000000000       28.41900000000000
H           17.29200000000000       10.59200000000000       27.84400000000000
C           15.89200000000000       17.15900000000000       25.24100000000000
H           15.54800000000000       18.04700000000000       24.66900000000000
H           16.72100000000000       17.46400000000000       25.91500000000000
H           15.04300000000000       16.76400000000000       25.83800000000000
N           17.41800000000000       16.32200000000000       23.41200000000000
H           17.92300000000000       17.18100000000000       23.33100000000000
C           16.37500000000000       16.10600000000000       24.28900000000000
C           17.63400000000000       15.22300000000000       22.71100000000000
H           18.40400000000000       15.11900000000000       21.94700000000000
N           16.76800000000000       14.30200000000000       23.09800000000000
C           15.96900000000000       14.82900000000000       24.08500000000000
H           15.18600000000000       14.24400000000000       24.54900000000000
C           18.55200000000000        8.76300000000000       21.90000000000000
H           19.01800000000000        7.90600000000000       22.43100000000000
H           19.19000000000000        9.66000000000000       22.04600000000000
H           18.49100000000000        8.51900000000000       20.81800000000000
C           17.15100000000000        9.02500000000000       22.45400000000000
H           17.25100000000000        9.25700000000000       23.53500000000000
H           16.56400000000000        8.08900000000000       22.35000000000000
S           16.24600000000000       10.37400000000000       21.64900000000000
C           14.67800000000000        9.58800000000000       21.41500000000000
H           14.23400000000000        9.27600000000000       22.38500000000000
H           14.79400000000000        8.68200000000000       20.78300000000000
H           13.96900000000000       10.28600000000000       20.92200000000000
87
 energy: -124.691793005509 gnorm: 0.086322045842 xtb: 6.7.1 (edcfbbe)
Fe          16.43619556191540       12.39638837955628       22.39525260923497
N           18.37482393469695       12.06524806710550       22.97181601356294
N           17.10850210079161       13.06446705421242       20.61235400890445
N           14.53726288131772       12.81359720420059       21.85049148973414
N           15.78261681619147       11.79554812236594       24.19447748489642
C           18.80181244491754       11.55397773055910       24.17609543683279
C           20.25057526031305       11.42316799287506       24.19667405975170
C           20.68226640269450       11.93684387092318       23.00746627555418
C           19.50785403207666       12.30704865325843       22.23832995385817
C           18.41962039908221       13.16304497994042       20.18850588521903
C           18.48831829118517       13.76948899506525       18.87590038820117
C           17.20205396754007       14.06168370996751       18.51552906135985
C           16.35197758345630       13.60875829337278       19.60510778173878
C           14.13558361052418       13.34623648212488       20.64538209872330
C           12.71313430964930       13.54973449878977       20.61265040709957
C           12.24313092477306       13.12689379539068       21.83510987002126
C           13.40501552222361       12.66616954994041       22.60404272179538
C           14.48053536134242       11.70057873524056       24.64401649812333
C           14.47779332069413       11.09773477064564       25.99147539833624
C           15.77926582216032       10.86606841844799       26.31098561174636
C           16.58253862658667       11.30371786586032       25.20972852316179
C           17.96395031087140       11.20585227457093       25.22200161117935
H           18.42498835505506       10.81814383355793       26.12379505226020
C           19.53062722597550       12.80194381791531       20.94026858314776
H           20.50286180800242       12.91810077439360       20.47168151470370
C           14.97101847747335       13.71388209943820       19.60363513233418
H           14.50158470148195       14.13075836991777       18.71797129188204
C           13.37449517621463       12.12768881334669       23.90417167336645
H           12.40014735152583       12.04183075939081       24.37771191695051
C           22.11554770388634       12.11708775528600       22.59969361330750
H           22.44491066998472       11.28895726510075       21.96084595737271
H           22.75566011201513       12.14180003466823       23.48806603285331
H           22.24393916460518       13.05388557204542       22.04751198749743
C           21.10918956366826       10.69074044762166       25.21349673405853
H           20.49462169775250       10.05776473226280       25.86126808823159
H           21.67877813286874       11.38057463068981       25.84846354886945
H           21.82157040378948       10.04136990124844       24.69039655812571
C           19.72396224347718       14.04413089965558       18.05152049066578
H           19.93910998073370       13.18999928871577       17.39784494911403
H           20.59698351255934       14.21327332577825       18.68943767421552
H           19.57481050298694       14.92297862835567       17.41283638983238
C           16.77053102913961       14.76010838306334       17.34061520494881
H           16.21299502540248       15.68865334511211       17.47643328101857
C           17.02435910720560       14.35516332373568       16.08983300604804
H           17.56002889226074       13.43199485913836       15.89998490860067
H           16.68125433723580       14.92518916779488       15.23490388020712
C           11.92340315462067       14.20470384581442       19.49187008347421
H           11.59675218217050       13.46511227857641       18.75008664690096
H           12.52844273279557       14.95458033218016       18.96974662779063
H           11.02853547037279       14.69667962254785       19.88997059384361
C           10.87014275814102       13.19084935877594       22.26503612902559
H           10.63900832747780       13.63616136023112       23.23204675611401
C            9.86194037735700       12.75383049653867       21.48217426432499
H           10.06348363157020       12.29827441870568       20.51954652647061
H            8.82725335603732       12.81588433108824       21.79902091708959
C           13.35810031295824       10.69772808433000       26.92818933216800
H           12.37506653169511       10.89978696152048       26.49880282331651
H           13.44476001288516       11.24085884847335       27.87890590015981
H           13.42934888217794        9.62515102178555       27.15240486427307
C           16.27720987353819       10.21642702743601       27.57522724596277
H           16.34088509238948        9.12877286250348       27.44440487779864
H           15.59021714661699       10.41875387581913       28.40237644087565
H           17.27078955471617       10.58638959662423       27.84689223869169
C           15.89493413786378       17.16454015826766       25.23820040866598
H           15.55104273723638       18.04484721587424       24.68386028269901
H           16.70349920843538       17.46743439096636       25.91239875525133
H           15.06237090474507       16.77314452924677       25.82766552524425
N           17.41449613258614       16.33548167573516       23.42341784401387
H           17.92745079318458       17.19555481779517       23.33945270070948
C           16.37545222369082       16.11873990539162       24.29460639608840
C           17.61475881230260       15.21611819427793       22.71554148052854
H           18.37817922699354       15.10638767087282       21.96231528192409
N           16.74784443704381       14.29842286407109       23.08357551256172
C           15.97403494553416       14.83688078134266       24.07375246105124
H           15.19847093603289       14.25676483253039       24.53706944398346
C           18.54705781339738        8.76602338339544       21.89848085287164
H           19.00993080006054        7.92289035876649       22.42270751516197
H           19.17956149798852        9.64680699260183       22.03471946803592
H           18.49573401223919        8.52695331764678       20.83194518850102
C           17.15458224376907        9.00893329545364       22.46606597603052
H           17.23516111655289        9.26308498805175       23.53104883603190
H           16.55580238870803        8.09721916139629       22.35834670843295
S           16.29107329124309       10.33939716498802       21.55561067411370
C           14.67299961658656        9.57475501097035       21.41898861054356
H           14.24208069901580        9.28709502960656       22.38645828769360
H           14.77609458240784        8.68563104706675       20.78797609997112
H           13.99124538455741       10.27867941808677       20.93131276296300
87
 energy: -124.704512139923 gnorm: 0.021224863659 xtb: 6.7.1 (edcfbbe)
Fe          16.45784064967218       12.40441723600509       22.40179941065466
N           18.38830725826658       12.05777434664720       22.97350875404564
N           17.12678083867029       13.07634386995907       20.60948047132990
N           14.54499288681888       12.83045167658050       21.85773129174905
N           15.78748371910102       11.77156672978566       24.19730443757355
C           18.80321320889515       11.53651856754098       24.15679245138081
C           20.24316622506749       11.40731816288794       24.17834466956799
C           20.68383453519068       11.93628408712057       23.00144161364951
C           19.50845296780399       12.30915858067912       22.24533465155620
C           18.42218009983387       13.16057200603669       20.19445824226447
C           18.49284061486956       13.75763550199610       18.87932747797426
C           17.20749977660920       14.05638747620020       18.52600411921855
C           16.36897907351207       13.61128168393119       19.61950447543157
C           14.15117013719770       13.36073212927085       20.66401614660363
C           12.72385004120784       13.54994376474036       20.63390564328373
C           12.25867169062767       13.12792691118257       21.85381904873211
C           13.42272105407761       12.67601645098081       22.61185371558668
C           14.49319844173010       11.68996139101225       24.63641700605266
C           14.47166500286350       11.09722578568788       25.97122612447751
C           15.77247952652440       10.86680039446328       26.30794127859988
C           16.57938781837965       11.29874302252723       25.19841347027008
C           17.96099360962102       11.19864673448488       25.19858810961066
H           18.42039595774121       10.81678566116345       26.09904914829265
C           19.52851436214340       12.79955821588637       20.94844744326673
H           20.49752740965142       12.91791704126204       20.48341004118171
C           14.99075046574797       13.71475927182731       19.61875465576549
H           14.52541176964918       14.12406062789411       18.73188383163048
C           13.39451094930514       12.12762833662176       23.89756049022462
H           12.42062084439918       12.03974218467409       24.36505077588820
C           22.10672787837008       12.11199309286479       22.58848804894321
H           22.43854371145765       11.29204037539434       21.95208110887596
H           22.74465455977130       12.13700087209078       23.46915362895127
H           22.24013858926812       13.04296355813302       22.04287145099773
C           21.08392847201137       10.70873691154723       25.20169906716709
H           20.47876568524203       10.08176158745577       25.85058166858596
H           21.64588181846314       11.40289475492710       25.82672979567344
H           21.80438198228878       10.06571483880468       24.69431570455570
C           19.71643956158793       14.03219809491544       18.06913588479027
H           19.93876826353136       13.18612108737145       17.41848074403847
H           20.58523748076133       14.21187800859586       18.69689616644047
H           19.55818675409902       14.90262901321158       17.43363125485574
C           16.75883978343034       14.75062252045432       17.32880940943190
H           16.19065962698656       15.66362935805790       17.48482059674018
C           17.01949381707897       14.35536386532317       16.09530741405102
H           17.56233703467392       13.44733564876931       15.89914333303644
H           16.69165104411575       14.91709827018614       15.23814048969962
C           11.94472319870652       14.18325988300446       19.52264090809219
H           11.62623227166268       13.45021095458172       18.78013806302906
H           12.53741310865450       14.93543847277254       19.00469024374770
H           11.04976117693553       14.66574211657139       19.91355816758650
C           10.86717409492489       13.16490707318871       22.27329970400748
H           10.65374824465433       13.59273010113513       23.24634608096011
C            9.87494134657881       12.74934522429432       21.50707047869535
H           10.05943020740249       12.30775863858705       20.54261131823732
H            8.84291870055304       12.82526820594939       21.80391921779608
C           13.34457911283847       10.72048689471973       26.88119796967374
H           12.36685606147609       10.91995901249048       26.46177568265965
H           13.43283522334124       11.25603968323970       27.82939366843367
H           13.41206724595583        9.65596601622237       27.11685586980095
C           16.26960852499588       10.22732691112773       27.56389073941478
H           16.33684792987555        9.14505248051282       27.43875047664548
H           15.59168221660581       10.42529605126544       28.38992765219775
H           17.25499468546723       10.59380930042732       27.83830944830649
C           15.89566193718652       17.17137983942807       25.24011526209102
H           15.55340805500272       18.04885943413645       24.69462479603991
H           16.69373877292460       17.47429979552048       25.91516587464547
H           15.07088529896009       16.78080342491544       25.82509243623113
N           17.41144620628208       16.34081671216909       23.43280565733564
H           17.93300491775567       17.19814611706237       23.34393909263822
C           16.37329955246006       16.12853583110556       24.30073879442251
C           17.59302968307327       15.20688882828930       22.72085004408888
H           18.34916141587419       15.09109554530803       21.97183006655196
N           16.72878350941749       14.29201705429083       23.08496019046038
C           15.96637836218565       14.84710676995702       24.06722030776914
H           15.19072687149125       14.27699623586182       24.53225370161548
C           18.55038543541167        8.75900333379957       21.90315433563849
H           19.01935360732676        7.92576924050059       22.42209041697953
H           19.16765926599848        9.64125559886986       22.02983832062734
H           18.49397152730316        8.52824372878826       20.84369059829380
C           17.15983267126191        8.99765369491142       22.46425701269386
H           17.21374064104360        9.28508239981156       23.51449911371433
H           16.55142992954243        8.10101563066999       22.36175487319575
S           16.31887608681523       10.32119730078496       21.49714539058074
C           14.66490167264979        9.57017390486748       21.41822700770399
H           14.26960096041249        9.31694718553216       22.39959131381174
H           14.74630151731782        8.67993527639188       20.79867011169872
H           14.00453175335808       10.28604038978501       20.93945482918993
87
 energy: -124.708896556812 gnorm: 0.015541389572 xtb: 6.7.1 (edcfbbe)
Fe          16.47176154009099       12.40573874953377       22.40027815988214
N           18.38980114547914       12.05448927646644       22.96366651154309
N           17.13848709558966       13.08231749180119       20.61561303077189
N           14.56052671042628       12.84254959448723       21.86956535013967
N           15.79774432000783       11.76302295209936       24.19121626166043
C           18.80111744786459       11.52324669088265       24.14093160896292
C           20.23913032603735       11.39754264894086       24.16312745234517
C           20.68413069321664       11.93101520514504       22.99091738770545
C           19.50943257686513       12.31088964400674       22.24088794053526
C           18.42768460511090       13.16210543389052       20.19753079669232
C           18.49486962362597       13.75056006485107       18.87933749016893
C           17.20911261412409       14.04819500473266       18.52999215210678
C           16.37791836649193       13.61366292788709       19.63091447387589
C           14.16603631574451       13.37329080598426       20.68262426823660
C           12.73656931129149       13.55008280402115       20.65650875891468
C           12.27516772701270       13.11902280608081       21.87215681926838
C           13.44084071670648       12.67653421806673       22.62079339594660
C           14.50616109934658       11.68185059307376       24.62576412976175
C           14.47319463676179       11.09760535062627       25.95412242354656
C           15.77066832798343       10.86500421323371       26.30288438790234
C           16.58183111736725       11.28874117299262       25.19020270306551
C           17.96205631112679       11.18291358954361       25.18367092534042
H           18.42342419451528       10.79901906933303       26.08090541224185
C           19.53426480714916       12.80349729308195       20.94819589857694
H           20.50324731579397       12.92060123077341       20.48572478531809
C           15.00201503009906       13.72229521024537       19.63460204246002
H           14.54000914949747       14.12490844746694       18.74466637379413
C           13.40838949495819       12.12142027307053       23.89543132802404
H           12.43489563924702       12.03074634396169       24.36001541475292
C           22.10377826236455       12.10449210711173       22.57237721692400
H           22.43113864397852       11.28569939485781       21.93176366757533
H           22.74536869915990       12.12641278671996       23.45051267209701
H           22.23684687350266       13.03651562100194       22.02791592785693
C           21.07120965428985       10.72341610806189       25.20207202950802
H           20.46237826358226       10.10372215269771       25.85400669922408
H           21.61598337430886       11.43933573305774       25.81804865437732
H           21.80380922562374       10.08053374053623       24.71203310161669
C           19.71839580728263       14.02319335783821       18.07655112271859
H           19.95131768011847       13.17235364060077       17.43583808153299
H           20.58164833776853       14.21572064337215       18.70866315872785
H           19.55181523769338       14.88696083435876       17.43464563102019
C           16.74901669600651       14.73934536489299       17.33042623075146
H           16.15514195240417       15.63390290287112       17.49799961437258
C           17.02845070038670       14.35636314404359       16.09392382673602
H           17.58322643425747       13.45582839359257       15.89481170191924
H           16.68751360666980       14.90821084295866       15.23449907846057
C           11.95792696508652       14.16889409823683       19.54639076370225
H           11.65982220155847       13.42718788558041       18.80415201209528
H           12.54598404126786       14.92951634863023       19.03592983134254
H           11.05341555940892       14.63390682904892       19.93630375202209
C           10.88378412489131       13.14143449707868       22.29948569924450
H           10.68409593604012       13.53928219135209       23.28910373731357
C            9.87824971033840       12.75788696938204       21.52130918431234
H           10.05209399003887       12.31951460846395       20.55282404273891
H            8.84926892467767       12.81999700994304       21.83103943676030
C           13.32185597249806       10.74386875067677       26.83769174134586
H           12.35561315804309       10.95580274699555       26.39669150623064
H           13.40067827582800       11.28587926279283       27.78232679191777
H           13.36999869381811        9.67963529105923       27.07764923436323
C           16.26275071397384       10.23497468845179       27.56106480763473
H           16.33338552988847        9.15233886800408       27.43930661040658
H           15.58090149863671       10.43554791571521       28.38358757411829
H           17.24634660717196       10.60713449713852       27.83537609337100
C           15.89344292694622       17.17954888621674       25.24373785539703
H           15.55276260409267       18.05983133849966       24.70079327094833
H           16.69143227004918       17.48194124780375       25.92000464128127
H           15.06845919912732       16.79038091797916       25.83001049705370
N           17.40642770983028       16.33705908029235       23.43689355851469
H           17.93629502658015       17.18928533987251       23.34564872931531
C           16.36599766955375       16.13363386703577       24.30440677885921
C           17.57653024238576       15.19748830929860       22.72660518180583
H           18.33014741410099       15.07407061923824       21.97743270319123
N           16.70635552075562       14.28881102793296       23.09095075133669
C           15.94872302698179       14.85498979420469       24.07058702542285
H           15.16555840183713       14.29674125472178       24.53753901404528
C           18.55533893272176        8.75103254177429       21.90489381484992
H           19.02725439804084        7.92547599687292       22.43242107833656
H           19.16660853428998        9.63901352049791       22.02499595669125
H           18.50293869959062        8.51230390473664       20.84659196325712
C           17.16126708651455        8.99537098549831       22.45034592968811
H           17.19405804938107        9.31471063918594       23.49296868412707
H           16.54632465747030        8.10210933342123       22.35951623864905
S           16.34111346710578       10.31049572327374       21.44302304238164
C           14.66417174301012        9.57906269151064       21.41441803151422
H           14.30325163586937        9.36290364758186       22.41942451107731
H           14.70898731629335        8.67222831616948       20.81386416717385
H           14.01085385537442       10.30383268297630       20.94235765720257
87
 energy: -124.712289693299 gnorm: 0.016393659524 xtb: 6.7.1 (edcfbbe)
Fe          16.48488502171353       12.41606966404054       22.39602445169968
N           18.38605208427524       12.05598108426818       22.94999518580846
N           17.14942513484012       13.09604942447785       20.62654215268391
N           14.57980095617494       12.84902522941709       21.87962408939636
N           15.81176345381931       11.74566465229910       24.17504140292420
C           18.79746265355301       11.51356025527215       24.12397445342894
C           20.23493576756879       11.38795354392578       24.14640670472072
C           20.68304239184196       11.92479738116901       22.97831189874742
C           19.50906310198526       12.31070494171303       22.23173951210211
C           18.43438380787006       13.16622996445327       20.19806671246423
C           18.49637341379590       13.74297526828281       18.87515364997083
C           17.20928718339889       14.03897818986738       18.53044304403645
C           16.38505897077821       13.61987569819805       19.64198288673607
C           14.18053814514909       13.38436644833217       20.69982243981775
C           12.74915646796865       13.54702756791912       20.67698439304879
C           12.29232673654691       13.10452309882901       21.88884418749816
C           13.46132253111693       12.67462504540870       22.62878084566889
C           14.52262066402898       11.67169223636437       24.61070323091286
C           14.47776726545084       11.09550444489616       25.93416640932816
C           15.77025631132625       10.85831578551012       26.29522834463439
C           16.58695373113459       11.27288964567249       25.18053793188299
C           17.96553169514914       11.16326894822013       25.16873553609959
H           18.43055369015998       10.77078273111558       26.05987575795695
C           19.54258242321517       12.80716709514277       20.94298181202583
H           20.51261350017704       12.92229034550260       20.48381501484018
C           15.01079808880329       13.73367430537213       19.64992251762136
H           14.55205939045447       14.13253395523722       18.75784821421209
C           13.42281805737566       12.11342852944954       23.89325250535999
H           12.45012036526605       12.01735129719468       24.35536986639784
C           22.10029251479446       12.09394294307921       22.55092592305753
H           22.41854693998475       11.27555871680135       21.90342094539843