87
 energy: -124.597886746973 gnorm: 0.321524250163 xtb: 6.7.1 (edcfbbe)
Fe          13.25800000000000       46.58600000000000      -16.68300000000000
N           13.26900000000000       46.03400000000000      -14.73700000000000
N           12.37300000000000       44.86699999999999      -17.19300000000000
N           13.30100000000000       47.11500000000000      -18.61000000000000
N           14.09100000000000       48.30200000000000      -16.21200000000000
C           13.69200000000000       46.80200000000000      -13.68200000000000
C           13.54600000000000       46.03400000000000      -12.45700000000000
C           13.03600000000000       44.84400000000000      -12.78900000000000
C           12.84200000000000       44.82300000000000      -14.22500000000000
C           12.09200000000000       43.81699999999999      -16.32900000000000
C           11.45800000000000       42.74700000000000      -17.06500000000000
C           11.31900000000000       43.17800000000000      -18.33900000000000
C           11.87700000000000       44.49600000000000      -18.42100000000000
C           12.79000000000000       46.40300000000000      -19.66700000000000
C           13.15600000000000       47.04399999999999      -20.93200000000000
C           13.92000000000000       48.09700000000000      -20.62400000000000
C           13.98700000000000       48.16800000000000      -19.17900000000000
C           14.53000000000000       49.29999999999999      -17.08100000000000
C           14.94700000000000       50.45999999999999      -16.33200000000000
C           14.75600000000000       50.18900000000000      -15.02400000000000
C           14.30500000000000       48.81900000000000      -14.94500000000000
C           14.11200000000000       48.10599999999999      -13.77700000000000
H           14.31200000000000       48.62900000000000      -12.84200000000000
C           12.34200000000000       43.79600000000000      -14.98300000000000
H           12.12000000000000       42.86600000000000      -14.46000000000000
C           12.06200000000000       45.23800000000000      -19.57500000000000
H           11.59200000000000       44.86900000000000      -20.48700000000000
C           14.53900000000000       49.17900000000000      -18.44200000000000
H           15.03900000000000       49.97199999999999      -18.99900000000000
C           12.67400000000000       43.68899999999999      -11.85700000000000
H           12.72700000000000       44.03299999999999      -10.80200000000000
H           13.39200000000000       42.85300000000000      -11.99900000000000
H           11.64000000000000       43.34300000000000      -12.07200000000000
C           14.03200000000000       46.50700000000000      -11.07800000000000
H           13.22000000000000       47.07299999999999      -10.57300000000000
H           14.91400000000000       47.17200000000000      -11.19900000000000
H           14.30200000000000       45.62900000000000      -10.45300000000000
C           11.11800000000000       41.37299999999999      -16.49100000000000
H           10.28800000000000       41.47200000000000      -15.75900000000000
H           12.00600000000000       40.95200000000000      -15.97300000000000
H           10.79800000000000       40.69300000000000      -17.30900000000000
C           10.70500000000000       42.45000000000000      -19.52800000000000
H           11.25500000000000       42.15900000000000      -20.43100000000000
C            9.20700000000000       42.15400000000000      -19.34000000000000
H            8.68800000000000       42.46100000000000      -18.42000000000000
H            8.63800000000000       41.63200000000000      -20.12400000000000
C           12.75500000000000       46.49700000000000      -22.32000000000000
H           11.66100000000000       46.62400000000000      -22.46700000000000
H           13.00400000000000       45.41600000000000      -22.38400000000000
H           13.29200000000000       47.05799999999999      -23.11400000000000
C           14.74700000000000       49.00299999999999      -21.54500000000000
H           15.83800000000000       49.10600000000000      -21.48300000000000
C           13.91500000000000       49.77300000000000      -22.58500000000000
H           12.82200000000000       49.65200000000000      -22.62600000000000
H           14.40400000000000       50.45300000000000      -23.29800000000000
C           15.36800000000000       51.79400000000000      -16.96500000000000
H           14.52500000000000       52.20400000000000      -17.56100000000000
H           16.23900000000000       51.63300000000000      -17.63600000000000
H           15.63300000000000       52.52100000000000      -16.16800000000000
C           14.94300000000000       51.15700000000000      -13.85500000000000
H           14.55900000000000       52.16000000000000      -14.13900000000000
H           16.02300000000000       51.24099999999999      -13.60600000000000
H           14.37700000000000       50.79200000000000      -12.97100000000000
C           17.38500000000000       43.11600000000000      -18.17100000000000
H           17.67700000000000       42.44200000000000      -17.33700000000000
H           18.30300000000000       43.46200000000000      -18.69300000000000
H           16.73500000000000       42.55500000000000      -18.87700000000000
N           17.19200000000000       45.15300000000000      -16.72600000000000
H           18.14100000000000       45.14300000000000      -16.41000000000000
C           16.64600000000000       44.28299999999999      -17.62900000000000
C           16.22300000000000       46.00899999999999      -16.35200000000000
H           16.38400000000000       46.81400000000000      -15.63500000000000
N           15.07400000000000       45.73700000000000      -16.96600000000000
C           15.35400000000000       44.65500000000000      -17.76200000000000
H           14.57300000000000       44.22800000000000      -18.37900000000000
C           11.22800000000000       50.12600000000000      -17.29100000000000
H           10.74800000000000       50.82800000000000      -18.00500000000000
H           12.32600000000000       50.14299999999999      -17.46100000000000
H           11.00400000000000       50.46400000000000      -16.25700000000000
C           10.69200000000000       48.71600000000000      -17.50300000000000
H           11.07400000000000       48.33200000000000      -18.47200000000000
H            9.58400000000000       48.76000000000000      -17.55800000000000
S           11.19200000000000       47.59900000000000      -16.16500000000000
C            9.85900000000000       46.39300000000000      -16.20600000000000
H            9.80400000000000       45.88499999999999      -17.19300000000000
H            8.88400000000000       46.89200000000000      -16.02300000000000
H           10.02100000000000       45.61599999999999      -15.42900000000000
87
 energy: -124.689737422152 gnorm: 0.142525068432 xtb: 6.7.1 (edcfbbe)
Fe          13.26171927264425       46.58930224027856      -16.68897834442115
N           13.26944076685098       46.03608573280393      -14.73965142119470
N           12.36211759027254       44.86374729206271      -17.19063251393994
N           13.30610321416311       47.11506382395839      -18.62801734204677
N           14.10579327367593       48.31263512921936      -16.20755311833333
C           13.68635155296136       46.79525524829103      -13.68463780925403
C           13.56058413712888       46.03493217676844      -12.45255953700937
C           13.03536119037369       44.83438176115988      -12.78676842427004
C           12.85323088504608       44.83308940924180      -14.22580879850799
C           12.09457094535218       43.81533150450385      -16.34169917765761
C           11.45912487589960       42.73795916732151      -17.07051220726708
C           11.30417257947349       43.16704292150688      -18.35596569992112
C           11.88958059442277       44.48886608264241      -18.42139066141698
C           12.78637453845464       46.41086719812130      -19.67681401420161
C           13.15558053709689       47.03689433139071      -20.94314415946175
C           13.93934084844115       48.10506171613873      -20.63957160920469
C           13.99671804575829       48.16032369239954      -19.18620857887149
C           14.53432393108718       49.29736173971995      -17.07275582709941
C           14.94072525474029       50.47038495577482      -16.33601220646549
C           14.75530270721198       50.19353348442877      -15.01919400868317
C           14.29397059110815       48.82373032248976      -14.94702343825906
C           14.10801909083183       48.10712173838913      -13.77694870913578
H           14.31592981052822       48.62406487584728      -12.84592540717108
C           12.34718076726461       43.79539921970449      -14.98328027026882
H           12.11440171071045       42.87329245063917      -14.45934222979823
C           12.05648442947362       45.23964740308789      -19.57660924485189
H           11.59867250883122       44.86172364382333      -20.48440966444339
C           14.55144303548494       49.18074471845205      -18.44683421359563
H           15.03412829869954       49.97823081059039      -19.00194834071082
C           12.67656098237929       43.69575552371933      -11.86383418070341
H           12.72525369047326       44.02598302207513      -10.81935843530355
H           13.37757688367696       42.86145606015335      -11.99840267152614
H           11.65772264306590       43.34489850869512      -12.06933489386154
C           14.02510084208888       46.50563169438097      -11.09033646075512
H           13.23080364295869       47.06690333887853      -10.58025076327955
H           14.89929398867634       47.15906156243390      -11.19559642508956
H           14.29808849049323       45.64662489108569      -10.46503244234903
C           11.11772312548428       41.38587272240829      -16.49475676032075
H           10.29928430974406       41.47032442488466      -15.76754633511912
H           11.99051996402835       40.95894083283221      -15.98284962130415
H           10.80269012879820       40.70678807743360      -17.29617200413398
C           10.62810912063478       42.45560411105413      -19.48511312212435
H           11.19810004696656       42.17667819903325      -20.38013734600717
C            9.27464902767817       42.16137972869325      -19.35212677177610
H            8.73531394537372       42.45729435647908      -18.45262382582744
H            8.68763933156720       41.64852636604201      -20.11383622478639
C           12.75800148772110       46.50249880029978      -22.30527043022877
H           11.67748447756454       46.62223921007757      -22.46219206888807
H           13.00087025798914       45.43495210375369      -22.38223186394665
H           13.28582217875741       47.04994009267876      -23.09553931176764
C           14.66631858064619       49.02941378511913      -21.57521126781909
H           15.75826884739106       49.11562261238605      -21.49567079251868
C           13.95470944870497       49.73615049232304      -22.54059912677781
H           12.87131927242101       49.64107508994574      -22.60240367104689
H           14.41576561615919       50.41688440781699      -23.25697930039890
C           15.36389941123685       51.78142799381433      -16.96126863349069
H           14.53829348536442       52.19699570541913      -17.55413034028411
H           16.22594424448499       51.63598758110937      -17.62468733135256
H           15.63129881020354       52.50572425071515      -16.18315935588436
C           14.94259414464241       51.14589083861198      -13.86217084136466
H           14.56632733935492       52.14081067272838      -14.13384277576653
H           16.00659468228764       51.23883212720564      -13.60553327930638
H           14.38889759202649       50.79824642519995      -12.98306624721747
C           17.38796069063266       43.11660482260646      -18.17192422770296
H           17.67826148392451       42.44547146947528      -17.35245374297489
H           18.29521876460257       43.45010661237009      -18.69115987258142
H           16.74953205124585       42.56339693488155      -18.86858778932544
N           17.18818293545581       45.15337794686153      -16.72478335084194
H           18.14191342558754       45.14519095293389      -16.40769850602824
C           16.64242409719292       44.27682048844012      -17.62482856694006
C           16.21737333705647       46.01183641086862      -16.35104557636103
H           16.37466425094174       46.80923022757979      -15.64308169783509
N           15.08018362359319       45.73666295908535      -16.95995871887352
C           15.34492570706691       44.65745725099350      -17.75959208603915
H           14.57346329712642       44.23337696117076      -18.37572222881840
C           11.22650754493732       50.12521791984992      -17.28996536201119
H           10.75590704009256       50.82004177530411      -17.99602041054068
H           12.30912402713628       50.14609545267900      -17.45188678858210
H           11.00961686163757       50.46200036087605      -16.26976787967727
C           10.68562030663951       48.72035357681767      -17.51429576287644
H           11.06676700589977       48.32720538610042      -18.46592337453264
H            9.58838678475191       48.75035135683106      -17.55240170815045
S           11.18892130074739       47.60332432906435      -16.16328764603770
C            9.84964399237287       46.39041333028183      -16.21556504915595
H            9.80730305663397       45.88814544772738      -17.18859837359665
H            8.89259669801049       46.88953581212710      -16.02165274317374
H           10.02691469168215       45.63529181483074      -15.44033663755400
87
 energy: -124.703794824531 gnorm: 0.124261681222 xtb: 6.7.1 (edcfbbe)
Fe          13.26354070412819       46.58970115672268      -16.69263639905141
N           13.27629342535252       46.03210279807118      -14.74465411326576
N           12.36010267931096       44.85559743002833      -17.19047539522973
N           13.31354532961256       47.11395454798345      -18.64459754719213
N           14.11964996512911       48.32181239356950      -16.20804299646888
C           13.68580442305019       46.78911980323272      -13.69269853774482
C           13.57030424536605       46.03929712927571      -12.45650616110419
C           13.03808486123572       44.82998116064708      -12.79164774360123
C           12.86537572020425       44.83984012504882      -14.23179686526974
C           12.10237435119371       43.81417537492803      -16.35139058891655
C           11.45728609400118       42.73765063855490      -17.07244898680138
C           11.29003934729540       43.16713706101152      -18.36213786786792
C           11.89606861685471       44.48856196875719      -18.41936147283407
C           12.78938235073749       46.41313857940429      -19.68499217655449
C           13.14798857959390       47.03567874734618      -20.94711505012985
C           13.94090036700478       48.11195565024147      -20.64721454075522
C           14.00416674988660       48.15355166612933      -19.19149501117241
C           14.53875685446804       49.29185562841347      -17.06979072906808
C           14.93404220397804       50.47597267801792      -16.34072982296521
C           14.75147458494347       50.19599628088626      -15.01867450014232
C           14.28593136250188       48.82575679953846      -14.95268231284946
C           14.10695386811231       48.10693356862311      -13.78093290929499
H           14.32088180254435       48.61796345607424      -12.85215821129631
C           12.35351583745990       43.79447948238803      -14.98523088330307
H           12.10595362908778       42.88215210314475      -14.45865298297244
C           12.05399875980174       45.23895227343344      -19.57709050973649
H           11.60996737119152       44.84899888159890      -20.48267839363921
C           14.56431177252064       49.18095032592889      -18.45292837404476
H           15.02800222133304       49.98605671670775      -19.00605718169739
C           12.68132536681504       43.70289980655874      -11.87627266494612
H           12.72668783322417       44.02568133537311      -10.83801061773083
H           13.36909460553415       42.86571265580430      -12.00431444651264
H           11.67114920244147       43.34753749851222      -12.07544407315268
C           14.01820920385661       46.50563890242893      -11.10696229855327
H           13.23240808920550       47.06357414164371      -10.59547007423022
H           14.88871801094570       47.15270410745684      -11.19746984996923
H           14.29059634942061       45.65730528292885      -10.48021252793089
C           11.11539257129154       41.40065012366929      -16.49986377292922
H           10.30528748611227       41.47669480652953      -15.77366987014143
H           11.97988513189964       40.96985241793618      -15.99252170862151
H           10.80279291685164       40.72146903170446      -17.29103424730517
C           10.57813406958773       42.46579418332931      -19.44818345504441
H           11.16089424030654       42.20535778411413      -20.33671261785357
C            9.33278881166990       42.18131103741632      -19.35101905163264
H            8.76618536818830       42.45378505696055      -18.46769156108838
H            8.74971977589526       41.66466216476886      -20.10338168944656
C           12.76132565661325       46.51036022453611      -22.29049860893106
H           11.68820125395127       46.62302144454397      -22.45412983991907
H           13.00179185811187       45.45029722085555      -22.37606386667000
H           13.28465380920027       47.05013993016150      -23.07766855597966
C           14.60487681313861       49.03430497039851      -21.59081509814187
H           15.69138193624758       49.12096820831261      -21.48526072587939
C           13.97092319234919       49.70048608374948      -22.48469304359485
H           12.89417706308274       49.62857191215035      -22.58403484170720
H           14.43100596412691       50.36955548846591      -23.20335280755657
C           15.35980891462237       51.76849026347064      -16.95820299026537
H           14.54631181560891       52.18896858062902      -17.55167060697044
H           16.21739445825848       51.62956611198680      -17.61593532349454
H           15.63006047305089       52.48965893571320      -16.19009126061663
C           14.94149947919686       51.13387780518836      -13.86922701964106
H           14.57197185415168       52.12517758666295      -14.13266798579000
H           15.99661810971093       51.22993523879178      -13.60719289042206
H           14.39677175363803       50.79509386407697      -12.99218600427753
C           17.39102693313745       43.11807260791461      -18.17272189102500
H           17.68336601449867       42.44604503934488      -17.36519994245497
H           18.29065068636968       43.44576417340299      -18.69118982213604
H           16.75976608151186       42.57148545935959      -18.86570115760209
N           17.18354993095426       45.15215938500770      -16.72130193688883
H           18.13969660275239       45.14666105715744      -16.40408243753413
C           16.63775153513458       44.27095494804274      -17.61832900887020
C           16.21033557614708       46.01394342121461      -16.34979104339056
H           16.36235426382922       46.80847019876605      -15.64898183466448
N           15.08304871781483       45.73577162704226      -16.95637613400563
C           15.33659132946044       44.65780220229228      -17.75499854468684
H           14.57272572621646       44.23562504023246      -18.37299127794743
C           11.22184219090393       50.12549725779512      -17.29212241401160
H           10.76042728719047       50.81811717701318      -17.99341437455821
H           12.29647805347824       50.14287389724759      -17.44280352651198
H           11.00750977482358       50.45617489774099      -16.27879714621222
C           10.67688645445402       48.72530036220575      -17.52503009172854
H           11.05759262975121       48.32077839680523      -18.46209859537078
H            9.58694404789924       48.74038290607827      -17.54403158109735
S           11.18985004229330       47.60971837306820      -16.16240656204351
C            9.84277660364290       46.39025416179611      -16.22595704060178
H            9.81323956011583       45.89475697282943      -17.19123902764763
H            8.89904364735837       46.89121244907605      -16.02313693281636
H           10.03880479405601       45.65374935602972      -15.45055341427840
87
 energy: -124.710649128608 gnorm: 0.016339704443 xtb: 6.7.1 (edcfbbe)
Fe          13.26497922264578       46.59179939108972      -16.69099378061739
N           13.28433700300822       46.03233656951559      -14.75058781785532
N           12.36509557700360       44.86040514946266      -17.18461105695110
N           13.31470022723888       47.10769908629712      -18.64019063924733
N           14.12668209440548       48.31963414267603      -16.20964558359492
C           13.69246315733376       46.78896984402520      -13.69926875580954
C           13.57899953673457       46.03786113160130      -12.46595256314022
C           13.04943987922882       44.82925824957643      -12.80010948126737
C           12.87771731663396       44.83973347512530      -14.23768434855668
C           12.11117019693357       43.81718468719428      -16.34788245810713
C           11.46077481889523       42.74526743873566      -17.06560840438204
C           11.29712127006693       43.17957254047985      -18.34929257003420
C           11.90067522079791       44.49522353301526      -18.41141355466217
C           12.78720859322725       46.40893624411495      -19.68008058615789
C           13.14315706411062       47.02946227830168      -20.93864815539503
C           13.93163473240319       48.10127385605510      -20.63189343395563
C           14.00618317376736       48.14557134900628      -19.18362758960696
C           14.54400872917115       49.28832052646145      -17.07132385707295
C           14.93136519684884       50.47366415142842      -16.34226056215916
C           14.74835155375897       50.19437998278143      -15.02162909724784
C           14.28405179566371       48.82580246545015      -14.95503264330289
C           14.10796247278849       48.10714225667186      -13.78443896786010
H           14.32764414561150       48.61443025000361      -12.85543877865944
C           12.36239781655221       43.79496552598007      -14.98500374866998
H           12.10012999021761       42.88886410252539      -14.45487025484760
C           12.05466486852598       45.23637769221320      -19.57224873703679
H           11.62193060944247       44.83404670666756      -20.47877233407534
C           14.56956679376109       49.17611365431932      -18.45287371102070
H           15.01915522980615       49.98824376460358      -19.00990629188532
C           12.68706714250728       43.70312760812410      -11.88810220111405
H           12.73098353027453       44.02568329950655      -10.85021829029545
H           13.37004389303665       42.86237747720542      -12.01552788252648
H           11.67685558461395       43.35014493137685      -12.08927598373050
C           14.01500982305156       46.50898981872658      -11.11651391722893
H           13.22476013021163       47.06689053211741      -10.61258334099692
H           14.88578421852286       47.15561358720847      -11.20157312969231
H           14.28371158208355       45.66179079693423      -10.48815841369833
C           11.11140053198687       41.41032741725046      -16.49869054561157
H           10.30272882665587       41.48775783119260      -15.77162343367872
H           11.97509496495555       40.97555353741220      -15.99511414219752
H           10.79594734732617       40.73610587073026      -17.29221707547316
C           10.60090811393651       42.49098752447689      -19.43720411094571
H           11.17597006522055       42.24323034765952      -20.32524805849383
C            9.31410815029743       42.16443834019334      -19.34668300621513
H            8.74342588938964       42.43780967458954      -18.47017074204237
H            8.76391122152102       41.65426381907108      -20.12138534914757
C           12.75987917068063       46.51239231009511      -22.28363628744111
H           11.68739498405231       46.62486598283328      -22.44828766332024
H           13.00328990266764       45.45393176206091      -22.37188619859614
H           13.28680517223780       47.05727550295514      -23.06387988362155
C           14.59517989210798       49.02283589279726      -21.55373980244400
H           15.67258993017863       49.11778851941768      -21.44350663855134
C           13.95580200307184       49.69958324015101      -22.50382095728265
H           12.88134563628611       49.63786964619929      -22.59937208543870
H           14.44714119619585       50.36463253457136      -23.19768334676030
C           15.36000085352740       51.76216530106572      -16.96065436043510
H           14.54947801331602       52.18407877430220      -17.55654420315181
H           16.21843342091245       51.61885195217421      -17.61535073567353
H           15.63197059135731       52.48108964593978      -16.19209079543144
C           14.94307589945591       51.12599236124630      -13.87038426043374
H           14.57653013877814       52.11826334401784      -14.13098533521865
H           15.99808961440131       51.21712929021557      -13.60821740886034
H           14.39933523073771       50.78596692156417      -12.99365039694610
C           17.39306943564969       43.12151745245638      -18.17362891890223
H           17.69159226246747       42.44267777812722      -17.37409308877391
H           18.29098231545137       43.45136821026876      -18.69383201494431
H           16.76452895119567       42.57656339489846      -18.87015964194311
N           17.17860340841996       45.15045052986314      -16.71489612326017
H           18.13462071093234       45.14809054146228      -16.39815228404326
C           16.63445844482254       44.26825910389955      -17.61200614658506
C           16.20430713562749       46.01273720319015      -16.34679940841641
H           16.35213205687540       46.81162727897267      -15.64986087681629
N           15.07813437041491       45.73226905798721      -16.95378623674937
C           15.33284030904578       44.65344813871457      -17.74951767146952
H           14.56990331060167       44.23344989165055      -18.37074024415295
C           11.21290349914850       50.12359770825751      -17.29510836355899
H           10.75927473024720       50.82024750727060      -17.99718976426925
H           12.28887057914039       50.13888233031828      -17.43638320446092
H           10.99629080318265       50.45351041140513      -16.28206513368680
C           10.66783738199729       48.72459206320147      -17.52898036884877
H           11.04384612281352       48.31357234896712      -18.46537461294194
H            9.57715033163037       48.73124580109882      -17.53699965731036
S           11.19331521312788       47.61743779517468      -16.16493766343971
C            9.84701692599351       46.39776554050886      -16.23475533265295
H            9.82052837113377       45.90311352130854      -17.20123477141234
H            8.90262983036832       46.89605531383208      -16.02722391071061
H           10.05254254757256       45.66517563640495      -15.45900481477705
87
 energy: -124.712337453175 gnorm: 0.012457067438 xtb: 6.7.1 (edcfbbe)
Fe          13.26854364252823       46.58873303241801      -16.68831578581034
N           13.29504612292248       46.03151825253256      -14.75692019249774
N           12.36927129697788       44.86202361815323      -17.17760823850903
N           13.31448665578116       47.10112837825974      -18.63415980859287
N           14.13210728852459       48.31712084366553      -16.21112753968069
C           13.70407034997604       46.78671154460988      -13.70651298237964
C           13.59101315591433       46.03707146743788      -12.47445737749993
C           13.06455899889186       44.82702333125264      -12.80844892442091
C           12.89204467061753       44.84002490875449      -14.24365537742875
C           12.11511766059471       43.81985471496308      -16.34350058308612
C           11.45531070466086       42.75292461307267      -17.05718295995043
C           11.29122144283269       43.18994071653565      -18.33905715520277
C           11.90422318971855       44.49929187558750      -18.40252601166583
C           12.78715121240659       46.40390857830170      -19.67433520691756
C           13.13333471463785       47.02770267213037      -20.93000816247694
C           13.91929347511133       48.10025954766126      -20.62027823296908
C           14.00192130455959       48.13980643089534      -19.17536097437348
C           14.54475747570736       49.28473886687974      -17.07180850181704
C           14.93143052716654       50.47120138466995      -16.34462275578506
C           14.74784487805876       50.19233574215544      -15.02437406376583
C           14.28722354779473       48.82341166740820      -14.95844494341632
C           14.11650619270782       48.10531671276360      -13.78807454263523
H           14.33681890250123       48.61072515603305      -12.85912575385493
C           12.36934865654212       43.79461807013423      -14.98280273262046
H           12.09985286220708       42.89344307485125      -14.44989441885823
C           12.05775043275610       45.23084958461266      -19.56678581900561
H           11.63279678436771       44.81947289559244      -20.47235194860621
C           14.56847770822588       49.17391849248682      -18.45262965651425
H           15.01020125229293       49.98718300296089      -19.01293788025741
C           12.69774307557446       43.70032483652903      -11.90262756541062
H           12.74094095045540       44.02014950462562      -10.86408122404924