78
 energy: -115.965120660516 gnorm: 0.287844289453 xtb: 6.7.1 (edcfbbe)
Fe          22.14300000000000       78.53300000000000       27.24900000000000
N           23.50500000000000       78.13000000000000       28.67900000000000
N           21.47000000000000       80.09099999999999       28.26800000000000
N           20.62600000000000       78.75800000000000       25.93500000000000
N           22.71900000000000       76.86199999999999       26.29400000000000
C           24.52500000000000       77.20900000000000       28.60100000000000
C           25.22800000000000       77.23900000000000       29.82100000000000
C           24.62800000000000       78.09800000000000       30.61600000000000
C           23.55200000000000       78.71400000000000       29.88900000000000
C           21.91500000000000       80.50300000000000       29.50100000000000
C           21.41400000000000       81.83399999999999       29.75400000000000
C           20.64699999999999       82.18800000000000       28.72100000000000
C           20.70500000000000       81.13600000000000       27.76400000000000
C           19.88900000000000       79.90800000000000       25.79900000000000
C           19.05100000000000       79.73299999999999       24.67900000000000
C           19.29000000000000       78.51600000000001       24.13000000000000
C           20.23900000000000       77.88599999999998       24.93700000000000
C           22.05900000000000       76.31200000000000       25.20400000000000
C           22.91900000000000       75.24999999999999       24.66900000000000
C           24.11300000000000       75.24900000000000       25.49800000000000
C           23.92300000000000       76.23300000000000       26.50600000000000
C           24.82400000000000       76.46899999999999       27.49400000000000
H           25.82600000000000       76.05100000000000       27.39900000000000
C           22.71300000000000       79.75600000000000       30.28900000000000
H           22.70200000000000       79.98999999999999       31.35300000000000
C           19.99100000000000       81.02600000000000       26.60700000000000
H           19.44400000000000       81.91200000000001       26.28600000000000
C           20.84400000000000       76.69099999999999       24.68300000000000
H           20.33100000000000       75.98999999999999       24.02400000000000
C           25.00000000000000       78.42200000000000       32.05400000000000
H           26.05099999999999       78.11400000000000       32.24400000000000
H           24.33200000000000       77.86900000000000       32.74800000000000
H           24.90800000000000       79.51499999999999       32.22800000000000
C           26.44100000000000       76.36600000000000       30.11799999999999
H           27.36600000000000       76.89900000000000       29.80900000000000
H           26.36700000000000       75.41400000000000       29.55000000000000
H           26.49400000000000       76.15500000000000       31.20700000000000
C           21.58500000000000       82.52499999999999       31.09300000000000
H           22.61100000000000       82.94600000000000       31.16500000000000
H           21.43800000000000       81.79200000000000       31.91500000000000
H           20.84900000000000       83.35200000000000       31.18500000000000
C           19.89800000000000       83.51600000000001       28.45900000000000
H           18.91100000000000       83.50000000000000       27.97400000000000
C           20.38900000000000       84.66700000000000       28.79000000000000
H           21.37300000000000       84.73500000000000       29.27700000000000
H           19.82900000000000       85.59199999999998       28.58900000000000
C           18.11200000000000       80.81900000000000       24.18300000000000
H           18.63900000000000       81.45299999999999       23.43800000000000
H           17.79100000000000       81.45499999999998       25.03500000000000
H           17.22500000000000       80.35599999999999       23.69900000000000
C           18.64800000000000       77.81300000000000       22.93200000000000
H           18.93000000000000       76.76900000000001       22.73300000000000
C           17.76800000000000       78.34900000000000       22.09500000000000
H           17.43400000000000       79.38899999999998       22.22600000000000
H           17.36200000000000       77.75999999999999       21.26000000000000
C           22.65300000000000       74.37299999999999       23.44200000000000
H           22.04600000000000       74.94099999999999       22.70500000000000
H           22.09300000000000       73.46299999999999       23.74600000000000
H           23.61700000000000       74.08600000000000       22.97000000000000
C           25.33600000000000       74.37900000000000       25.19500000000000
H           25.94700000000000       74.86100000000000       24.40200000000000
H           25.00700000000000       73.38000000000000       24.83900000000000
H           25.95600000000000       74.27000000000000       26.11100000000000
O           20.74700000000000       77.22300000000000       28.27500000000000
H           19.87600000000000       77.47000000000000       27.96400000000000
H           20.93300000000000       76.58499999999999       28.86499999999999
C           26.24700000000000       81.80299999999998       25.08200000000000
H           26.07700000000000       82.50800000000000       24.24000000000000
H           27.13600000000000       81.17699999999999       24.85300000000000
H           26.42200000000000       82.38600000000000       26.01100000000000
N           24.58200000000000       80.10200000000000       24.26100000000000
H           24.94400000000000       80.08199999999998       23.32900000000000
C           25.04300000000000       80.92900000000000       25.25300000000000
C           23.59200000000000       79.34399999999999       24.73200000000000
H           23.04000000000000       78.61499999999999       24.14000000000000
N           23.41100000000000       79.63000000000000       26.00100000000000
C           24.31300000000000       80.62500000000000       26.35700000000000
H           24.34500000000000       81.01899999999999       27.36500000000000
78
 energy: -116.022214814262 gnorm: 0.111439421807 xtb: 6.7.1 (edcfbbe)
Fe          22.13078169524497       78.51741897791379       27.24652310136294
N           23.50118483574040       78.14036985287804       28.66105649141905
N           21.49678671080552       80.10952104447348       28.24435309096123
N           20.64238689533608       78.76042233295553       25.92849265926409
N           22.72186898806914       76.87198793888366       26.28337666165876
C           24.53013282614032       77.23853689623829       28.58582573200044
C           25.24334824422781       77.23406834915122       29.82381393329587
C           24.62497231067143       78.10789005540504       30.64223431086393
C           23.54125570532209       78.70140807412903       29.89194355884268
C           21.90642466202191       80.50464831931043       29.48741931362289
C           21.38560116286707       81.82675992097266       29.77633688938119
C           20.63887229779899       82.20438964877830       28.70724517072006
C           20.70001433606604       81.12256880639583       27.76040335262264
C           19.89943394345073       79.89892433300540       25.77765437370135
C           19.03435597998974       79.74374733777844       24.65511056284641
C           19.25460418009413       78.49956722128648       24.12129112500725
C           20.25487545007340       77.89171320505434       24.93976495732264
C           22.08569706224358       76.28531113887513       25.21980564065752
C           22.93649035597564       75.24117640817708       24.67496093696464
C           24.09773612204568       75.24194481282093       25.44859270581719
C           23.91977126462558       76.24095888812504       26.45785402032120
C           24.82175248156172       76.47687477777066       27.47500157125899
H           25.80478558987705       76.02175582936560       27.41123385338672
C           22.71813111578439       79.74810281686759       30.29969752702688
H           22.74149329682387       80.01048143145047       31.35332432168268
C           19.98787628515908       81.02147716409280       26.59161915623442
H           19.43196245260706       81.90137452346454       26.28624337484967
C           20.86456674450211       76.67572305469797       24.69483688983943
H           20.36624829486357       75.99810365930087       24.00845939774501
C           24.99848230372444       78.42816829968810       32.05862958202885
H           26.03334751509990       78.12462796205007       32.24870113282182
H           24.34122950302906       77.88528286274777       32.74759122043874
H           24.90655123326973       79.50271459924517       32.23794164654668
C           26.43872422807036       76.36868892979082       30.11764564556574
H           27.35683825256096       76.88752086467950       29.81500711232173
H           26.37121312668776       75.42746918107511       29.56376555138598
H           26.49759179411179       76.15097511264305       31.18835490221145
C           21.58256369104737       82.52506162760901       31.08969998306488
H           22.59627586528588       82.93882251573181       31.16747716524753
H           21.43935767632042       81.81104112491037       31.90797706710504
H           20.86075901390439       83.34141926878435       31.18940366133426
C           19.90998531670595       83.49051563524023       28.46449164783546
H           18.93505038536971       83.45681423446125       27.97780490056163
C           20.39759547980003       84.66936122185349       28.80050749148943
H           21.36915450503831       84.75484914533345       29.27145156005474
H           19.84754551772936       85.58419669489879       28.59848557833208
C           18.10884184393813       80.82334475576516       24.18178820406322
H           18.62259951502277       81.45056736487746       23.44279821328638
H           17.79336561082370       81.45084586665118       25.01979406606513
H           17.22254423421141       80.38139902740481       23.72235395841482
C           18.64291627514560       77.82440292396814       22.94832005646165
H           18.94137370418103       76.79262382390543       22.76289849643234
C           17.77199390142451       78.35159684250981       22.09508252082668
H           17.43388444275396       79.37233143239619       22.19280059078174
H           17.36794998800372       77.76948166881752       21.27365788655249
C           22.65717342263436       74.38686044024975       23.46187501217451
H           22.05645931646562       74.93410323599991       22.72538810967265
H           22.10613170342992       73.47960900718780       23.74251610907073
H           23.59655973674493       74.09029396888273       22.98231564290249
C           25.31655907819145       74.38645552520079       25.19507724876391
H           25.93578415263539       74.85026106228034       24.41538446193241
H           25.01431410021566       73.39372527485585       24.84812312467864
H           25.93515783291234       74.27268798176374       26.09323178592463
O           20.73737041856971       77.24442174126671       28.28041987755888
H           19.85700843256420       77.45298004860122       27.97336264019758
H           20.92019680350327       76.55458205546674       28.89071069051472
C           26.24084010915162       81.80331613260557       25.07845127330546
H           26.08458604264475       82.50352211721069       24.24924448554103
H           27.12610838701856       81.19471224159442       24.85732779851292
H           26.41968910528871       82.37441804482509       25.99330908015425
N           24.58934517726637       80.10819241526968       24.25690776982897
H           24.94893434266839       80.08767726742337       23.31858923665185
C           25.05505501934610       80.91818052663909       25.25793349085781
C           23.59244734559450       79.35105690528573       24.74731780942943
H           23.04574456819240       78.62871190057447       24.16254798395095
N           23.40097000466311       79.62743322536134       26.01690993161889
C           24.30584149908382       80.60859808878065       26.35491401011351
H           24.33557718796549       81.00685098601735       27.35223790473537
78
 energy: -116.038849395119 gnorm: 0.029269745368 xtb: 6.7.1 (edcfbbe)
Fe          22.12522937792507       78.50852766028287       27.23730006174167
N           23.49830085898895       78.15488131928369       28.63952923149619
N           21.51143341960957       80.11516797975479       28.23068728366747
N           20.66433694490224       78.76522390449803       25.91466556182523
N           22.72848069008487       76.88270053242778       26.27176361348970
C           24.53069681852323       77.27048985197028       28.56776787456312
C           25.24948886007077       77.23907543336244       29.81765312697419
C           24.61708514875299       78.11360526620659       30.65058746683782
C           23.53431028996841       78.69883649855680       29.88495821312429
C           21.90240446989013       80.50106306241287       29.47438238685293
C           21.36677638135290       81.81133091991573       29.78842779582046
C           20.64111500055790       82.20883042415066       28.69467903990549
C           20.70778609483274       81.10698999215360       27.75258173765031
C           19.91757863814752       79.89392838620550       25.75705997219348
C           19.02760672557687       79.75048630158005       24.63928638570205
C           19.23203999070626       78.48786625165579       24.11928664728911
C           20.27282036345835       77.89827255435149       24.94049620511686
C           22.10655826478287       76.27631148001139       25.22508200755465
C           22.94844081281463       75.23685308408912       24.67811213979297
C           24.09029681654171       75.24152209867368       25.41213715955215
C           23.92401453531596       76.25467925649777       26.42369041265082
C           24.81543584808319       76.48479316456952       27.46220225385277
H           25.77425955075052       75.97845481599865       27.43556491295292
C           22.73082964912555       79.75107539753478       30.30155069280077
H           22.79695830864545       80.04854733395348       31.34280443150407
C           19.99374858495138       81.01790008723704       26.57490581053134
H           19.41487025764625       81.88648485185921       26.29118704186789
C           20.88569810542173       76.67487119487902       24.69516256112825
H           20.41174151832916       76.01868605155229       23.97555306097525
C           24.98848865754126       78.43292052028271       32.05750747745012
H           26.01521088893075       78.13400450289335       32.25152402791807
H           24.34031646580776       77.90182689445759       32.75421919026752
H           24.89963293418238       79.49826023752219       32.24738724300336
C           26.43311798297498       76.37767988522980       30.11284307222481
H           27.35370354841172       76.88137924389301       29.81599805424435
H           26.37002265462544       75.43889551786066       29.57002729153927
H           26.49511555431157       76.15443126201455       31.17464309847107
C           21.57504298135217       82.51826712977832       31.08395711489339
H           22.58307923911737       82.92784906968386       31.15629227955730
H           21.43833811189808       81.82377990823355       31.91086943234673
H           20.86496872562710       83.33415424381946       31.18749505546796
C           19.93491322913501       83.45978548324156       28.46992604997543
H           18.97021955805247       83.40579944948799       27.97729286146072
C           20.40716224151963       84.65641011639450       28.80814295269981
H           21.37093471002765       84.76595382474775       29.27039335404443
H           19.85492992845419       85.56116509012797       28.61237914744926
C           18.10310618018504       80.82433899835790       24.18400729332371
H           18.60002508159841       81.45059750980734       23.44237800829245
H           17.80093818999533       81.45315234188423       25.01577884596300
H           17.20824471600810       80.40122837822136       23.74308475170320
C           18.63858204813169       77.83514000477214       22.97498481331013
H           18.94788750896241       76.80951136044635       22.80882813624961
C           17.77646916555734       78.35173614211601       22.09991384650851
H           17.43344826638447       79.36509212094114       22.15646195989769
H           17.38594942595998       77.76904370764038       21.28312527824995
C           22.65546454858318       74.39521008299144       23.47853761781951
H           22.05920148484370       74.93935967277680       22.74853827063023
H           22.10807058611635       73.49174900399349       23.75193714598700
H           23.58372925590466       74.09344582439277       22.99761214020232
C           25.30143088533337       74.39332107107462       25.18984837367615
H           25.93206865516800       74.84374407126424       24.42004782508161
H           25.01363943054240       73.40066251590270       24.85236079801921
H           25.90253903606010       74.28574498062967       26.08922509044433
O           20.72329941751783       77.29001247051052       28.32988501013931
H           19.82856893791694       77.40095868949506       27.98855605608817
H           20.89774738817568       76.52802783522313       28.88863625968088
C           26.23535931322555       81.80334773137874       25.07991448460510
H           26.07834910053842       82.49793900014195       24.25665757520339
H           27.12270199448704       81.20993694256653       24.85979422614056
H           26.41420269076580       82.36956134570899       25.98682321132505
N           24.59448283189841       80.10943420520125       24.25623754958044
H           24.94887785185364       80.09026488288620       23.31355159567447
C           25.06516851356776       80.90609780776646       25.26601320160778
C           23.59263611086032       79.35550429261180       24.75854963951304
H           23.04506228217034       78.64021842185034       24.17978534148187
N           23.40007204739396       79.62156692920416       26.02774349949311
C           24.30299260389564       80.59119036405590       26.35646486930133
H           24.33314471267138       80.99284375889245       27.34775449237890
78
 energy: -116.042586440374 gnorm: 0.058650872339 xtb: 6.7.1 (edcfbbe)
Fe          22.12343432216840       78.50267769476045       27.23456226467125
N           23.50214045603549       78.16764511735224       28.62646020837325
N           21.52795773854647       80.11659489257160       28.22184639201899
N           20.68003358852292       78.77216910773477       25.90355480668360
N           22.73464022696709       76.89008527981659       26.26275203699148
C           24.53237194786938       77.28766799378553       28.55660488367894
C           25.25253965289695       77.24823417366861       29.80969410849603
C           24.61617949705087       78.12015374468153       30.64625080224414
C           23.53979520435758       78.70750742909168       29.87548094789652
C           21.90927126748551       80.49831794433067       29.46703310816239
C           21.36650921703381       81.79862485812718       29.78911859327458
C           20.65000616143055       82.20070477930625       28.68938737771950
C           20.72067125944519       81.09795708022737       27.74498134373436
C           19.93214651522383       79.89839220132302       25.74639624600660
C           19.02844415722294       79.75891452026733       24.63636764780527
C           19.22675826673469       78.49283495572980       24.12102296353787
C           20.28400964076103       77.90695149156922       24.93595472672962
C           22.11335531019521       76.28374884277513       25.21868064457196
C           22.94771953559906       75.23975921822046       24.67314238248379
C           24.09712779461855       75.24965131895881       25.39650020878540
C           23.93278676816229       76.26623897576361       26.41019936308821
C           24.81202883015331       76.48614559297471       27.45929294566856
H           25.74880639060837       75.93594404357837       27.46194491148822
C           22.75163587211598       79.76384722857145       30.29672979986805
H           22.85835568606061       80.09409026533582       31.32628764781550
C           20.00222326130904       81.01805724293536       26.56729064937305
H           19.40372525617491       81.87733650531695       26.29919923135139
C           20.90011925307097       76.68768034012353       24.68016295363970
H           20.45377532691151       76.04785979239297       23.92798535745476
C           24.97678583200252       78.44002741584499       32.05584331625628
H           26.00184043334093       78.14133697796443       32.25748125072451
H           24.32569765901234       77.91502112585407       32.75510424242216
H           24.88845190376845       79.50539634110514       32.24975126893093
C           26.43098001086052       76.38464960197847       30.10680057814091
H           27.35614090095746       76.88026810221042       29.81053710378323
H           26.36569522660635       75.44284040559019       29.56929683815856
H           26.49040790541834       76.16333047222177       31.16903162146411
C           21.57085039408949       82.51125742936829       31.07940834420901
H           22.57869752821002       82.92141542317572       31.14441798421651
H           21.43604643540962       81.82822584903505       31.91648540021209
H           20.86203414603504       83.32879869651343       31.17832483105706
C           19.94921715264724       83.44307612129518       28.47062580286937
H           18.99287700823226       83.37440542415287       27.96459384035635
C           20.40841845739065       84.64438898605543       28.81666131312362
H           21.37345531694638       84.76901612868693       29.27422648209061
H           19.85039137413463       85.54452339000136       28.62524917074331
C           18.09410781551880       80.82934684314984       24.19398689547674
H           18.57119301942847       81.45263367363050       23.43569660592506
H           17.81291474114328       81.46614109451689       25.02766818020291
H           17.18301331531405       80.41199197884050       23.77779416707968
C           18.63407588898802       77.83865289316114       22.98835251582290
H           18.93686217508872       76.80748193214401       22.85019765525043
C           17.78508645709749       78.34427594899290       22.09133759510420
H           17.44377688887861       79.36182151826249       22.10854508904128
H           17.40273426195536       77.74498951466211       21.28377572308526
C           22.64363273778514       74.39518619320019       23.48360909907064
H           22.04801201338251       74.94281182099887       22.75809741736966
H           22.09444992591249       73.49680244102855       23.76511724458192
H           23.56891793422344       74.08709141345678       23.00223200791716
C           25.30043473140645       74.39538862949287       25.18706907568555
H           25.94245146319562       74.83569363375837       24.42167529712162
H           25.01182101979282       73.40137337242615       24.85470132191213
H           25.88413755576603       74.29416581617831       26.09675131614820
O           20.69509668208830       77.36460556701938       28.43229348464155
H           19.80552994772241       77.31907261478612       27.97409152539542
H           20.87489671956669       76.48153773399868       28.85775788149610
C           26.22934161351148       81.80304242608116       25.08628201195735
H           26.06063595969992       82.49562330464938       24.26413746269887
H           27.12475886448058       81.22358645429907       24.86179182362445
H           26.40584714322240       82.37072483032439       25.99204260352285
N           24.59513382378172       80.10478849307188       24.26215891173802
H           24.94374702191051       80.09094879014121       23.31685032660426
C           25.07034464371436       80.89329214086251       25.27727214343767
C           23.59093235362469       79.35284016062676       24.76555299024868
H           23.03710807796886       78.64407411387593       24.18737175398650
N           23.40170565753322       79.61123777858036       26.03582016744902
C           24.30826246971056       80.57207621467036       26.36659118468278
H           24.34148098679226       80.97293013676745       27.35765457934932
78
 energy: -116.045321993781 gnorm: 0.026632840175 xtb: 6.7.1 (edcfbbe)
Fe          22.12369745846429       78.49703687377256       27.23230364874274
N           23.50568333314596       78.17569299411403       28.61710862824180
N           21.54351378260227       80.11419022255727       28.21429740543390
N           20.69218496695346       78.77740482819793       25.89336165057042
N           22.73927885216586       76.89364316317477       26.25578210145719
C           24.53318375248013       77.29636631075249       28.54854107725188
C           25.25467509485838       77.25635819953614       29.80170685157576
C           24.61823803676464       78.12585206683534       30.63796150501135
C           23.54822078100417       78.71708933191972       29.86554810861440
C           21.91921228060755       80.49485711692746       29.46058599314097
C           21.37013223837397       81.78609363283286       29.78646916363389
C           20.65909668177893       82.18818676099448       28.68621275127875
C           20.73314394073366       81.08927003363820       27.73822924810486
C           19.94319128887167       79.90322438325987       25.73934778068642
C           19.03130527998725       79.76600859846033       24.63589566209486
C           19.22758087952714       78.50161700272258       24.12168428402069
C           20.29417528659684       77.91514143544883       24.92697522602674
C           22.11853767063461       76.29467502362012       25.20722874602927
C           22.94810223077890       75.24614485882437       24.66398186043767
C           24.10595155030395       75.25808817417995       25.38677585638448
C           23.94061796039184       76.27318857723895       26.40336193250662
C           24.80793602573913       76.48205353703165       27.45995359342248
H           25.72517816373914       75.89928275617656       27.48481264997323
C           22.77467541506588       79.77872588921798       30.28896261213933
H           22.91535356952359       80.13636077507520       31.30656342524866
C           20.00967321005961       81.01727985889207       26.56323185017877
H           19.39593076746678       81.86905288616165       26.30736479114832
C           20.91527335623767       76.70405330717819       24.65725468058306
H           20.49607192533208       76.07810885476916       23.87674462188293
C           24.96570022725581       78.44714933854335       32.05294113354869
H           25.98995756746426       78.14759849324182       32.26505757773346
H           24.30729036341134       77.92650883776605       32.75123594625183
H           24.87700263730666       79.51448920067612       32.24823112584265
C           26.43070221262874       76.39018833404130       30.10068096680543
H           27.35976085421336       76.88013139889385       29.80244668342770
H           26.36193010277427       75.44409448443258       29.56772555019141
H           26.48758598381883       76.17358866539405       31.16544090105654
C           21.56647381681515       82.50310572949935       31.07550136938764
H           22.57483387058020       82.91573640341285       31.13515169624030
H           21.43198880374102       81.82801540145864       31.92104891257193
H           20.85573597275267       83.32184631834329       31.16787699181732
C           19.95875305621498       83.42989460293586       28.46903693462358
H           19.00859203957923       83.34894487273495       27.95189649417812
C           20.40663087522848       84.63149699155079       28.82390408074049
H           21.37136487782620       84.76697080482869       29.28451069784754
H           19.84114639216232       85.52857437146547       28.63861390046102
C           18.08391120826832       80.83215342482970       24.20385441491453
H           18.54013542817627       81.45207363753440       23.42647646205753
H           17.82354687240199       81.47848704979717       25.04015123411175
H           17.15850791315180       80.41343547145637       23.81214908336072
C           18.62840500319323       77.83963872338290       22.99710605190041
H           18.91801206523701       76.80005800976942       22.88729717800994
C           17.79431840032516       78.33733162906672       22.08091421089222
H           17.45963671060010       79.36132817884545       22.06395581167296
H           17.41785581453003       77.71982353220032       21.28250785619176
C           22.63375503918369       74.39405766073646       23.48377117120523
H           22.03771384081107       74.94503363914572       22.76088298416860
H           22.07997430209892       73.50198863899732       23.77770256528625
H           23.55682430472849       74.07758811162473       23.00160901114494
C           25.30300698566325       74.39637554570523       25.18419519885664
H           25.95628233126553       74.82886971224382       24.42296727327950
H           25.01055156110473       73.40128920130694       24.85429643156260
H           25.87133652947375       74.29970395201143       26.10479477022826
O           20.67802051655543       77.31284806273146       28.39977302318502
H           19.79334279323237       77.34692380463954       28.05650395350455
H           20.83839601129047       76.49610570510352       28.88006789625100
C           26.22263931948106       81.80421475373876       25.09587469483143