87
 energy: -124.409100895694 gnorm: 0.355444338153 xtb: 6.7.1 (edcfbbe)
Fe          20.64100000000000      -19.23100000000000       13.77500000000000
N           22.56600000000000      -19.01500000000000       14.05300000000000
N           20.83100000000000      -21.23800000000000       13.92700000000000
N           18.68200000000000      -19.41400000000000       13.33400000000000
N           20.42400000000000      -17.24500000000000       13.74200000000000
C           23.24300000000000      -17.85200000000000       14.33600000000000
C           24.66700000000000      -18.09400000000000       14.51000000000000
C           24.84800000000000      -19.44200000000000       14.46900000000000
C           23.52400000000000      -20.00500000000000       14.20200000000000
C           22.00100000000000      -21.96200000000000       14.08600000000000
C           21.73600000000000      -23.39800000000000       14.05900000000000
C           20.40400000000000      -23.54100000000000       13.76100000000000
C           19.82700000000000      -22.19400000000000       13.76200000000000
C           17.96700000000000      -20.58900000000000       13.30200000000000
C           16.58200000000000      -20.27600000000000       12.94200000000000
C           16.46900000000000      -18.92900000000000       12.70900000000000
C           17.78300000000000      -18.40500000000000       12.98300000000000
C           19.31200000000000      -16.50300000000000       13.37800000000000
C           19.55400000000000      -15.07700000000000       13.58900000000000
C           20.82700000000000      -14.96500000000000       14.08900000000000
C           21.34900000000000      -16.30800000000000       14.15100000000000
C           22.65100000000000      -16.61200000000000       14.44600000000000
H           23.27900000000000      -15.79600000000000       14.80200000000000
C           23.23300000000000      -21.35600000000000       14.20200000000000
H           24.08500000000000      -22.02700000000000       14.30700000000000
C           18.51400000000000      -21.86500000000000       13.51900000000000
H           17.81100000000000      -22.69700000000000       13.49100000000000
C           18.11000000000000      -17.07400000000000       12.97800000000000
H           17.34200000000000      -16.38800000000000       12.62100000000000
C           25.73300000000000      -17.01899999999999       14.77400000000000
H           25.20700000000000      -16.53600000000000       15.62500000000000
H           25.54100000000000      -16.43000000000000       13.85200000000000
H           26.82300000000000      -17.04200000000000       14.99000000000000
C           26.17700000000000      -20.18500000000000       14.74400000000000
H           26.22000000000000      -20.72200000000000       13.77200000000000
H           25.75700000000000      -20.86700000000000       15.51400000000000
H           27.20500000000000      -19.87600000000000       15.03100000000000
C           21.56900000000000      -13.69700000000000       14.51100000000000
H           21.42000000000000      -13.28100000000000       13.49200000000000
H           22.53400000000000      -13.32300000000000       14.91500000000000
H           20.73100000000000      -13.36600000000000       15.16100000000000
C           18.43200000000000      -14.06800000000000       13.30100000000000
H           17.78300000000000      -13.65200000000000       14.08400000000000
C           18.91500000000000      -13.07200000000000       12.26600000000000
H           19.56900000000000      -13.39500000000000       11.44300000000000
H           18.61700000000000      -12.01500000000000       12.32700000000000
C           15.23100000000000      -18.16900000000000       12.21500000000000
H           15.76100000000000      -17.65700000000000       11.38400000000000
H           15.14100000000000      -17.46700000000000       13.07100000000000
H           14.22100000000000      -18.47300000000000       11.86500000000000
C           15.56600000000000      -21.42600000000000       12.97300000000000
H           15.81500000000000      -22.19300000000000       13.69300000000000
C           14.57900000000000      -21.49299999999999       11.81000000000000
H           14.42900000000000      -20.62300000000000       11.15400000000000
H           14.00700000000000      -22.41200000000000       11.61600000000000
C           19.71800000000000      -24.85700000000000       13.45700000000000
H           20.47500000000000      -25.20499999999999       12.72200000000000
H           18.72100000000000      -25.24500000000000       13.15900000000000
H           19.99000000000000      -25.24100000000000       14.46300000000000
C           22.74900000000000      -24.52500000000000       14.02300000000000
H           22.33100000000000      -24.98100000000000       13.10000000000000
H           22.28100000000000      -25.00800000000000       14.90700000000000
H           23.84800000000000      -24.68700000000000       14.03900000000000
C           18.50800000000000      -18.04400000000000       18.69000000000000
H           19.21900000000000      -17.48200000000000       19.33200000000000
H           17.99700000000000      -18.81400000000000       19.30600000000000
H           17.76200000000000      -17.33500000000000       18.27300000000000
N           20.25700000000000      -19.62900000000000       17.76000000000000
H           20.53400000000000      -20.01400000000000       18.64000000000000
C           19.25200000000000      -18.70000000000000       17.58100000000000
C           20.78200000000000      -19.91400000000000       16.56700000000000
H           21.59700000000000      -20.62500000000000       16.43100000000000
N           20.19100000000000      -19.23300000000000       15.60400000000000
C           19.21900000000000      -18.46900000000000       16.24000000000000
H           18.57800000000000      -17.81500000000000       15.66100000000000
C           21.13800000000000      -21.84100000000000       10.35600000000000
H           20.64699999999999      -22.41300000000000        9.54000000000000
H           20.99300000000000      -22.39000000000000       11.31100000000000
H           22.22300000000000      -21.76200000000000       10.13100000000000
C           20.52300000000000      -20.43900000000000       10.46100000000000
H           19.44200000000000      -20.56500000000000       10.67800000000000
H           20.62700000000000      -19.95500000000000        9.46800000000000
S           21.24200000000000      -19.32200000000000       11.72900000000000
C           21.27400000000000      -17.80400000000000       10.76800000000000
H           20.25400000000000      -17.51300000000000       10.43800000000000
H           21.90300000000000      -17.93700000000000        9.86200000000000
H           21.68700000000000      -16.97300000000000       11.37800000000000
87
 energy: -124.562887214812 gnorm: 0.198224646037 xtb: 6.7.1 (edcfbbe)
Fe          20.63009267667239      -19.23121575637680       13.77054843255458
N           22.58358410728796      -19.01773651146395       14.08966739380935
N           20.82974589665282      -21.23917011322329       13.91888919246778
N           18.66738075232547      -19.41871260230812       13.32993181895292
N           20.41852409569454      -17.24011352853005       13.73946242031118
C           23.25606953272446      -17.85095632321126       14.33471138597050
C           24.67718742316016      -18.09760783696825       14.52314689203486
C           24.85391790086521      -19.43368004284826       14.47351304752722
C           23.53287594959117      -20.00519516811220       14.20704820277716
C           21.99458550569257      -21.94451428912890       14.08190190601246
C           21.73834059312584      -23.36468272073186       14.02670441648013
C           20.39709725144879      -23.50782485189165       13.75638910487510
C           19.83101624281950      -22.17317769471313       13.75216339552618
C           17.95975087117055      -20.58709814263705       13.31180026568542
C           16.56764141529306      -20.31059639563525       12.94922706808814
C           16.46366174977665      -18.96750986387921       12.70715398163541
C           17.77968049855487      -18.41846161872707       12.98008687595158
C           19.31078091538612      -16.51145350072881       13.38627692864754
C           19.54465013173667      -15.08993909538311       13.58739364229297
C           20.82211340669052      -14.98809081757061       14.09449315584180
C           21.34495676921275      -16.32177516929985       14.14904120319859
C           22.65955576555881      -16.61264003210159       14.44666483574599
H           23.27919901654036      -15.79348781136207       14.79415817713739
C           23.24058623017185      -21.35719087895146       14.20629709849962
H           24.08469509253305      -22.03092368750128       14.30907417025068
C           18.50642970972582      -21.85635265038023       13.52087556964055
H           17.81562175123082      -22.69406608893429       13.48358426432132
C           18.10819648579681      -17.07411783835653       12.97305095067211
H           17.34261249878638      -16.38470719280073       12.62820800602766
C           25.69444844643955      -16.99874283953284       14.77033632032876
H           25.22533957334710      -16.50065504639539       15.62668124570330
H           25.55720715466885      -16.39831891544037       13.86288283215324
H           26.77708324604077      -17.08794852813255       14.97648684732000
C           26.13978457159866      -20.21643194872086       14.72878373192217
H           26.24140075603727      -20.75239812405044       13.77841474239282
H           25.78440477989470      -20.89571986630188       15.51293223483897
H           27.14184663441070      -19.84267297631216       15.01803424337450
C           21.51993648154511      -13.68962709436597       14.48697386254728
H           21.42208877382021      -13.22274536020116       13.49974561587893
H           22.50574411640761      -13.39633910502836       14.90092444781986
H           20.73935048915466      -13.31670089461410       15.16164636374558
C           18.52711264755855      -14.00864906271539       13.28936945315196
H           17.80660726604660      -13.66960113871999       14.05452758526345
C           18.90413359198912      -13.09264217466540       12.29903879762386
H           19.55838904626057      -13.39509948291256       11.47918287615333
H           18.59083939570035      -12.04767222312395       12.31731030508181
C           15.27049060624693      -18.14785290023362       12.22427484461027
H           15.73719292372356      -17.62775664904137       11.37768764593155
H           15.12508046897906      -17.44563313153395       13.05568039882344
H           14.27607097480561      -18.50231232692457       11.89371068687784
C           15.55943733069560      -21.41096849668246       12.89749158450295
H           15.77761303651914      -22.17681947603104       13.64738154616549
C           14.61845587449077      -21.49472268006879       11.85763960518895
H           14.45430185974093      -20.64992410815004       11.18429219949817
H           14.02446843156456      -22.38913738446791       11.64950569740631
C           19.75627675613115      -24.85475801327179       13.47798226870547
H           20.46116316608998      -25.24177836707155       12.72597533341220
H           18.74442254516456      -25.17793472735525       13.17211177169243
H           19.98373416677920      -25.29705951000586       14.45658362994474
C           22.70612570714883      -24.53407406443555       14.02518643955163
H           22.35369397709989      -25.02297200554207       13.10625227970822
H           22.29842134138025      -25.05593492891543       14.90190022899155
H           23.80785683635261      -24.62678583974953       14.04389793727345
C           18.50949691591407      -18.04768791752818       18.69065799878785
H           19.20856487913775      -17.48776000123375       19.32882462335736
H           17.99878835091678      -18.80265356871663       19.30370261394424
H           17.77164843707942      -17.34731182217796       18.28034143572971
N           20.25327107837683      -19.62496043293419       17.76660926619575
H           20.53197876209894      -20.01388602561296       18.64846514728703
C           19.25508219072454      -18.69559934815523       17.57943145232002
C           20.78362960347881      -19.91223309645352       16.56691625314432
H           21.58968804828658      -20.61715218691745       16.42815191973487
N           20.19426350690618      -19.22640247713909       15.61380512324446
C           19.22530067662685      -18.46930213493217       16.23696916400210
H           18.58534038415073      -17.82097233168646       15.66376824930752
C           21.13994433838316      -21.83605663707283       10.36106582938638
H           20.65377562682621      -22.40323796862012        9.55341750416895
H           20.99908851666254      -22.38307512248610       11.30083128473066
H           22.21198705447015      -21.76405866382334       10.13755930216076
C           20.50784569770590      -20.44723115262743       10.44646474047612
H           19.44107090780548      -20.55865390505210       10.67787001415373
H           20.62219168112336      -19.95213878111888        9.47425065807370
S           21.28559531027343      -19.34003521175011       11.69130978988416
C           21.26890862790144      -17.79576417156050       10.75501079034938
H           20.25616596685240      -17.51430618147415       10.44217762717870
H           21.89948922950947      -17.93198042742599        9.86790472675411
H           21.68281099872988      -16.99015281902971       11.37520507910745
87
 energy: -124.639892689520 gnorm: 0.116352090987 xtb: 6.7.1 (edcfbbe)
Fe          20.62148065434735      -19.23455303660540       13.76439121689048
N           22.60379652477432      -19.01967594772802       14.12155263239044
N           20.82788310872807      -21.24176586199690       13.90845218462246
N           18.65343434836151      -19.42233681848753       13.32415978942798
N           20.41345150154241      -17.23514075236894       13.73610370926174
C           23.26582343368828      -17.85082777783505       14.34068218637599
C           24.68893875828640      -18.09759855281096       14.53687144311648
C           24.86305063186911      -19.43002428372061       14.48117713213107
C           23.53865648190970      -20.00536506697597       14.22763141019302
C           21.99023388313299      -21.93155914553606       14.06820910975851
C           21.74178801455236      -23.34280855840868       13.99577742487540
C           20.39080198533032      -23.48687848661605       13.75073261114045
C           19.83539276895375      -22.15832597250436       13.73928618963408
C           17.95258892391471      -20.58483372580178       13.31716022473460
C           16.55419945292449      -20.33221274533412       12.94928593500422
C           16.45940341733377      -18.99169134102069       12.69937912120127
C           17.77826525240795      -18.42943613294746       12.97862238062446
C           19.30742529964857      -16.52126655582857       13.39219367472892
C           19.53448908960822      -15.10265100226318       13.57924412648543
C           20.81643389092856      -15.00159137940410       14.09246173469242
C           21.34082549059963      -16.33185050309284       14.14700087096904
C           22.66561654236376      -16.61294736834500       14.44934206357114
H           23.27817357633355      -15.78826681711536       14.78176065242375
C           23.24938256472017      -21.35867502051824       14.20355677994497
H           24.08395755267475      -22.03645534807657       14.30982790719677
C           18.49755664435635      -21.84951521191677       13.52047112366776
H           17.81902227895596      -22.69196095875005       13.47611319394365
C           18.10378366891555      -17.07695807443400       12.96889234242512
H           17.34123254198578      -16.38388422400300       12.63702847856459
C           25.65691385976257      -16.97860110968276       14.76752096831149
H           25.24408945029127      -16.45835614779656       15.62902869986722
H           25.57168449044183      -16.36292759318360       13.87378975668486
H           26.72927053906523      -17.14647562356593       14.96205728999450
C           26.10262543806547      -20.24788359572278       14.71368835055105
H           26.26039223656462      -20.78765191269081       13.78352546855780
H           25.81158953571036      -20.93040739177976       15.51066828181862
H           27.07144952101735      -19.79796834610952       15.00234211956426
C           21.46527627096319      -13.68323079418620       14.46024170456897
H           21.42100082082014      -13.16225042279229       13.50583367128822
H           22.47446658671159      -13.49365907929465       14.88420953409950
H           20.74200927933335      -13.26499733591297       15.15938919922224
C           18.61413366559040      -13.95837925144472       13.28320833001626
H           17.84453008751613      -13.69261719951183       14.03667800179547
C           18.90846806311454      -13.11604874518026       12.33834166063336
H           19.57022271063278      -13.38790556358621       11.51924001710567
H           18.54480372585924      -12.08874866592903       12.29693854014367
C           15.30978912932004      -18.12858681077784       12.23389222579206
H           15.71779742882065      -17.59828267264626       11.37355712473021
H           15.11607000168814      -17.42531024373556       13.04395378193624
H           14.33598542210612      -18.54492507306341       11.92572508075077
C           15.55666276822214      -21.40020171828231       12.84112253998888
H           15.74428778963936      -22.17532106901256       13.59962021543837
C           14.66449052228160      -21.49088151537894       11.89947094852974
H           14.48442028487606      -20.67472971791607       11.20022116713974
H           14.03858237822526      -22.36124544901960       11.69518373541559
C           19.79413969455968      -24.85178623294714       13.49906393409102
H           20.44934945768002      -25.27612259425987       12.73225065105128
H           18.76208416012111      -25.08897464452102       13.18811212048964
H           19.97841285089511      -25.35017167796649       14.45108067534161
C           22.66231853987754      -24.54074454557863       14.02517060130730
H           22.37250334115403      -25.06741101405875       13.11354409817724
H           22.31303242176497      -25.09636774136374       14.89676956237488
H           23.76645365168149      -24.54332360076094       14.04991861046333
C           18.50992369648325      -18.05078339767429       18.69252311249391
H           19.19969790433186      -17.49237416142034       19.32836510082704
H           17.99989893714880      -18.79621278625800       19.30231716425356
H           17.77782154970386      -17.35734633731703       18.28520467994087
N           20.24982237661004      -19.61975517561005       17.77472817798108
H           20.53045387992932      -20.01247500060586       18.65677896068631
C           19.25857293275516      -18.69075039068470       17.57996032238363
C           20.78512254234249      -19.91032006688956       16.56888950283392
H           21.58439583512773      -20.60977126642173       16.42611168619061
N           20.19330815974583      -19.22294224126022       15.62381017328952
C           19.23311172736744      -18.46770591050493       16.23525530776842
H           18.59219801126977      -17.82384104513992       15.66734028252946
C           21.13792256322272      -21.83278456398301       10.36243508359294
H           20.65840565361017      -22.40021646842873        9.56199706169658
H           21.00285355922890      -22.37379237421046       11.29514284531319
H           22.20180088412946      -21.76033388805014       10.14451325428952
C           20.49865155681164      -20.45251973755353       10.43366818738694
H           19.44300899240038      -20.55013369688143       10.68145189202105
H           20.61465687450112      -19.95153309318832        9.47459076256280
S           21.32140250908479      -19.35521337726541       11.66501756351773
C           21.26665338128673      -17.78972274226756       10.74093311477715
H           20.25583566417568      -17.52045120449088       10.44901683888084
H           21.89627437588320      -17.92182263039725        9.86494969776368
H           21.67881202532778      -17.00764667339114       11.37527290978196
87
 energy: -124.677661918500 gnorm: 0.055541141060 xtb: 6.7.1 (edcfbbe)
Fe          20.62142254957696      -19.23803711182563       13.75667949800380
N           22.60881821969371      -19.02225447108186       14.15409118696618
N           20.82895833698149      -21.23741528904977       13.89186884761428
N           18.65496146959824      -19.42429342464543       13.32115703007807
N           20.41358299198558      -17.23905427274621       13.73433479882324
C           23.26632898150025      -17.85244278864485       14.35578237097949
C           24.68806481100508      -18.09596661883220       14.55171036014303
C           24.86120621206683      -19.43313169314321       14.49174903353203
C           23.53806818104780      -20.00678809787641       14.24819924802355
C           21.99098628559701      -21.92414923487235       14.05187327810061
C           21.74063672254067      -23.33460239422122       13.97186922228148
C           20.39061095228032      -23.47865572043707       13.74435913120191
C           19.83777984331759      -22.15032287192830       13.72477949249285
C           17.95606731041130      -20.58342993714697       13.32102493178117
C           16.56385822377346      -20.33171411124291       12.95084648050207
C           16.46886231558547      -18.99429137451489       12.69606549252967
C           17.78533717932405      -18.43473871808087       12.97629367130903
C           19.30594075109237      -16.53259665124319       13.39411795887342
C           19.53682705067253      -15.12039893940317       13.58088181678424
C           20.81256853544076      -15.00812691272368       14.08570409799833
C           21.34120475919260      -16.33809856077587       14.14541511183735
C           22.66772118210856      -16.61347004512096       14.45032366754629
H           23.27889464236911      -15.78072373049391       14.76301852610077
C           23.25353689790917      -21.35956987819235       14.20502305159508
H           24.08279279831310      -22.04305770126226       14.31015512174239
C           18.49562673105529      -21.84610432720726       13.51779196681049
H           17.82254650375489      -22.69047124839740       13.46502421701178
C           18.10246933485680      -17.08213073635769       12.96680767167874
H           17.33851544765848      -16.38461367005694       12.65002012293082
C           25.63138885730130      -16.96433328732170       14.76810243689216
H           25.26603658691202      -16.40742779812929       15.63354534184896
H           25.58536361766181      -16.32248054829173       13.88669858586796
H           26.68945825551760      -17.21323452997772       14.94946155002492
C           26.07533130996301      -20.27313878827468       14.70309323609156
H           26.27768536067759      -20.82967958457219       13.78773439251704
H           25.84093509135338      -20.97541299500066       15.50712928335401
H           27.00504998767370      -19.74616699804361       14.98607758343501
C           21.42529908280216      -13.68253380244602       14.43966890342117
H           21.41517606481728      -13.09652916925193       13.51442750958702
H           22.44951327287473      -13.60052782451621       14.86824953920922
H           20.74234496422819      -13.21008297280869       15.15291968017138
C           18.66499589553350      -13.95650711284159       13.32734335973261
H           17.88966489195151      -13.71312508702472       14.06360596594134
C           18.88992748204171      -13.11451661623432       12.31055757446575
H           19.61384738559444      -13.36385924735763       11.54026737421046
H           18.47609486689783      -12.11113258798324       12.25002016720904
C           15.34170341291776      -18.11638437949664       12.24257052749450
H           15.69874527925331      -17.56352098188350       11.36910122169619
H           15.11196194813011      -17.40074272290834       13.03431567345705
H           14.39413073634789      -18.59998922006725       11.96027279181848
C           15.59142035521111      -21.40230493341157       12.83092296409327
H           15.73804849055977      -22.19131098515918       13.57435882001134
C           14.64444789887071      -21.48622348043221       11.89741179222107
H           14.50092517192126      -20.69179296104347       11.17498184674593
H           14.01428710028330      -22.35106728798807       11.73432803911277
C           19.81303019383462      -24.84403103162923       13.51603162460493
H           20.42886669660441      -25.31413596869943       12.73871208359100
H           18.76242500589556      -24.98560240833959       13.20704758064903
H           19.97225184389329      -25.40384559440705       14.44476928490033
C           22.63491431751760      -24.53859792248476       14.02401186170125
H           22.39951612535216      -25.11806436192756       13.12181834296935
H           22.32636587828251      -25.13463795030176       14.88913759507391
H           23.73552221874202      -24.44302989946162       14.06015347153197
C           18.50966030798743      -18.05331554969126       18.69516902837100
H           19.19315516670765      -17.49440990825698       19.33364625080605
H           17.99814610230892      -18.79592453831250       19.30353299358697
H           17.77787451379467      -17.36379101089102       18.28790163227476
N           20.24973037829680      -19.61479736041778       17.78154477767860
H           20.52850920348470      -20.00947893368965       18.66422317401111
C           19.26210754048247      -18.68619119543421       17.58285380797666
C           20.78637847838582      -19.90725804278884       16.57363143893243
H           21.58259980007113      -20.60579077770967       16.42667975769124
N           20.19500307017145      -19.22002098203590       15.62854421847679
C           19.23944858513198      -18.46404326140534       16.23698622482912
H           18.59777475859442      -17.82242724406246       15.67020594097386
C           21.13457449584815      -21.82880943740266       10.36176746944509
H           20.66082453730600      -22.40278695362748        9.56688649259208
H           21.00516664371131      -22.36364415642988       11.29651384517882
H           22.19738868962255      -21.75339399179807       10.14945898452729
C           20.49325054415848      -20.45255408948078       10.42310583201982
H           19.44114224241501      -20.53661579139530       10.68976590817173
H           20.60182061730475      -19.94960088055835        9.46600723866698
S           21.36208535330558      -19.37062311896788       11.64173543103754
C           21.26846367229832      -17.79169779026376       10.72933151295910
H           20.25005881058651      -17.53218762654030       10.45864466660410
H           21.89358846892787      -17.90387481572378        9.84999031404347
H           21.67737715096906      -17.02414097187374       11.37905764822138
87
 energy: -124.692765525475 gnorm: 0.056421226702 xtb: 6.7.1 (edcfbbe)
Fe          20.62336254120398      -19.24147651160375       13.75284992224141
N           22.60416850950984      -19.02445129288426       14.18534594888120
N           20.83094020715338      -21.23498159579107       13.86956770690073
N           18.66572003977320      -19.43004928278494       13.31451540193281
N           20.41511169995668      -17.24071152106576       13.73101881302458
C           23.25919266000220      -17.85548393946538       14.37797527686459
C           24.68013482042508      -18.09464850754833       14.57008964797805
C           24.85232145480970      -19.43798489027201       14.50763889751087
C           23.53097100679376      -20.00755926075703       14.27049385119259
C           21.99359674382285      -21.92206574781803       14.03108315944871
C           21.73971209663280      -23.33472510676474       13.95166522651660
C           20.39189323375254      -23.47901925162100       13.73749010493298
C           19.83933485052819      -22.14902316339382       13.70783588239549
C           17.96198297540176      -20.58559814741180       13.31647559188272
C           16.57363845367085      -20.33150339083306       12.94134098475914
C           16.48533285566985      -18.99165502858970       12.68784416580848
C           17.79880635430072      -18.44111681604179       12.97280769355718
C           19.30375803573380      -16.53939945988414       13.39140587443340
C           19.53287092725382      -15.12768278102621       13.56978617574009
C           20.80245959656301      -15.00531614835091       14.07585295339772
C           21.34132831934278      -16.33650339346388       14.13944364904825
C           22.66564807106489      -16.61149592700500       14.44932649166343
H           23.28021753027875      -15.77114600560951       14.73558230752752
C           23.25406170767373      -21.36105341725938       14.20579204608076
H           24.08052106547627      -22.04832167809534       14.30786776865140
C           18.49649289072266      -21.84818389144144       13.50838374361268
H           17.82562823629575      -22.69230300308230       13.45102575584781
C           18.10284926925498      -17.08801381499229       12.96551252151940
H           17.33404880493879      -16.38912817898800       12.66555090983715
C           25.62006354709291      -16.96189748489217       14.77159320587723
H           25.29624491478452      -16.37481914578022       15.63751494884443