78
 energy: -116.058077347257 gnorm: 0.000049007777 xtb: 6.7.1 (edcfbbe)
Fe          28.13694456129667       93.90828580409520       52.75873574115580
N           29.09281277523259       95.57638104608002       52.16101866895691
N           29.23056843962032       93.90618077662326       54.45316265033367
N           27.15351563733683       92.29235875233528       53.38771116351018
N           27.02696438671009       93.95850489580555       51.10626943720995
C           28.91673819409550       96.24132050870968       50.98816882304973
C           29.81816665541860       97.36714166322493       50.89820816453326
C           30.54900988037593       97.36614147007533       52.04598975483649
C           30.08626074020400       96.23669920697647       52.82013997554107
C           30.20634729951666       94.79169676184996       54.80477488996787
C           30.80078921495799       94.42596899847456       56.06290051045838
C           30.17080074210510       93.27732178127731       56.46746062864137
C           29.18742162936939       92.97893607192866       55.44608257436150
C           27.37840831922562       91.59187803152452       54.53244041259760
C           26.48319368486263       90.46578878616579       54.62979796999151
C           25.70351159761904       90.49756082332920       53.50510246621372
C           26.14276591402871       91.65485689777088       52.74806668808640
C           26.03836228516695       93.09287232487405       50.76524054643836
C           25.47182543491965       93.44088009637905       49.47915179601216
C           26.14731977132480       94.53940556748377       49.05123781779782
C           27.11560058359609       94.84708849039534       50.08270197400332
C           27.99582862732813       95.90924473793484       50.01218294660632
H           27.96012759860093       96.53025697837305       49.13031626820052
C           30.60286881433390       95.88598555439228       54.05253052089645
H           31.39689138514577       96.50030501885037       54.44888851509491
C           28.33471135642987       91.89302771621020       55.48534019011586
H           28.42247632345898       91.22332535099248       56.32695065602623
C           25.61824362861082       92.01544408122440       51.52078773012217
H           24.82335262201809       91.40652530037413       51.11772912235209
C           31.62168084174582       98.30393445362871       52.48415584742106
H           31.78899791491731       99.07557186663529       51.73686359878267
H           32.55961528039528       97.77029179706770       52.64127394756349
H           31.34885304069027       98.78902193795331       53.42185192631501
C           29.87652669726543       98.30667157133939       49.74303122393172
H           28.91555345230627       98.80235355093194       49.60340952056863
H           30.11553022450830       97.76977890300404       48.82483957881149
H           30.63505287598759       99.06940481777917       49.90142746145533
C           31.84197905161067       95.21224017598342       56.78103092694179
H           31.67478408883249       96.28097296814664       56.65461201320496
H           32.83893499272340       94.97991661846888       56.40220635411317
H           31.81709326385498       94.97961789730928       57.84373320121397
C           30.37361367000621       92.49985291504511       57.66948107895862
H           29.48928032691412       92.01764895340965       58.06960569914136
C           31.53451831864357       92.33249443893084       58.29477284994888
H           32.45392652060929       92.74634291869140       57.91895572103154
H           31.60861583589331       91.74846954170374       59.19709238907011
C           26.40607717532903       89.52834941327040       55.78390276632061
H           26.53867011790841       90.06240933002280       56.72366198055263
H           27.18217805210939       88.76392106166510       55.71769438536557
H           25.43680202462795       89.03427299784182       55.79882235352970
C           24.62954588961851       89.61332738973059       53.10969412431865
H           23.81504521428014       90.08025552732904       52.56812691779046
C           24.57758798030202       88.30730523813776       53.35080210102857
H           25.37868959941287       87.78324279433076       53.84236734895247
H           23.73684620443370       87.70966727793338       53.03943764881073
C           24.36285608397725       92.69525381044441       48.81978076808500
H           23.46965818138505       92.70869421048428       49.44459495840929
H           24.64402237562203       91.65485760550781       48.65435174724786
H           24.11490540195063       93.13984068842714       47.85906998777935
C           25.97943068134849       95.32279896978110       47.79461667393564
H           25.19599155709688       94.89492482978616       47.17401950193703
H           26.90635645232156       95.33062892271380       47.22058104984620
H           25.71241669468777       96.35555682671749       48.01987311921332
O           26.68645710156698       95.30190511654195       53.86231823538515
H           26.99328114642099       96.14948177120729       53.52218514545777
H           27.02757594813632       95.21666783759810       54.75924652010361
C           30.78544703595516       89.97478678315420       49.82871811160779
H           31.39700642315463       89.26058947694423       50.37993793856423
H           31.33418649477608       90.27621871370586       48.93652974991106
H           29.86704420561621       89.48341443583772       49.52345354432865
N           31.42729318973696       91.96876254871353       51.20108022613672
H           32.42075538838911       91.85980858746075       51.07974870016803
C           30.46162126280675       91.15279189209279       50.67247767674456
C           30.80326017024441       92.93451872886794       51.91212615209115
H           31.31177507236056       93.71572218274930       52.43815048809884
N           29.50242475640912       92.78000348763466       51.86567491871567
C           29.27416976534315       91.67591008312762       51.09770986914523
H           28.27823785286566       91.33414264048440       50.90481334883997
