78
 energy: -115.941918338464 gnorm: 0.353241814295 xtb: 6.7.1 (edcfbbe)
Fe          28.22400000000000       93.88300000000000       52.75100000000000
N           29.16700000000000       95.60299999999999       52.16000000000000
N           29.32500000000000       93.82400000000000       54.51000000000000
N           27.15400000000000       92.25200000000000       53.45600000000000
N           26.99400000000000       93.95099999999999       51.08599999999999
C           28.90100000000000       96.31199999999998       51.07900000000000
C           29.63900000000000       97.49400000000000       51.08400000000000
C           30.44800000000000       97.43499999999999       52.21500000000000
C           30.07900000000000       96.27100000000000       52.85599999999999
C           30.24900000000000       94.71800000000000       54.85800000000000
C           30.84900000000000       94.39100000000001       56.04999999999999
C           30.28100000000000       93.15000000000001       56.41600000000000
C           29.30800000000000       92.89000000000000       55.46900000000000
C           27.39200000000000       91.52100000000000       54.56099999999999
C           26.47500000000000       90.47699999999999       54.70399999999999
C           25.62500000000000       90.58600000000000       53.58100000000000
C           26.12600000000000       91.63899999999998       52.82399999999999
C           26.07300000000000       93.03000000000000       50.71900000000000
C           25.65600000000000       93.22000000000000       49.41500000000000
C           26.25100000000000       94.41500000000001       49.01700000000000
C           27.09900000000000       94.80299999999998       50.07000000000000
C           27.97200000000000       95.90499999999999       50.09999999999999
H           27.92200000000000       96.54900000000001       49.22400000000000
C           30.58700000000000       95.84199999999998       54.09199999999999
H           31.36000000000000       96.47799999999999       54.52000000000000
C           28.41500000000000       91.81100000000001       55.48599999999999
H           28.52400000000000       91.11099999999999       56.31400000000000
C           25.64600000000000       92.00300000000000       51.55499999999999
H           24.82600000000000       91.39700000000001       51.17200000000000
C           31.54700000000000       98.40400000000000       52.64999999999999
H           31.63500000000000       99.22399999999999       51.90500000000000
H           32.51800000000000       97.86700000000000       52.71100000000000
H           31.29200000000000       98.84099999999999       53.63900000000000
C           29.63800000000000       98.59899999999999       50.02199999999999
H           28.64200000000000       98.64100000000001       49.53100000000000
H           30.41000000000000       98.38099999999999       49.25299999999999
H           29.84500000000000       99.58000000000000       50.50100000000000
C           31.95400000000000       95.23900000000000       56.69000000000000
H           31.63200000000000       96.30200000000001       56.72599999999999
H           32.88200000000000       95.16500000000001       56.08499999999999
H           32.14600000000000       94.88500000000001       57.72500000000000
C           30.59800000000000       92.26200000000000       57.45500000000000
H           29.91400000000000       91.42199999999998       57.63800000000000
C           31.76100000000000       92.33700000000000       58.33500000000000
H           32.49600000000000       93.14699999999999       58.22100000000000
H           31.91500000000000       91.58400000000000       59.12199999999999
C           26.34800000000000       89.63999999999999       55.98100000000000
H           26.26500000000000       90.31500000000000       56.86000000000000
H           27.24800000000000       89.00000000000000       56.10099999999999
H           25.43700000000000       89.00699999999999       55.92599999999999
C           24.49500000000000       89.85699999999999       53.17500000000000
H           23.94300000000000       90.25400000000000       52.31400000000000
C           23.93800000000000       88.63699999999999       53.73199999999999
H           24.41200000000000       88.15200000000000       54.59800000000000
H           23.03600000000000       88.18400000000000       53.29399999999999
C           24.77000000000000       92.30099999999999       48.56800000000000
H           23.70500000000000       92.45699999999998       48.84200000000000
H           25.03900000000000       91.23999999999999       48.75800000000000
H           24.90300000000000       92.53900000000000       47.49100000000000
C           26.08500000000000       95.07500000000000       47.64800000000000
H           25.02900000000000       94.97900000000000       47.31500000000000
H           26.74300000000000       94.57299999999999       46.90700000000000
H           26.34400000000000       96.15299999999999       47.71699999999999
O           27.05600000000000       95.45000000000000       53.81300000000000
H           27.45600000000000       96.28600000000000       53.57200000000000
H           26.35900000000000       95.33699999999999       54.35300000000000
C           30.78100000000000       90.18100000000000       49.38100000000000
H           30.93700000000000       89.18500000000000       49.84899999999999
H           31.70100000000000       90.46800000000000       48.82800000000000
H           29.92100000000000       90.11900000000000       48.68100000000000
N           31.25000000000000       91.58400000000000       51.49800000000000
H           32.15200000000000       91.20099999999998       51.69799999999999
C           30.48699999999999       91.21899999999999       50.47199999999999
C           30.62900000000000       92.52099999999999       52.19799999999999
H           31.03800000000000       92.98799999999999       53.09300000000000
N           29.46700000000000       92.77900000000000       51.63800000000000
C           29.34200000000000       92.00400000000000       50.57500000000000
H           28.45600000000000       92.04999999999998       49.95400000000000
78
 energy: -116.017823915684 gnorm: 0.145263566766 xtb: 6.7.1 (edcfbbe)
Fe          28.19882105392591       93.88958568676316       52.75212103157607
N           29.15312714236583       95.57945155217968       52.16620989050902
N           29.31200129918918       93.82295543330179       54.48513781959655
N           27.17065244876714       92.25138277319982       53.43711068545763
N           26.99774065035137       93.95560341709761       51.10448280109375
C           28.88239005533544       96.30713180020835       51.06813878050918
C           29.65697017588909       97.50404580673785       51.07019833237081
C           30.45365709672947       97.44932367622137       52.19844238303284
C           30.08659383983727       96.25652030162227       52.86616023764178
C           30.24745982036954       94.72951460977598       54.84419203621259
C           30.86953913897680       94.38297078976615       56.05911913770623
C           30.30609255087303       93.15700053759483       56.43643855435528
C           29.30376611185358       92.88053993632282       55.45583943490693
C           27.39772089242769       91.53380092319017       54.56657363507394
C           26.45695136731962       90.47995075543267       54.71568435636580
C           25.61693028257852       90.56135416187686       53.59824424376610
C           26.12292115215557       91.64850678086496       52.81936820481918
C           26.08756154623781       93.01814195035645       50.73092614620294
C           25.65300881521450       93.23252415676937       49.39910137750646
C           26.25480990294737       94.40851948489326       48.99685644981714
C           27.11002542428975       94.81331092797362       50.07131831110583
C           27.96534211596453       95.91703643220259       50.08666350537919
H           27.91965535455695       96.55631773304727       49.21504028785116
C           30.59557474753782       95.84988350407923       54.09320584129068
H           31.36193719121761       96.48334233110128       54.51921456177226
C           28.41709988707423       91.80881331861701       55.48290291744276
H           28.51652514900974       91.11444285901686       56.30832326101358
C           25.64610336144195       91.99790644682906       51.55793938515056
H           24.83505932576044       91.39763588457785       51.16491280050396
C           31.53370191714229       98.40376611219637       52.64156380613692
H           31.63573771331500       99.21622942338689       51.91553390575408
H           32.49590723346091       97.87816182283018       52.71123872326078
H           31.29768514318316       98.83454005003584       53.62338812939993
C           29.63810649770954       98.59258711976155       50.02691830257007
H           28.65794470160378       98.64164686425481       49.53851891564106
H           30.39872007165893       98.38922683086213       49.26252000421557
H           29.84455775568048       99.56423804970703       50.48988784476301
C           31.94590991471879       95.22944034448250       56.69197829436997
H           31.63468292142315       96.28179511516511       56.72454038522328
H           32.86908273994130       95.16350774317166       56.10085163108921
H           32.14408061614496       94.90146786800861       57.71368184920580
C           30.63235660823166       92.27159067317454       57.49844859144408
H           29.94898905216444       91.43514108038649       57.65324732133794
C           31.73074084406464       92.33284744767884       58.31819370687010
H           32.47531947582969       93.11328538416089       58.21611503929316
H           31.89605635691710       91.59483120742075       59.09580309930678
C           26.34678248741164       89.64494245826397       55.96815144808894
H           26.26788344298770       90.30391243489049       56.84325058321492
H           27.23184777917623       89.00805122794972       56.09630714616378
H           25.45458180463273       89.01658904694314       55.93387715736048
C           24.47377011116427       89.81456469680795       53.19659261538650
H           23.93667456571666       90.22347454541168       52.34001306964080
C           23.95162706334253       88.66428107713161       53.72246237447332
H           24.40522611728769       88.16311950629093       54.56929782438306
H           23.06187893674698       88.20921811747202       53.29811212080295
C           24.77380933115663       92.31726076830834       48.57720207688212
H           23.71668813230555       92.45523398937748       48.83818322499749
H           25.03561753288819       91.26559772034264       48.75579616397913
H           24.90011196149784       92.53499403634683       47.51089352936252
C           26.08614428955469       95.07190859232136       47.65491418397697
H           25.04608084678562       94.98142017396290       47.31908665660873
H           26.73433927851131       94.58600267547538       46.91432700895725
H           26.34213352947196       96.13536852025479       47.71257258561846
O           27.05750468073947       95.44398102086846       53.80045431828373
H           27.44429998888123       96.29115065005125       53.58225691913512
H           26.32671718515443       95.34732889543324       54.37939229939421
C           30.78338234742650       90.18689707557212       49.39186844987179
H           30.93743912477132       89.19848824870063       49.84282075440976
H           31.68760986110756       90.46238105106444       48.83519798410313
H           29.93951081515904       90.12483009619584       48.69800203115227
N           31.26101309674971       91.57190371038709       51.48683801547065
H           32.16625774023271       91.18678665622789       51.68868289973230
C           30.47342557579200       91.21439548169327       50.44962729484335
C           30.63595341110877       92.51820367217688       52.20121859031542
H           31.04155054943771       92.98111430541211       53.08283149573753
N           29.46242256878148       92.77644022613532       51.66540151451269
C           29.34200089457695       91.99930661518340       50.57641434914451
H           28.46409748605526       92.04503559904224       49.95865735408397
78
 energy: -116.036213749461 gnorm: 0.048719191262 xtb: 6.7.1 (edcfbbe)
Fe          28.18388750191929       93.89382344717609       52.75173217778754
N           29.13501617549628       95.56173136344894       52.16926948614868
N           29.30446747745746       93.82478251168801       54.46251834884322
N           27.18057557796492       92.25774156933657       53.42179388097959
N           27.00939178229380       93.96033131778644       51.12089736920463
C           28.86459911104172       96.30050993894986       51.06043374766482
C           29.66948844540539       97.50264915692084       51.05911190018812
C           30.45292665005899       97.45013837074191       52.17877884878896
C           30.08664787130158       96.24087659453845       52.86806726812681
C           30.24647495000814       94.73704216239072       54.82626969276549
C           30.88123678178143       94.37123403512416       56.05700061849481
C           30.32447378811096       93.16404469719755       56.43530068860440
C           29.30444503215172       92.87556795718675       55.43675322621397
C           27.40303945527929       91.55315707109460       54.56767952619951
C           26.43921630519586       90.49587094289251       54.72224252812384
C           25.61578158802721       90.55552751153857       53.61412739226424
C           26.12654960112120       91.65663150587916       52.81302988029578
C           26.10634538421224       93.01334689114691       50.74487994197292
C           25.65920714842277       93.24682003016164       49.39460274721209
C           26.26370485795427       94.40323564687520       48.98926212658385
C           27.12253820409958       94.82319949845898       50.07796291834397
C           27.95940968518810       95.93052682643193       50.07403514653273
H           27.91474859065864       96.56783811397796       49.20359046503839
C           30.60329771333200       95.85649883422265       54.08940530365076
H           31.36482856220516       96.49170772890999       54.51445115116078
C           28.42120731131527       91.81099987454294       55.47777832456303
H           28.50931503507174       91.12240519609615       56.30557491671566
C           25.65038350638349       91.99156058947300       51.55689080143227
H           24.84750521899587       91.39273721855544       51.15279837882536
C           31.51658668428296       98.39818181393218       52.62932321685226
H           31.63053239622598       99.21172781134142       51.91901708186550
H           32.47462024747818       97.88152289643074       52.70822021243006
H           31.28916802800180       98.82319740568150       53.60775241402163
C           29.63947520820097       98.58140161534865       50.02908704026104
H           28.66720009551035       98.63641602206539       49.54563552078943
H           30.39189299976237       98.39478720932586       49.26219234972386
H           29.84761955882207       99.54840711969854       50.48263607906622
C           31.93503784988684       95.21661268355231       56.69233555167785
H           31.62688291204142       96.26234879250430       56.71617666643037
H           32.86172746716253       95.15761359559040       56.11767347769389
H           32.13592594816888       94.91087604260152       57.71086352092362
C           30.65587835627692       92.27691488435391       57.51945337481791
H           29.96045972503627       91.45534224087463       57.66355243385001
C           31.70978399135071       92.32846727308002       58.30562439347050
H           32.46958472458275       93.08370435223982       58.21605135902866
H           31.87754379117631       91.59916888557409       59.07999669074729
C           26.34478562289856       89.65525163310109       55.95373262669077
H           26.27514809351511       90.30000781237128       56.83140511127500
H           27.22222798171378       89.01921994100282       56.07765985319437
H           25.46439909590786       89.02545070427487       55.93488816633860
C           24.46099276434843       89.79093021308276       53.21448972786923
H           23.93501874687535       90.21014744173971       52.36184782011539
C           23.96718444603105       88.67987839937770       53.71986485633478
H           24.40531161501448       88.15963234146730       54.55231991238082
H           23.08131455415176       88.22583868429240       53.30632283360171
C           24.78034822792198       92.33853385358611       48.59175447679325
H           23.72745029109080       92.46516701406937       48.84657285162771
H           25.03975237041064       91.29363456725434       48.76563320736842
H           24.89846444418036       92.54147122526399       47.52949514046668
C           26.09342480730525       95.06930113315018       47.66443783946635
H           25.06206705976118       94.98151562857356       47.32681511867894
H           26.73387459050504       94.59855503464711       46.91698749104089
H           26.34600498875876       96.12466487449068       47.71490618263623
O           27.01574313223737       95.42958808993197       53.78321936013090
H           27.40788232537641       96.29043470234971       53.61854206519268
H           26.29848885555713       95.36740835495594       54.41200278500606
C           30.78383484505338       90.19472021069231       49.39928294058902
H           30.94019189363408       89.21380772169471       49.84649625720253
H           31.68133609590638       90.46349078706403       48.84384052080105
H           29.95166692361908       90.12738753057290       48.70589130670390
N           31.27749135109886       91.55679422961380       51.47108508701261
H           32.18541152012712       91.16969518082399       51.66790034853590
C           30.46055446575971       91.21231259567861       50.43176791358533
C           30.64967611065004       92.50034336954477       52.20443864376217
H           31.05882678333949       92.96193684730028       53.07540550156713
N           29.46637193847496       92.76297260829371       51.69906017633078
C           29.34118478263006       91.98915631567472       50.58905060838777
H           28.46693997972374       92.03752370712371       49.97405308293666
78
 energy: -116.041897771095 gnorm: 0.029494290091 xtb: 6.7.1 (edcfbbe)
Fe          28.17825503828723       93.89924894611083       52.75306557547942
N           29.12495008705761       95.55651390313652       52.16436129316944
N           29.30566325197503       93.82890340558990       54.44807903411223
N           27.18208473433677       92.26699576137638       53.41339439258594
N           27.02555870929092       93.96426258125742       51.12330734001056
C           28.85878247003909       96.29754203695943       51.05231471212873
C           29.67429959942431       97.49703743875897       51.04636022160484
C           30.45130840016876       97.44483662144536       52.16322492455505
C           30.08374098084582       96.23346591453517       52.85983435926143
C           30.25186912318291       94.73852536866542       54.81049718155627
C           30.88863778256691       94.36495037191598       56.04616865428183
C           30.32947377646032       93.16738700096062       56.42434227752501
C           29.30719009474616       92.87739893085305       55.42072667296976
C           27.40114829834519       91.57104840837697       54.56500104054467
C           26.42925881626128       90.51528797542450       54.72393832756028
C           25.61461796083588       90.56543235588904       53.61855758358433
C           26.12988300496001       91.66399017548456       52.80679944843168
C           26.12417354474191       93.01666534003127       50.74843811586607
C           25.67040160396031       93.25741121884741       49.39590108161166
C           26.27657380226222       94.40523932373611       48.98705261002723
C           27.13432578658307       94.82864398172035       50.07836387684218
C           27.95862760720841       95.94027820801949       50.06259382371098
H           27.90963716558561       96.57933431871830       49.19300190059587
C           30.60918012670758       95.85936959077409       54.07931262294179
H           31.36936285237397       96.49818473597394       54.50172403739406
C           28.42035775438522       91.81923224089965       55.47185314941466
H           28.50052771048221       91.13486435773525       56.30331732347933
C           25.65996158467875       91.99084508866095       51.54896995666396
H           24.86710502678147       91.38779128823191       51.13249192194225
C           31.50483137238037       98.39543435583649       52.61935365139135
H           31.62091640499193       99.21240270047412       51.91395944580410
H           32.46250146412022       97.88185064295206       52.70352132447824
H           31.26902555303633       98.81428023078969       53.59725163810791
C           29.64080863964051       98.57451014049653       50.01932211119956
H           28.66649425279814       98.63153661894421       49.54305183117280
H           30.38892829822132       98.39442126277841       49.24737131700227
H           29.85306198693386       99.53924920756899       50.47430618620515
C           31.92870644006642       95.21389249060375       56.69235994716727
H           31.61458206303408       96.25692383681071       56.69841698966960
H           32.86656702539502       95.15093332905921       56.13736594079552
H           32.11355217599565       94.92513216095304       57.71898631520405
C           30.64805850589086       92.28258152753045       57.52185254655458
H           29.94044666743590       91.47490486383911       57.66951325811416
C           31.71834899505506       92.31218967757904       58.30961951606234
H           32.50303552613458       93.04108829701832       58.21610226187539
H           31.86445911764051       91.58556839108144       59.08946946862224
C           26.34652989652673       89.66833545514586       55.94773046453527
H           26.29015142286473       90.30459380296195       56.83147834880824
H           27.22376367101577       89.02995682594589       56.05171513844181
H           25.46662539926615       89.03860051695206       55.93741819477724
C           24.45684435872576       89.79413965139605       53.22318825035880
H           23.92222069429424       90.21595734429752       52.38065958427744
C           23.97210584789337       88.66626410142773       53.72931808764407
H           24.41814519352826       88.12974891170153       54.54592396851083
H           23.08388111557661       88.21710167105795       53.31855446215573
C           24.78160419339349       92.35663751007293       48.60517324627181
H           23.73216913817195       92.48674955855714       48.86828504159404
H           25.04235131119290       91.31413093771646       48.78067100563860
H           24.89261131401867       92.55652192561976       47.54244586555707
C           26.10566400794120       95.07432351989088       47.66686860691932
H           25.07463729309391       94.98503303937733       47.33130684652501
H           26.74495525361065       94.61063052066204       46.91468002235632
H           26.35645939550238       96.12876702072801       47.71997491857797
O           26.91166346919727       95.41818641495860       53.74017741942217
H           27.36465295857609       96.28142206836810       53.69031605211809
H           26.26917847455968       95.36682416992048       54.47035736032193
C           30.78438741380409       90.19758788505297       49.39792380410287
H           30.94663926080334       89.22038037443539       49.84939285687126
H           31.68199922630609       90.46954937272768       48.84583176306971
H           29.95634084181970       90.12354703507181       48.70186611487760
N           31.29507361750839       91.54329909896325       51.45931293879155
H           32.20722674241698       91.15563840322052       51.63896339280495
C           30.45637115354817       91.20922642589984       50.42852216258540
C           30.67034338416145       92.47578309306277       52.21329516018537
H           31.09371812102178       92.93419015195251       53.07885213030838
N           29.47741193505545       92.74345136508929       51.73381088124936
C           29.33845988802948       91.97588009846039       50.61515486670666
H           28.45853282326932       92.02595510490066       50.00901383435733
78
 energy: -116.045042833351 gnorm: 0.036130620653 xtb: 6.7.1 (edcfbbe)
Fe          28.17668635093100       93.89951087673933       52.75493886721647
N           29.10964684444558       95.55812518633017       52.16443848579758
N           29.29893187436858       93.84193387900315       54.44362010755679
N           27.17662044551835       92.27908993421352       53.40875147909821
N           27.04994927038035       93.96095216334250       51.12005394139231
C           28.85417213873024       96.29575189554151       51.04756014898691
C           29.67552998202290       97.49072613340074       51.03410763037721
C           30.44821614539456       97.43928830749823       52.15024169432108
C           30.07483632947171       96.23151129411129       52.85334760527165
C           30.25570634932971       94.74257296012847       54.79878079386895
C           30.89696572908106       94.35997778651148       56.03307146323036
C           30.33574244606455       93.16693331148744       56.40894752344511
C           29.30628774998897       92.88445134019355       55.40944546924765
C           27.39363303773997       91.59199442173892       54.56399838281921
C           26.42030647009281       90.53626776533547       54.72618310472433
C           25.61327335664639       90.57585009776618       53.61945739616527
C           26.13072090037313       91.67021722150703       52.80053884177628
C           26.14353468490021       93.01983132860714       50.74912371050644
C           25.68313037854368       93.26610820649366       49.39845879963184
C           26.29076858346620       94.40927495369760       48.98725433810364
C           27.14990698451938       94.82890002140563       50.07724903459840
C           27.96108931227762       95.94686653205156       50.05231821208918
H           27.90609078031423       96.58842998573306       49.18459567413770
C           30.61254443702675       95.86421416927351       54.06988176187954
H           31.37854800569934       96.50235716286900       54.48310624564608
C           28.41437370023723       91.83229518177343       55.46901956186300
H           28.49139659428814       91.14857140816846       56.30038921437338
C           25.67091185829469       91.98855528441725       51.53765448160733
H           24.88819288595247       91.38083599871757       51.10934593407980
C           31.49547319246357       98.39330966422577       52.61106598265106
H           31.60918776447065       99.21312302748952       51.90690834189460
H           32.45557385239206       97.88427491606139       52.69970877043094
H           31.24587802840464       98.80797294698283       53.58815187648374
C           29.64096056449187       98.56661844843545       50.00398550166030
H           28.66202606828488       98.62657816123031       49.53584311965965
H           30.38360479146738       98.38636996842362       49.22547853784121
H           29.86027643452799       99.53089453458894       50.45983183753411
C           31.92642863169243       95.20931125187408       56.69486585098443
H           31.60993274088010       96.25267338240877       56.68168040378097
H           32.87956940028390       95.13910287074418       56.16513269851202
H           32.08107241906525       94.92233001483362       57.72990422880112
C           30.64304518093921       92.28477874709874       57.51306345606753
H           29.91236213014508       91.50491139772716       57.68938934402127
C           31.72281935217355       92.29767696319779       58.29908059711618
H           32.52687647040816       93.00499677811764       58.19618903440541
H           31.83915883472772       91.57419274722045       59.08939638994232
C           26.34975046787768       89.68290440435757       55.94537457529882
H           26.31390037312274       90.31035860704807       56.83765979311757
H           27.22711089393899       89.03827229499224       56.02091086661966
H           25.46414011699423       89.05847081027704       55.93987508045176
C           24.45526955463327       89.80031019695734       53.23157376832437
H           23.89753953360613       90.22845156278011       52.40882517250924
C           23.98744218576590       88.65514132524271       53.73454628828374
H           24.45021036157877       88.10764419227365       54.53498089404492
H           23.09135724570485       88.21357271177997       53.33029973301424
C           24.77809262705314       92.37385835277794       48.61964423796167
H           23.73399702694244       92.51525019562483       48.90052756385199
H           25.03630203613861       91.33028507621982       48.79392202040761
H           24.87642405854771       92.57565570263105       47.55516052617295
C           26.12051324757466       95.08498440334067       47.66958531441002
H           25.08870696055296       94.99405247134770       47.33392848128668
H           26.76200419421449       94.62740294326633       46.91403115402278
H           26.36924601734982       96.14053444685780       47.72943487680188
O           26.81639057474885       95.39959891613384       53.72351457279871
H           27.28968328530054       96.25470106689103       53.74478051069726
H           26.24356191773848       95.35308823135742       54.52212999994212
C           30.78433979353162       90.19854641580146       49.39278161983032