87
 energy: -124.720040349991 gnorm: 0.000058292117 xtb: 6.7.1 (edcfbbe)
Fe           2.71003769567319       20.90603139181342       13.16710153467395
N            4.11881471901235       19.74808765790578       12.35033496605449
N            3.26708195122596       20.29251577251996       14.99159698435501
N            1.32261131805169       22.09757416844442       13.99808460227360
N            2.18009196812491       21.55657844340286       11.34733165414318
C            4.42105776225188       19.63952226344637       11.03066819435090
C            5.49550130461892       18.69108791861685       10.82807573444713
C            5.83086969933921       18.22698530591410       12.06022398520128
C            4.96213048338903       18.90505469739658       12.99822337245716
C            4.23790994232689       19.38956357170871       15.28952916664170
C            4.34910484881164       19.21133150062419       16.72053094190599
C            3.42311119974559       20.03548700737980       17.28017464348369
C            2.75992660660305       20.70406842886935       16.18306833204450
C            1.09220527854053       22.28419300257237       15.32208742467436
C            0.04107959439274       23.26156033149795       15.52729599789918
C           -0.32939206645759       23.68492564589987       14.27799093516845
C            0.48485687122728       22.95039364818543       13.34470219856345
C            1.17701980412607       22.42281383204825       11.04767949610014
C            1.08519394014785       22.61979197784343        9.61425948883331
C            2.09828821226215       21.87838484205405        9.06870648333747
C            2.75223146922092       21.21267900269243       10.16441570438034
C            3.80247305729297       20.32513720563817       10.00638684836627
H            4.15505001252468       20.14857302713355        9.00173729488657
C            5.02446214950155       18.72447560389855       14.36706386652607
H            5.74951279966947       18.02032587331860       14.74609870688914
C            1.74535941186802       21.62733832816038       16.34894550533456
H            1.44398792630570       21.85503509138196       17.35984513352754
C            0.40476052026098       23.10124132195143       11.97063399623463
H           -0.30380754329574       23.81866806783441       11.58747974941183
C            6.06579784732721       18.33837394042179        9.49734358949200
H            6.46588841581687       19.22459414962391        9.00399109390505
H            5.29665742491414       17.91143532805662        8.85355108774515
H            6.86821730692740       17.61186851049460        9.59996132575255
C            6.86794980848143       17.22813164132398       12.44532125228414
H            6.41185322936675       16.38593402989756       12.96581416663966
H            7.60733065217362       17.67594807284756       13.11038032027653
H            7.38412099127710       16.84852021943725       11.56699149114517
C            2.45120576090017       21.71052171842127        7.63143320302514
H            2.28415436430655       20.68088062761062        7.31298020432230
H            3.50198158479477       21.94828127439280        7.46395764570127
H            1.84238149704847       22.36170112587932        7.00904721905081
C            0.11206022888620       23.42234377196157        8.90221383949134
H            0.49520566749192       23.95936214971834        8.04084029413886
C           -1.18139503573913       23.50886169685468        9.19179037397476
H           -1.62532647247154       22.95360845315399       10.00085299234082
H           -1.84938930421936       24.12254285666003        8.61032960411569
C           -1.31742681231736       24.73673388821220       13.91156623390989
H           -2.27303023006610       24.29296132366174       13.62628325133476
H           -0.95824271360280       25.32831380311578       13.07069777980158
H           -1.48677132106715       25.39979848675358       14.75763977434015
C           -0.44998036135877       23.68622404326811       16.81921074370842
H            0.28128861589181       23.69234404239595       17.61934606761255
C           -1.69987383671215       24.04977312409930       17.08806437753836
H           -2.47867139620241       24.01824310959990       16.34622029757352
H           -1.99379292022506       24.36893566213127       18.07430088262118
C            3.09871518419214       20.25347232351168       18.71806525803781
H            3.72402525394099       19.63206625861204       19.35451075047487
H            2.05534829862136       20.00726384617171       18.91700960770673
H            3.25787809889497       21.29636380374619       18.99381465691884
C            5.30990213071565       18.28202460061618       17.37985474868703
H            5.13607515646682       17.25635636022692       17.05320992590351
H            5.20328134038102       18.31907958395152       18.46117876964352
H            6.33725343536242       18.54667337449806       17.12753428283041
C            5.32764501776513       25.82967438205881       12.99028217381913
H            6.16022922231248       25.94079270591812       12.29565067076443
H            5.60916265349020       26.29193892131355       13.93641964317625
H            4.46686667261095       26.35527157133140       12.58895057654102
N            5.88732521343226       23.48628860785818       13.67508446446562
H            6.83635886756324       23.68374833849325       13.94704337685042
C            4.98905833032942       24.39697425248278       13.18328194901774
C            5.26742114527483       22.28605262800420       13.72640757675709
H            5.73032004135161       21.38477181809548       14.07134930245675
N            4.03276912118116       22.38153455575127       13.29771211796101
C            3.84457201945337       23.68793410646716       12.95599271780468
H            2.90591887022835       24.02946819574440       12.57207231412587
C            1.18390650869770       17.55441142529516       15.25804331703843
H            0.76091147237510       17.35239397983025       16.24013450404977
H            2.23022739891818       17.81932758253279       15.37779720376539
H            1.12360306339522       16.65120990806799       14.65544905692876
C            0.42801715322069       18.68620823626333       14.58957987804080
H            0.46669430179295       19.59533390976993       15.18718305055861
H           -0.60960821070133       18.40397711086994       14.41137665879081
S            1.16505733039798       19.05807563843089       12.94538610016121
C           -0.33168075430128       19.71622729018751       12.14774678119547
H           -0.69172855385730       20.57938349489854       12.69846330697057
H           -1.08529796942972       18.93390339236057       12.10955620063483
H           -0.05295174246886       20.01213581649024       11.14245700395776
