87
 energy: -124.394467880989 gnorm: 0.375752651676 xtb: 6.7.1 (edcfbbe)
Fe           2.70300000000000       20.83900000000000       13.25400000000000
N            4.19900000000000       19.83500000000000       12.39500000000000
N            3.34500000000000       20.38000000000000       15.08700000000000
N            1.30000000000000       22.03800000000000       14.07900000000000
N            2.08800000000000       21.49800000000000       11.43700000000000
C            4.48300000000000       19.79000000000000       11.07700000000000
C            5.50800000000000       18.77800000000000       10.84800000000000
C            5.80100000000000       18.25700000000000       12.03200000000000
C            5.00600000000000       18.92500000000000       13.02300000000000
C            4.24100000000000       19.36400000000000       15.38100000000000
C            4.26400000000000       19.13300000000000       16.82700000000000
C            3.41300000000000       20.03200000000000       17.38000000000000
C            2.85900000000000       20.84200000000000       16.31700000000000
C            1.17600000000000       22.34900000000000       15.42700000000000
C            0.05100000000000       23.27900000000000       15.58400000000000
C           -0.40100000000000       23.58300000000000       14.34200000000000
C            0.33900000000000       22.77400000000000       13.40600000000000
C            1.04200000000000       22.32500000000000       11.16200000000000
C            1.06700000000000       22.72300000000000        9.73600000000000
C            2.10500000000000       22.11700000000000        9.19900000000000
C            2.81000000000000       21.40000000000000       10.27000000000000
C            3.89700000000000       20.57600000000000       10.09100000000000
H            4.33500000000000       20.53600000000000        9.09400000000000
C            4.97800000000000       18.71200000000000       14.40300000000000
H            5.63000000000000       17.91800000000000       14.76400000000000
C            1.93500000000000       21.85800000000000       16.46400000000000
H            1.80000000000000       22.29400000000000       17.45400000000000
C            0.08800000000000       22.75900000000000       12.05900000000000
H           -0.88000000000000       23.09500000000000       11.69100000000000
C            6.02400000000000       18.48400000000000        9.39200000000000
H            6.35400000000000       19.51300000000000        9.13500000000000
H            5.04000000000000       18.29100000000000        8.91400000000000
H            6.77800000000000       17.76000000000000        9.01500000000000
C            6.84600000000000       17.17700000000000       12.42800000000000
H            6.13800000000000       16.51600000000000       12.97200000000000
H            7.42100000000000       17.77400000000000       13.16700000000000
H            7.53700000000000       16.54800000000000       11.82700000000000
C            2.65300000000000       22.12500000000000        7.73800000000000
H            1.72600000000000       21.65100000000000        7.35100000000000
H            3.50600000000000       21.83100000000000        7.08900000000000
H            2.52700000000000       23.22900000000000        7.72300000000000
C           -0.05100000000000       23.63000000000000        9.14200000000000
H            0.40200000000000       24.54799999999999        8.74200000000000
C           -1.19800000000000       23.02600000000000        8.32400000000000
H           -1.70100000000000       22.10700000000000        8.66100000000000
H           -1.53100000000000       23.50500000000000        7.39100000000000
C           -1.59200000000000       24.48800000000000       13.93100000000000
H           -2.15600000000000       23.72900000000000       13.34800000000000
H           -1.01500000000000       25.12700000000000       13.22900000000000
H           -2.31200000000000       25.10900000000000       14.50500000000000
C           -0.34200000000000       23.91400000000000       16.93000000000000
H            0.49500000000000       24.03300000000000       17.60500000000000
C           -1.84000000000000       23.89600000000000       17.25900000000000
H           -2.58500000000000       23.76500000000000       16.46100000000000
H           -2.18500000000000       24.01400000000000       18.29700000000000
C            3.09300000000000       20.19000000000000       18.87100000000000
H            3.00000000000000       19.08800000000000       18.98000000000000
H            2.37800000000000       20.68200000000000       19.56400000000000
H            4.13300000000000       20.48999999999999       19.12200000000000
C            5.17400000000000       18.08200000000000       17.49800000000000
H            4.32500000000000       17.56800000000000       17.99700000000000
H            5.56600000000000       18.87000000000000       18.17600000000000
H            5.96900000000000       17.33700000000000       17.28200000000000
C            5.53900000000000       25.69200000000000       12.58300000000000
H            6.41200000000000       25.70900000000000       11.89600000000000
H            5.80400000000000       26.23500000000000       13.51600000000000
H            4.67900000000000       26.18900000000000       12.08500000000000
N            6.00000000000000       23.36300000000000       13.51000000000000
H            6.95500000000000       23.53300000000000       13.75200000000000
C            5.18900000000000       24.28800000000000       12.90300000000000
C            5.32700000000000       22.20300000000000       13.73000000000000
H            5.75400000000000       21.30900000000000       14.18100000000000
N            4.07900000000000       22.37700000000000       13.29500000000000
C            3.99000000000000       23.66800000000000       12.79400000000000
H            3.05100000000000       24.03200000000000       12.39600000000000
C            0.92400000000000       17.94200000000000       15.58700000000000
H            0.35700000000000       17.96200000000000       16.54200000000000
H            2.00000000000000       18.10500000000000       15.81000000000000
H            0.78700000000000       16.94600000000000       15.11400000000000
C            0.42900000000000       19.00700000000000       14.67600000000000
H            0.56300000000000       19.99900000000000       15.15800000000000
H           -0.65500000000000       18.85700000000000       14.48400000000000
S            1.38700000000000       18.92400000000000       13.08500000000000
C            0.10100000000000       19.43400000000000       11.95600000000000
H           -0.39400000000000       20.36600000000000       12.30300000000000
H           -0.67500000000000       18.64300000000000       11.87500000000000
H            0.52900000000000       19.62700000000000       10.94900000000000
87
 energy: -124.553842394672 gnorm: 0.210244895892 xtb: 6.7.1 (edcfbbe)
Fe           2.71551578615029       20.86696638906352       13.25073007178140
N            4.19088102692432       19.82422794022876       12.39345861076575
N            3.33495246112070       20.37479562605477       15.08207286444517
N            1.29304244023972       22.05025030012976       14.08905705419124
N            2.10066304993899       21.51968618385369       11.44018631294023
C            4.48827265414702       19.78277008083722       11.07429167423474
C            5.51871805835315       18.77547160846420       10.83214871332462
C            5.81989698279188       18.24872689973354       12.03073798991843
C            4.99906580675577       18.91961944186814       13.02157092572231
C            4.23068672147356       19.37268476589423       15.36205078581449
C            4.26950782259552       19.13762151319169       16.79005779766662
C            3.41074776126429       20.04236302808459       17.35839770129451
C            2.85918894117933       20.83458760220656       16.29438525163444
C            1.17168088076203       22.37114864638340       15.42344784495701
C            0.05609741820099       23.30770627241015       15.60849800692997
C           -0.42812187609296       23.57406031330580       14.36713679204543
C            0.32752296390382       22.77018855860809       13.42871466237951
C            1.03950501461105       22.31854328479666       11.15618199615840
C            1.03600848400594       22.70252253380949        9.73845918203236
C            2.13378098850847       22.11012956144721        9.20978517478419
C            2.80437733246689       21.38754266473767       10.27723070183268
C            3.89992881508087       20.57186240196439       10.09353404410714
H            4.32876909490080       20.53433224799214        9.09773725506082
C            4.97894600012415       18.70814634901996       14.39840661399085
H            5.63134127193558       17.92174435843788       14.76643057405194
C            1.93478077160977       21.85755667135249       16.45378238627707
H            1.79433623067789       22.27590908818097       17.44778370544851
C            0.09045500540507       22.75656756307286       12.06358509706948
H           -0.86306782246057       23.11558844659640       11.68891301264700
C            6.00156702485676       18.50972997329200        9.39876568243496
H            6.35564026477455       19.50668475426418        9.10802638094908
H            5.05370453899403       18.29256450627468        8.89045021875387
H            6.75543221680905       17.77193474191786        9.07090739868128
C            6.82737464851272       17.18605954534094       12.45692423745481
H            6.16184741773749       16.49628487492528       12.98894176448451
H            7.43440046758420       17.74853000854211       13.17724845184348
H            7.49841811216670       16.59161561972686       11.81276455075042
C            2.60472299370375       22.15402993055346        7.74433254991278
H            1.72411616455306       21.66733822872637        7.30698499121773
H            3.49207286046207       21.82395290252488        7.16696094721729
H            2.52237244999626       23.24314856048219        7.66250490888233
C           -0.03638277005337       23.55908343649136        9.06173322886477
H            0.37549016984072       24.53113677316533        8.74185753548132
C           -1.14289873260504       23.03977279237473        8.35111465653887
H           -1.66334411479355       22.12875834680871        8.66059489447896
H           -1.52790882695893       23.52102085664987        7.44422991616887
C           -1.57409893643734       24.47028608426228       13.90253331304722
H           -2.17529831904754       23.75028205219664       13.33346816309932
H           -1.04245257508142       25.13790179286567       13.21253548684515
H           -2.26133424830301       25.07570267226536       14.51928234862551
C           -0.40206246536018       23.86272225597015       16.92265771283439
H            0.43845418779161       24.03349455463637       17.60204431586952
C           -1.77489750786742       23.89419821599498       17.24978278306409
H           -2.53972175885093       23.75902872254414       16.47949248671519
H           -2.15153230389091       24.03013550369232       18.26878861103886
C            3.13125152246034       20.15631485413626       18.85725280414530
H            3.00818663042809       19.08060174856707       19.03405249650710
H            2.38785779977952       20.68400550108741       19.48750164274377
H            4.13434358689094       20.47911687708490       19.16775059049570
C            5.14132622648539       18.11280390502383       17.52857275062379
H            4.34376785323361       17.55057741326045       18.03234344873181
H            5.58693646353612       18.83928341453904       18.21988589367710
H            5.92588796582593       17.38567247750077       17.23780499783358
C            5.54488590425779       25.68850529164103       12.58349873842733
H            6.40659253809740       25.71448485236922       11.90231164062465
H            5.80262413841569       26.23449844104339       13.50265768941021
H            4.69374579670576       26.18138057480926       12.09484517370048
N            6.00634228490084       23.36744355596007       13.50909762393264
H            6.96554325569242       23.53418516031094       13.75232120280420
C            5.18283843245829       24.28656448534630       12.91183761638762
C            5.31823070038867       22.21968610627838       13.72337828081103
H            5.74113089184703       21.32910543945497       14.17076179488125
N            4.07833643503810       22.38077882789063       13.29687564078337
C            3.98312507288028       23.65594742774695       12.79785512425981
H            3.05384800843189       24.02187834009111       12.39856579751521
C            0.92575066788417       17.93299667952254       15.59457071769177
H            0.36474678432019       17.95704888223123       16.53775364320773
H            1.98886231343659       18.09532661324815       15.80962825483086
H            0.79336478317839       16.95029012206180       15.12426844560183
C            0.42061091078200       19.00829929606293       14.67989992864773
H            0.56104173107935       19.99342732640537       15.14394467210869
H           -0.64802789239934       18.85954352821468       14.47284927238338
S            1.37678106569826       18.94122045231601       13.09621774824700
C            0.08493222707375       19.43418748472048       11.95082272644342
H           -0.38954710918670       20.35923498747906       12.29948946824290
H           -0.67119202788847       18.64309624901685       11.87375671320307
H            0.52571399316008       19.61977563636389       10.96292712233482
87
 energy: -124.635785028612 gnorm: 0.120522618304 xtb: 6.7.1 (edcfbbe)
Fe           2.72565070937577       20.89515672841178       13.24855638585919
N            4.18158239303840       19.81754756188557       12.39248152041833
N            3.32831993270054       20.37079612758624       15.07880049416965
N            1.28787358605385       22.07074466220651       14.09946080533933
N            2.11298788835402       21.54168514048514       11.44086968898100
C            4.49091433179180       19.77655621123858       11.07329283967977
C            5.52697225281086       18.77367883702648       10.82195897447335
C            5.83350338058691       18.24216830818624       12.02919371476401
C            4.98863868138769       18.91747614001340       13.01818997778264
C            4.22059681376939       19.37681568799470       15.34731162404458
C            4.27743904148950       19.13972074191080       16.76358213211612
C            3.41244446049151       20.05046108727694       17.34590928847410
C            2.85791665978631       20.82517261354903       16.27594530654155
C            1.16623753714628       22.39463259997770       15.42167952104798
C            0.05185165342467       23.33110199173422       15.62422849992237
C           -0.45868668404898       23.56391378597289       14.38149211459889
C            0.31786533067433       22.76827298929444       13.44574943811261
C            1.03485202900442       22.31353963894498       11.14784912987614
C            1.00626277818803       22.67718255544957        9.73966381681499
C            2.15020497974067       22.10199144471078        9.21526717802005
C            2.80047682837177       21.38664079925250       10.28074737788195
C            3.90449294200867       20.57009150309800       10.09676837516663
H            4.32127620435011       20.53098250327841        9.10055307456980
C            4.98016723156611       18.70201543861690       14.39172542082513
H            5.63396693494874       17.92619621245739       14.76839018276257
C            1.93223306168131       21.85589166733754       16.44371015166666
H            1.78658729632408       22.25378593819993       17.44175969778983
C            0.09702633345009       22.75738232362678       12.06966916161191
H           -0.84106534179709       23.14196766989961       11.68832656201184
C            5.98066756010059       18.53459988114598        9.41025841724747
H            6.35764004876090       19.50235601781501        9.07763649684259
H            5.06652966644319       18.29519213669744        8.86530918619649
H            6.73503168015176       17.78008589159222        9.14059767264616
C            6.80769588888853       17.19822617734718       12.48288687321661
H            6.18635091986262       16.47526215002066       13.00811186708105
H            7.44968090494429       17.72074507108857       13.19249672679367
H            7.45463913847383       16.64157818406420       11.78871170808445
C            2.55032786184597       22.18408726878564        7.75755035128300
H            1.71685330620042       21.68729117141302        7.26256009070304
H            3.47692243038113       21.81401104088716        7.26731316619536
H            2.51083075275107       23.25932687342893        7.60235569473640
C           -0.01727956833330       23.49294238787265        8.99269801945939
H            0.36681312397374       24.49753370978496        8.73331474566088
C           -1.07807522876648       23.04788376098660        8.38135711616057
H           -1.60829866185980       22.13235960102425        8.64958590433313
H           -1.53102923175662       23.54824386560367        7.51357466089824
C           -1.55926642451813       24.45072816227879       13.87659477624407
H           -2.19834435377199       23.77263197371099       13.31285814670543
H           -1.06677311207445       25.14622529418611       13.19733990297390
H           -2.20682188538094       25.03844120716587       14.54431178454168
C           -0.44531704887956       23.82775468196117       16.91574700505363
H            0.38502757519620       24.02390327956744       17.61072916433012
C           -1.70687463899244       23.88476538165074       17.23294381716353
H           -2.49940936765400       23.73986338254343       16.49527313968060
H           -2.10911290540785       24.05462270757100       18.23579051874049
C            3.17266665957482       20.12330251354247       18.83972311475739
H            3.02016662912245       19.07290158074050       19.08275066258780
H            2.39455677469326       20.69165966646274       19.38966022966995
H            4.13972016466908       20.46485805810748       19.21231941057676
C            5.10681782983032       18.14728444063442       17.55582328759148
H            4.35902752234852       17.53878933262243       18.06553400994270
H            5.60260532120441       18.81113038302895       18.26381417746052
H            5.87663820656473       17.44420854364996       17.17666665469322
C            5.54947925998362       25.68557046836394       12.58411322510431
H            6.40361417950679       25.71513247862024       11.90764730521206
H            5.80314752055955       26.23412493276512       13.49309633905932
H            4.70475578068829       26.17519447071098       12.10206520197546
N            6.01112651845472       23.37301566497437       13.50821111096237
H            6.97314333756826       23.53598011482036       13.75181035801126
C            5.17487048975563       24.28600268337222       12.91981065188835
C            5.31032716990373       22.23433351398034       13.71773956513903
H            5.72927321319124       21.34730802484586       14.16176515580010
N            4.07595380908156       22.38039209431360       13.29825188121012
C            3.97570479193642       23.64423028867071       12.80297836672565
H            3.05497733027327       24.01460610157267       12.40063948253314
C            0.92572694590918       17.92523330340102       15.60116879004466
H            0.37017836505792       17.95219046951282       16.53651764272523
H            1.97988971222144       18.08709376305219       15.80965349807326
H            0.79779666922131       16.95207438167350       15.13247797033092
C            0.41390898444242       19.01014855584598       14.68096767614865
H            0.55781614230973       19.98874437112986       15.13406793641928
H           -0.64240019894994       18.85925490109998       14.46126132594861
S            1.37136123795022       18.95584043501083       13.10573865949118
C            0.06774169076354       19.43474597034002       11.94658756242351
H           -0.39064817424583       20.35495355684321       12.29601355577260
H           -0.66969037909806       18.64014738171021       11.87391468801195
H            0.52374881825893       19.61131738476421       10.97517109541443
87
 energy: -124.675903908015 gnorm: 0.057613877195 xtb: 6.7.1 (edcfbbe)
Fe           2.73306051561155       20.91553182635402       13.24594966667640
N            4.16980085074549       19.81328440556623       12.39275998896824
N            3.32215599851176       20.36575036145371       15.06919032594177
N            1.29248683913713       22.08598739444628       14.10022216098268
N            2.12759314528883       21.55824769479810       11.44455445402468
C            4.48776940758625       19.77492703263703       11.07616861209457
C            5.52693278346481       18.77977172497389       10.82584939922057
C            5.83271720366862       18.24518197084091       12.03437945128347
C            4.97579600672713       18.91633234839400       13.01676552097660
C            4.21444892441431       19.37473541450884       15.33632547801221
C            4.28157499229020       19.14548036818706       16.75279151742051
C            3.42117302840773       20.05388029239647       17.33597447563888
C            2.85492281045239       20.81946017123008       16.26331481887166
C            1.17215866303687       22.40767817858639       15.41697106496123
C            0.05928740881518       23.33594905774349       15.61597967704517
C           -0.47291443797967       23.55111315829829       14.37811841784056
C            0.31414905451745       22.76487395612875       13.44835388786594
C            1.03589180664799       22.31009980959424       11.14771827593425
C            1.00874521451409       22.65239745914735        9.74516895616269
C            2.15241885850763       22.08941778905844        9.21558143412418
C            2.80405524512739       21.38653976396423       10.28175172421948
C            3.90780935376777       20.56715123028894       10.10012853924892
H            4.31481930285929       20.52299210354543        9.10161258940586
C            4.97716184394296       18.69658380996529       14.38589174089899
H            5.63860556938709       17.93224795589987       14.76926873253933
C            1.93123163956183       21.85182670882542       16.43396843813746
H            1.77241356147382       22.22369677404731       17.43839803474462
C            0.10515174760450       22.76114325521633       12.07281043315597
H           -0.81463143996178       23.18249596130948       11.68485932065082
C            5.96870110247052       18.55277585966720        9.41914050214787
H            6.36314822163229       19.50054302125839        9.04195116854379
H            5.07961478216292       18.29765648792290        8.83574744816286
H            6.72473549096123       17.77836618255591        9.22504253804242
C            6.79417806483708       17.20719962119062       12.50188093946580
H            6.21368950981993       16.44907476193633       13.03198650838059
H            7.46919775261349       17.68974244131545       13.21359416814533
H            7.41089584627882       16.69441869326696       11.74909584703377
C            2.51083911676177       22.20475122018371        7.76556078160582
H            1.70605692693913       21.71387986913188        7.20957621891150
H            3.47026301802021       21.79974423588479        7.37052431343221
H            2.49232950842813       23.27521289056265        7.53664757072047
C            0.05052423353349       23.46625236568410        8.95869072138709
H            0.40499052669134       24.47364848574836        8.70932302618471
C           -1.09598237923070       23.05069259253586        8.40183277352104
H           -1.56057272643234       22.09487766137333        8.62922717873697
H           -1.57667682761951       23.59026915902979        7.57987206055172
C           -1.55359422126881       24.43505247213069       13.85816331835115
H           -2.23247304629280       23.79840209062415       13.28584751712266
H           -1.09437153968132       25.15421215935131       13.17674253819389
H           -2.15292431964075       25.00236780285746       14.58392178383027
C           -0.42342212895721       23.79095244273429       16.91133925860312
H            0.37203525307960       24.00083370181718       17.63085850050966
C           -1.71367053650302       23.90101084786374       17.23260670883543
H           -2.49527643720606       23.70612819511550       16.50517816283869
H           -2.08933934599459       24.10096411283402       18.22967283324718
C            3.20460602864397       20.10295335149381       18.82085749258185
H            3.03803992891486       19.06620122192083       19.13443667878293
H            2.39381247859344       20.70874054908136       19.27963389803656
H            4.14871988207171       20.44601032843941       19.26089636887000
C            5.08254310438031       18.17409399699696       17.57073407719064
H            4.37483304773227       17.52983410064820       18.10244517386007
H            5.61605522680600       18.78045869293169       18.31312838244346
H            5.82987371669036       17.50182210234517       17.10070305992170
C            5.55227922886139       25.68468476306407       12.58562578624031
H            6.40511530919425       25.71297035556816       11.91041401159211
H            5.80683441580102       26.23788604367923       13.48881881438592
H            4.71078519444886       26.17403959539869       12.10531943354970
N            6.01168449504728       23.38082704723497       13.50845125822012
H            6.97622850047243       23.54051021198991       13.74875348766447
C            5.16815906948476       24.29015677407508       12.92573024471986
C            5.30726708367453       22.24520487332373       13.71688259196479
H            5.72225874035007       21.36034222300668       14.15702679984406
N            4.07280232665832       22.38364648928740       13.30192156918653
C            3.96980967348888       23.64428209005874       12.80804113230626
H            3.05115720514197       24.01140413752941       12.40122176209152
C            0.92317295266946       17.91927571102422       15.60519320493490
H            0.37258038428715       17.94422124877214       16.54130152376357
H            1.97604046376678       18.07815250492412       15.81182576969930
H            0.80088427655045       16.94607552635325       15.13966948247784
C            0.40897289521945       19.00687620440258       14.68244315635921
H            0.55011275547685       19.98697114170761       15.12791394474457
H           -0.64198554044388       18.85443973752632       14.44583828149600
S            1.36742781683036       18.97421198913343       13.11253900570221
C            0.05384338450014       19.43233788761941       11.94693411099423
H           -0.40149290521900       20.35348261215329       12.29062640143541
H           -0.67296091305928       18.62981836066001       11.87625189863758
H            0.52185802943335       19.60026077566785       10.98256967274911
87
 energy: -124.692112833298 gnorm: 0.060698686832 xtb: 6.7.1 (edcfbbe)
Fe           2.73561739102951       20.93188841241491       13.24366224610543
N            4.15557220908815       19.81829118373321       12.39636422555771
N            3.31622470501882       20.36030237460872       15.06202010066064
N            1.30397562428631       22.10106571415494       14.09817668192873
N            2.14069263264777       21.57611703569935       11.44305838956385
C            4.47945727057734       19.78094405478980       11.08187436228421
C            5.51921715435664       18.79148602795999       10.83472425847936
C            5.82208482119492       18.25286941423075       12.04408822442677
C            4.95864871191329       18.92100768164117       13.01799772398905
C            4.21067999258120       19.37124389031022       15.33075953511529
C            4.28637461041600       19.15213793281038       16.75092548259418
C            3.43251103202223       20.05864028066222       17.33160585311670
C            2.85124207819267       20.81685402697168       16.25659065720953
C            1.17851426606364       22.41886155397860       15.41276570783782
C            0.05828010402148       23.33386373199517       15.60873083665344
C           -0.48589540432262       23.53424957435433       14.37062612739559
C            0.31781123457963       22.76565584559215       13.44676161291103
C            1.03842272255215       22.31525237694261       11.14686654633832
C            1.00059256771749       22.63662210474853        9.74560501088722
C            2.14330305388733       22.08844809413549        9.20824472908427
C            2.80700193093785       21.39410604231573       10.27571546603911
C            3.90771044968475       20.56862358619688       10.10124712481153
H            4.30679094370558       20.51153911567175        9.10064970055118
C            4.97169328310010       18.69310248283714       14.38293771774869
H            5.64256212444533       17.93869755536826       14.76739720538020
C            1.92744274155311       21.84574971432595       16.42702110339819
H            1.74988112883376       22.18719755164265       17.43840525834573
C            0.11883135090063       22.77574006663568       12.07400777484598
H           -0.78058074679132       23.23611162482990       11.68169778825629
C            5.96970680556351       18.55761907909718        9.43440371271359
H            6.37910469055578       19.48669706740877        9.02367627724907