81
 energy: -118.292670061853 gnorm: 0.243545448604 xtb: 6.7.1 (edcfbbe)
Fe          60.80400000000000        7.05000000000000       58.33100000000000
N           61.26100000000000        6.92700000000000       60.32999999999999
N           59.71599999999999        5.33200000000000       58.44500000000000
N           60.35500000000000        7.10300000000000       56.39900000000000
N           61.95699999999999        8.77800000000000       58.23900000000000
C           62.04300000000000        7.79600000000000       61.04600000000000
C           61.91500000000000        7.46600000000000       62.45000000000000
C           61.03599999999999        6.44300000000000       62.57700000000000
C           60.60300000000000        6.08200000000000       61.23200000000000
C           59.32699999999999        4.69800000000000       59.62000000000000
C           58.49900000000000        3.55500000000000       59.26199999999999
C           58.39700000000000        3.51900000000000       57.92500000000000
C           59.15900000000000        4.62600000000000       57.39600000000000
C           59.81300000000000        6.10300000000000       55.60900000000000
C           59.81800000000000        6.54200000000000       54.24799999999999
C           60.38200000000000        7.75300000000000       54.22300000000000
C           60.75299999999999        8.11300000000000       55.57400000000000
C           61.93300000000000        9.60300000000000       57.14300000000000
C           62.66399999999999       10.81700000000000       57.44100000000000
C           63.14800000000000       10.66700000000000       58.86000000000000
C           62.64500000000000        9.36600000000000       59.28400000000000
C           62.83799999999999        8.78500000000000       60.51700000000000
H           63.67999999999999        9.13300000000000       61.11600000000000
C           59.71000000000000        5.08900000000000       60.89299999999999
H           59.25200000000000        4.54900000000000       61.72099999999999
C           59.28900000000000        4.91100000000000       56.07200000000000
H           58.96599999999999        4.16700000000000       55.34499999999999
C           61.34300000000000        9.30700000000000       55.93900000000000
H           61.34000000000000       10.10000000000000       55.19100000000000
C           60.56499999999999        5.76700000000000       63.90100000000000
H           61.06600000000000        6.25400000000000       64.76500000000000
H           60.83500000000000        4.68900000000000       63.88900000000000
H           59.46500000000000        5.88200000000000       64.01000000000001
C           62.66199999999999        8.26200000000000       63.52799999999999
H           62.79900000000000        9.31000000000000       63.18700000000000
H           63.66000000000000        7.80800000000000       63.70600000000000
H           62.07200000000000        8.26300000000000       64.47000000000000
C           57.85800000000000        2.56200000000000       60.26200000000000
H           56.78899999999999        2.82600000000000       60.41300000000000
H           58.38499999999999        2.62000000000000       61.23799999999999
H           57.92000000000000        1.52900000000000       59.85699999999999
C           57.65600000000000        2.55900000000000       56.96200000000000
H           58.01100000000000        2.44600000000000       55.92699999999999
C           56.58499999999999        1.84600000000000       57.33200000000000
H           56.19000000000000        1.92300000000000       58.35599999999999
H           56.08700000000000        1.17500000000000       56.61699999999999
C           59.27799999999999        5.73300000000000       53.05300000000000
H           58.20300000000000        5.96900000000000       52.90100000000000
H           59.38300000000000        4.64600000000000       53.25800000000000
H           59.84000000000000        6.00200000000000       52.13300000000000
C           60.63100000000000        8.67000000000000       53.01400000000000
H           61.56900000000000        9.24000000000000       52.93599999999999
C           59.72400000000000        8.80200000000000       52.02900000000000
H           58.77300000000000        8.25000000000000       52.06800000000000
H           59.92199999999999        9.46300000000000       51.17300000000000
C           62.88099999999999       12.03300000000000       56.50500000000000
H           61.89699999999999       12.46400000000000       56.22299999999999
H           63.40900000000000       11.70800000000000       55.58299999999999
H           63.47699999999999       12.80900000000000       57.03000000000000
C           63.98300000000000       11.67900000000000       59.67500000000000
H           63.62300000000000       12.70900000000000       59.46699999999999
H           65.05200000000001       11.60500000000000       59.38300000000000
H           63.87100000000000       11.47000000000000       60.76000000000000
C           65.94100000000000        5.05000000000000       56.89200000000000
H           65.99500000000000        4.47700000000000       55.94100000000000
H           66.52700000000000        4.51400000000000       57.66900000000000
H           66.36600000000000        6.06300000000000       56.72699999999999
N           63.74399999999999        4.05900000000000       57.58799999999999
H           64.06100000000001        3.11300000000000       57.52100000000000
C           64.52000000000000        5.16500000000000       57.32299999999999
C           62.53100000000000        4.45100000000000       57.94000000000000
H           61.71500000000000        3.77800000000000       58.19799999999999
N           62.49800000000000        5.77300000000000       57.92000000000000
C           63.72999999999999        6.24700000000000       57.53300000000000
H           63.92700000000000        7.30800000000000       57.44400000000000
C           59.13000000000000        9.33500000000000       59.99799999999999
H           60.21600000000000        9.38300000000000       60.22700000000000
H           58.60000000000000        9.00700000000000       60.91700000000000
H           58.79100000000000       10.35800000000000       59.72900000000000
S           58.80000000000000        8.20600000000000       58.66200000000000
H           59.30300000000000        7.14700000000000       59.27900000000000
81
 energy: -118.354232489373 gnorm: 0.107664503261 xtb: 6.7.1 (edcfbbe)
Fe          60.80397735706770        7.01167718684490       58.34601446545091
N           61.22608554644266        6.93781267011605       60.32197226813948
N           59.71148475922409        5.32432374015963       58.44823709996923
N           60.39680545720318        7.09012202159645       56.40277635974913
N           61.91187893493318        8.76216559610329       58.24835932820771
C           62.04699987108036        7.76782668401017       61.03545980258812
C           61.92677834844493        7.46400935334916       62.45013618225138
C           61.03660816116999        6.44229640669229       62.57798448538362
C           60.60487873753132        6.09483588955906       61.22779169852826
C           59.32412390655269        4.69038924659762       59.60837074553169
C           58.48971219956964        3.54561961345244       59.26913648663608
C           58.39708064629591        3.49948929831156       57.90976424424383
C           59.16724011925677        4.61906053462583       57.40758571019168
C           59.83046887697711        6.11877433235486       55.60968044124574
C           59.82442998088307        6.54525672490628       54.23340311469688
C           60.38607647756143        7.78124623435554       54.20618311823335
C           60.74979489522432        8.11515918298112       55.57549152011497
C           61.92933198631448        9.60716472923204       57.17262431039052
C           62.66994845790948       10.81549736729384       57.48146231525859
C           63.14117524547537       10.65611158901286       58.81424122006005
C           62.64850520341041        9.35616839646945       59.24543827465826
C           62.83559775060488        8.77903320530053       60.50011986417952
H           63.64327752419688        9.16292729591652       61.11995812387129
C           59.71150960648466        5.08915946803337       60.88740052713214
H           59.26649001995952        4.54598818737085       61.71541015604186
C           59.30133984556422        4.92659353093286       56.07367343771887
H           58.95554470284748        4.19840452851010       55.34821314782580
C           61.34402034350818        9.31217715047307       55.94889707212487
H           61.36389362151024       10.09154540947940       55.19351930659687
C           60.57239288379085        5.77975518054495       63.87241779300238
H           61.05844142819595        6.24676474396388       64.73678151730935
H           60.82798768391965        4.71298174057152       63.87852446026892
H           59.48697058339511        5.87929422517445       63.99778278538870
C           62.65282356910570        8.25097861147357       63.51864826284167
H           62.79330649502657        9.28805800448700       63.19442315713194
H           63.64114413307354        7.81368854864022       63.70687479090900
H           62.08454106069738        8.25918961826188       64.45507223606836
C           57.86700560636208        2.57710122097868       60.25617614469865
H           56.80994674344819        2.82595602377882       60.41375941746068
H           58.37879742334280        2.61855402805214       61.22236330532730
H           57.92402512622612        1.55419078012180       59.86492873791948
C           57.66574568711175        2.56247662658379       56.99514383580109
H           58.02225927416143        2.46812601006797       55.96834801087426
C           56.59622446043460        1.85213772465481       57.34236320713576
H           56.18203241696277        1.91896461899913       58.33924448297952
H           56.09964606592492        1.19302911966573       56.63434732056843
C           59.28592740761380        5.74123672823488       53.06774768510900
H           58.22287286090021        5.96292627945550       52.90891816442814
H           59.38521850814949        4.66638024969898       53.25350147092810
H           59.83075988979611        5.99840943997054       52.15268932412899
C           60.61613581900826        8.66047466835842       53.02251813759312
H           61.55010027887676        9.21984899546526       52.96320308816736
C           59.73030066896588        8.79326784573677       52.03801811570529
H           58.78408785001720        8.26616304193763       52.06427088486465
H           59.91838505556158        9.44785511698481       51.19158596300025
C           62.87614256008496       12.00054461418273       56.54081669978229
H           61.91531111079993       12.44278457832942       56.24006694957485
H           63.39623053141268       11.70248839329832       55.61878027836464
H           63.46734516266032       12.78436308288820       57.02646657004647
C           63.95507701966884       11.64916798103803       59.64125755926738
H           63.62314862561129       12.68028798435802       59.46211559203526
H           65.02248505457223       11.59844898584612       59.38244557223958
H           63.86414744433635       11.46009856159663       60.71966990761229
C           65.93736880052990        5.04877835691319       56.89174312463344
H           66.00304412111704        4.48451037880244       55.95294087373641
H           66.52677330016765        4.52413328765816       57.65363557835073
H           66.36083389664816        6.04408562186989       56.73184571803687
N           63.74777843233572        4.06581164680312       57.58631414065139
H           64.06390717083798        3.11250301352722       57.51973808116805
C           64.51842062231694        5.16762607862178       57.32337156747614
C           62.52330947259573        4.48057429018943       57.94267672624254
H           61.72100537442998        3.80866873065577       58.19801928652486
N           62.46389569615695        5.79926702855462       57.92368588935182
C           63.70615630568552        6.24279522934850       57.53936348915251
H           63.91097573835435        7.29348274964575       57.44927202888384
C           59.13216449035011        9.35005545551894       60.01659955541121
H           60.20612536937909        9.39015993378493       60.22411637527089
H           58.60057871236030        9.01623603434592       60.91454124694067
H           58.78863877771972       10.34961758794239       59.73499739305097
S           58.80668932439818        8.22526490340908       58.65519822997121
H           59.39230932219705        7.15660072496705       59.21836443959247
81
 energy: -118.373780159316 gnorm: 0.049758655589 xtb: 6.7.1 (edcfbbe)
Fe          60.83277512771312        6.98140330732727       58.33370028368542
N           61.21856915736659        6.92783729672327       60.31864736914627
N           59.71541148027352        5.30512025485223       58.45181435496347
N           60.43856964232727        7.08263713312232       56.38748460432905
N           61.90003781583334        8.75982383941955       58.24683688247617
C           62.05134743355681        7.74348731473112       61.02269167501281
C           61.94139456888575        7.45824003247115       62.44271213093767
C           61.03833143399171        6.44012755710017       62.57191587061208
C           60.60668616039533        6.10365282174046       61.22125790963629
C           59.32472961549519        4.68153055918652       59.60030180896484
C           58.48523373600372        3.54091981875236       59.27801545946782
C           58.40102876279949        3.48582857767204       57.90049599864702
C           59.18227185017947        4.60955133757376       57.41719143250925
C           59.85753929534921        6.13028051913486       55.60592074962809
C           59.82981307159546        6.55062802051325       54.22142738702122
C           60.38562714115524        7.80740636909124       54.19166180034628
C           60.75855757563101        8.11808663887927       55.56785192657584
C           61.92517964283303        9.61393104295019       57.19009854431535
C           62.67745155277457       10.81255538666063       57.51745313316773
C           63.13409053391935       10.64725815564084       58.77218200655476
C           62.64712010342922        9.35174653561963       59.21879835486352
C           62.82190554438237        8.78102041812862       60.48672223003501
H           63.58611076933252        9.20837346609466       61.13046049580805
C           59.71357057269037        5.08806623687823       60.88237261636361
H           59.28604874306699        4.53877289114144       61.71058136428426
C           59.31899000086235        4.94291739118972       56.07638668457420
H           58.93345418593461        4.23912677038248       55.35186035983784
C           61.35273508939355        9.31720863299741       55.95115162635729
H           61.39814541988672       10.08373851049161       55.19012915834391
C           60.57894679854974        5.79214865063712       63.83691575708214
H           61.05659491295501        6.24770836611564       64.69934013927826
H           60.82449142128495        4.73258241196142       63.85277360883868
H           59.50292524271919        5.88135214596417       63.97009186633782
C           62.64664986369277        8.23486347132104       63.50505516271897
H           62.78518633261982        9.26627079762724       63.19616956161882
H           63.62931125484821        7.81230029229380       63.70524541795399
H           62.08863762075117        8.24208387399240       64.43514960189130
C           57.87774397072442        2.59426870292362       60.25111263938671
H           56.82901385146887        2.83303096508771       60.41640662608305
H           58.38148385777289        2.62388431221388       61.20968636469875
H           57.92935281891880        1.57824191010704       59.86780675415719
C           57.68154475843459        2.57513411588496       57.03592238349511
H           58.04549383747764        2.49639336033156       56.01775812761193
C           56.60978206398052        1.86119391021545       57.35944880303163
H           56.16853071597943        1.91446993432177       58.33270016005324
H           56.11964393184264        1.21298153011094       56.65241695695837
C           59.29585362297220        5.75167572708620       53.08314504783416
H           58.23954738214683        5.96077197435280       52.92384518183326
H           59.39538410626991        4.68567993562953       53.25776491779984
H           59.82582232188393        6.00261711687884       52.16954342805251
C           60.59906515824986        8.65441922153024       53.03967385576944
H           61.53174521957695        9.20409768367832       53.00246309677069
C           59.73221936195097        8.78837829084994       52.04780207274786
H           58.78762299642449        8.28134303461596       52.05783888331493
H           59.92025783789154        9.42922336175119       51.20439129173818
C           62.87122674267860       11.96773574055131       56.57992608257106
H           61.92106661414316       12.40665903698067       56.27155640666733
H           63.38585270385832       11.67366906375730       55.66390441357125
H           63.46053668282711       12.75399052589558       57.04157122557341
C           63.93033621918435       11.61590204990766       59.60537247232151
H           63.60912353806324       12.64289077264321       59.43897721122175
H           64.99484457120386       11.57520407331385       59.36633741257783
H           63.84101955289685       11.42853975643021       60.67413882717553
C           65.94042397452812        5.04891867336334       56.88915934686070
H           66.00990822585413        4.49022378581761       55.95967495773227
H           66.52872634222828        4.53207439690813       57.64256800762196
H           66.35891123841088        6.03374625840968       56.73501391478233
N           63.75822188917147        4.06272367579890       57.58319013606088
H           64.06855389670353        3.10527102129463       57.51603600557969
C           64.52570861594609        5.16454510368698       57.32094656074638
C           62.52926481305199        4.49468635573999       57.94555711774821
H           61.73122718662194        3.83143437286101       58.19964668348882
N           62.46634369964911        5.80340515171297       57.93195215316847
C           63.70106198487731        6.23303424782926       57.54190964699871
H           63.90698916087966        7.27793089825158       57.45072399628197
C           59.12598252146365        9.37891454687046       60.04060123153592
H           60.19439291184545        9.39364888108723       60.21839727057229
H           58.59671647319633        9.03495060644940       60.92155359677260
H           58.78519741496124       10.36210554413855       59.75163870375732
S           58.74857099079748        8.27883732623608       58.65016083941678
H           59.32621474651255        7.18756620011505       59.21789385367313
81
 energy: -118.380171590441 gnorm: 0.024624073103 xtb: 6.7.1 (edcfbbe)
Fe          60.83174398762000        6.98829163355090       58.33004598282904
N           61.22311827294899        6.91609224075495       60.30412288223110
N           59.73703366470819        5.30225567509740       58.45382369211741
N           60.47044982212831        7.07613157621600       56.38533239549020
N           61.89595202528621        8.74309411731139       58.23805180488121
C           62.04989453109108        7.73276960504630       61.00844709732165
C           61.94661713491434        7.44722985905156       62.42462719526858
C           61.04249672746508        6.43426801403675       62.55260082874790
C           60.61200981651864        6.09622089915421       61.20794577508565
C           59.33949164165621        4.68119999204484       59.60158276459448
C           58.49720974954557        3.55020823752583       59.28473099307266
C           58.41379092198130        3.49557513276316       57.91077683398017
C           59.20197491788562        4.60955302256180       57.42064666529524
C           59.88347322072907        6.12558549523257       55.61079139009710
C           59.83620301492023        6.55056460507301       54.23072536549537
C           60.38430894059096        7.80611822383103       54.19908211644181
C           60.77811769598344        8.11062744419771       55.56514157538147
C           61.91595131034980        9.59601693315521       57.18162395935052
C           62.66136512675276       10.79503879102912       57.51020739854732
C           63.13242173010136       10.61959782795152       58.77637299775697
C           62.63670285278885        9.32795866742766       59.21677237468889
C           62.80595244164461        8.77592426718329       60.48203888300302
H           63.52959660767776        9.24935862802994       61.14669847763731
C           59.72323645324517        5.08094285588702       60.88072506748498
H           59.30612091776741        4.52555520544259       61.70983589164666
C           59.33155323756741        4.94813752328709       56.08265086442454
H           58.90339724858988        4.26847483299950       55.35570200573644
C           61.36378848088425        9.30858032890137       55.94210258983911
H           61.43184696878576       10.07226635006879       55.17870397203264
C           60.57654854725325        5.78965410443357       63.81348792513933
H           61.05719513802159        6.25137988237225       64.67331220044869
H           60.82342221517243        4.72825754990002       63.82139528640712
H           59.49757249789070        5.88454477516512       63.93373781777110
C           62.64794137710358        8.21787084097795       63.49407132564159
H           62.77911106729061        9.25493433880144       63.19243888815899
H           63.63383678394464        7.79803594313384       63.69743229974161
H           62.08022176013277        8.21079896720329       64.42164914367260
C           57.88644155568846        2.60481408734019       60.25853409176015
H           56.83734705396191        2.85004672490490       60.42864974101526
H           58.39861123039952        2.63323578206352       61.21611125878934
H           57.93299635405116        1.58833111792951       59.86874321189204
C           57.69427486510286        2.58125129319125       57.05513420997450
H           58.06839874917467        2.50389273121813       56.04078358486057
C           56.61996541820618        1.86418048298563       57.37466222684345
H           56.15765768687600        1.92001418028004       58.34320398754844
H           56.13848623965800        1.21812498917521       56.65939347927038
C           59.30160076203351        5.75473203686392       53.09176101755227
H           58.24021053918659        5.95809262115223       52.94325510008452
H           59.41494284082883        4.68757417482050       53.26742397915132
H           59.82544071452226        6.01620602039083       52.17388523198189
C           60.59204694028976        8.66088927716372       53.05042663002774
H           61.52239145821152        9.21739676232135       53.02888334816661
C           59.73209921989655        8.78917685312894       52.04644697414197
H           58.78058663107281        8.28800173257831       52.05239442430216
H           59.93164397908902        9.42377741377007       51.19985841240113
C           62.86275022640543       11.95245429025971       56.59072448802232
H           61.90504808590392       12.38051501396090       56.29274290449109
H           63.38176393382329       11.63859539264580       55.68419834058756
H           63.45541735762211       12.72972694804515       57.06690680081240
C           63.92576983080121       11.58852814177369       59.59510149984794
H           63.59008272940430       12.60888340510322       59.41233222003615
H           64.98715424868297       11.53871688211826       59.34551340463862
H           63.81962148719132       11.38785605577698       60.65884342877617
C           65.93189553241048        5.05782022093872       56.89067356153227
H           66.00448523154959        4.49701589984740       55.95966287574971
H           66.52337417777242        4.53908661258434       57.64411489375019
H           66.35461910546110        6.04401369327116       56.73618090797638
N           63.74588956118541        4.07563681088483       57.58856984870404
H           64.05264887690691        3.11795274800662       57.52054248688044
C           64.51568397159959        5.17651083493404       57.32343130140124
C           62.52015494737662        4.51037302946330       57.95572683538827
H           61.72085014711856        3.84956268332964       58.21471065201480
N           62.46074731851439        5.81927086664405       57.93975069927325
C           63.69488687819873        6.24675893261838       57.54618392512661
H           63.90449764759853        7.29112878173528       57.45247999703680
C           59.11901101803430        9.40676941491737       60.04890696954910
H           60.18932871851435        9.41541439200389       60.22304306451905
H           58.59057251584678        9.04813513531497       60.92762220687572
H           58.77525744191007       10.39737523929197       59.77837082715489
S           58.74879227221287        8.32419012128362       58.63488723874081
H           59.32488565076737        7.21585578516772       59.17679298389037
81
 energy: -118.374754653654 gnorm: 0.033911065870 xtb: 6.7.1 (edcfbbe)
Fe          60.85449308618319        6.98062882077845       58.32067582036650
N           61.21969184305517        6.91171179210793       60.28981668498906
N           59.74815677038008        5.30711596313498       58.45812822342014
N           60.50704188380740        7.07135983807338       56.38258026626912
N           61.88754039486562        8.71968368472744       58.22809621895401
C           62.04540555685150        7.72429298666217       60.99497177863778
C           61.95338843847444        7.43449532301664       62.40645936393818
C           61.04916378587082        6.42499490837930       62.53172288400938
C           60.61847744155424        6.08871664133093       61.19343107215293
C           59.35323052068253        4.68257940617449       59.60466955867931
C           58.50941074887513        3.56114455542619       59.29399934872212
C           58.42504257951828        3.50561136516350       57.92252356242931
C           59.21347875750300        4.61457395529242       57.42648817632431
C           59.90670593513976        6.12453367833972       55.61739369521299
C           59.84005172165102        6.55091138579737       54.24042238683236
C           60.38190508961029        7.80553727338621       54.20417688286800
C           60.79965888541074        8.10380223890980       55.55919207012265
C           61.91071327613569        9.57059131101257       57.17245535680436
C           62.65129008481045       10.76663358190785       57.50438247276927
C           63.12309398777709       10.58740683424320       58.77647964714030
C           62.62224480185360        9.29998510083554       59.21114646541994
C           62.78013679336657        8.77797662397215       60.47920308534852
H           63.46160582563901        9.28914940848260       61.15465524129789
C           59.73688049736992        5.06997145249862       60.88114779017891
H           59.33216756836944        4.50876412972221       61.71116826258148
C           59.33480210637820        4.96023096525738       56.09190582455173
H           58.87046391297461        4.30657252786089       55.36425487533151
C           61.38383761200756        9.29809885726815       55.92814835683934
H           61.47436882730312       10.06132018156214       55.16780966530083
C           60.57311263743655        5.77903753606385       63.78549279498821
H           61.04942466416215        6.24130115660737       64.64808246781325
H           60.81813894915649        4.71621617851261       63.78876828836687
H           59.49193115651808        5.87898269827517       63.89060896032135
C           62.65135626894970        8.19425140719016       63.48396292391350
H           62.77312059769596        9.23847432075635       63.19795181051440
H           63.64071957480934        7.77858454141090       63.68430722863157
H           62.07675266033618        8.16596948305424       64.40937313725793
C           57.89929037309710        2.61766020653309       60.27008442069858
H           56.85253981542920        2.87200874179898       60.45021331355979
H           58.42203012488730        2.64100794806095       61.22438076400579
H           57.93504518483485        1.60165294480074       59.87412519962060
C           57.70709118863442        2.58625758979723       57.07526558225230
H           58.09386644680001        2.50245946298906       56.06622828079363
C           56.62985637593882        1.87071083983108       57.39183018371106
H           56.15234715416216        1.92399792154687       58.35529949359555
H           56.16569303865462        1.21683531252898       56.67233866587092
C           59.30555901401515        5.75552926294460       53.10288330869808
H           58.23892217524946        5.94678083635995       52.96581858007779
H           59.43853181460535        4.68795470496322       53.27418951458206
H           59.81896337216404        6.03227883724495       52.18125370761629
C           60.58344782655197        8.66703721045643       53.05873590407078
H           61.50809499937723        9.23464651138146       53.05577104052977
C           59.73297176661350        8.79051313467689       52.04395604627964
H           58.78191621578263        8.28506808268653       52.03681711855820
H           59.94127119106164        9.42722767320518       51.20062804215409