81
 energy: -118.392300224984 gnorm: 0.000076800244 xtb: 6.7.1 (edcfbbe)
Fe          60.73397764790471        7.08611904783015       58.34390306863043
N           61.06223615369375        7.00953859776040       60.32094015605355
N           59.67846667290827        5.37631606598935       58.46258953340989
N           60.43373273172114        7.13713647721343       56.38424752812219
N           61.80748137479539        8.75193614369175       58.24332377636333
C           61.86975660667407        7.82334048328429       61.04986080914491
C           61.87082910562408        7.43319820582798       62.44047266507295
C           61.03552427726417        6.36424236058106       62.53796410170336
C           60.55543302440108        6.10207336782946       61.20040491729483
C           59.36356365813438        4.68204207649753       59.59184549231348
C           58.60380465795060        3.50233305571889       59.27245513041348
C           58.47221396314400        3.48851899926570       57.90907600476715
C           59.15507869683004        4.67186447284514       57.42845490807748
C           59.79085321793985        6.20804738175033       55.62870129358329
C           59.75663466339233        6.60617237679994       54.24340638681340
C           60.38427543080980        7.81980408899101       54.17786522923570
C           60.81086798305788        8.12017852826662       55.53128185011900
C           61.99532262077010        9.52745841736772       57.14572882144543
C           62.82489859926546       10.67009636092707       57.45981098118398
C           63.15607151712000       10.54999147244066       58.77236300096111
C           62.50473593954811        9.34829315065169       59.24540985473823
C           62.56444565072250        8.90977616737610       60.55364738588365
H           63.16913160690416        9.47539262957407       61.24525462745707
C           59.74167060555896        5.03474298100175       60.87580364987225
H           59.40632693062702        4.40454400257043       61.68479947298142
C           59.20469529016329        5.05033366552426       56.10253054556997
H           58.71716593439997        4.41010681194278       55.38414493171896
C           61.51095714752299        9.25799320969667       55.88120925168018
H           61.72096156171300        9.97746339391326       55.10529539576978
C           60.65593321903223        5.56810580388960       63.73901253817117
H           61.10705309040328        5.98442222747270       64.63620922975846
H           60.98747226487649        4.53400055129360       63.63718360484216
H           59.57377849698433        5.56426882066240       63.86943977477459
C           62.65014821844826        8.12405851279016       63.50579789275947
H           62.32733987651676        9.16077491386861       63.60550504975553
H           63.71314781857186        8.12308241618510       63.26421972854685
H           62.51620663648811        7.63040342231841       64.46511650390804
C           58.14092198068650        2.48656448631224       60.25754411760944
H           57.21105670878627        2.80293836018506       60.73267538100554
H           58.88413860179694        2.33705958382364       61.03958948940348
H           57.96489679594175        1.53611957417890       59.75794616886728
C           57.82139712387693        2.51313852553055       57.06212902420480
H           58.28062200410178        2.35551975203009       56.09301241442604
C           56.72890081624546        1.82606094376671       57.37817667244336
H           56.20405364957943        1.97919081844409       58.30483367171939
H           56.30252545313446        1.10400505826479       56.70177622912486
C           59.19145182190317        5.79277381033143       53.13275831142776
H           58.10731957741265        5.90444233752649       53.08404648141165
H           59.41561247537400        4.73657392763835       53.27538687273474
H           59.61367976415655        6.11379072961669       52.18269493538054
C           60.63689969836570        8.65965142307199       53.02744947661106
H           61.56492497319029        9.21939610484564       53.04910875426707
C           59.82816190863412        8.79424382756397       51.98180324752013
H           58.87276083136226        8.30233013663768       51.93056798231314
H           60.08375999480381        9.42977556412139       51.15017732733510
C           63.20579544411182       11.72581419904435       56.48043511239736
H           62.31588853308715       12.18570135830700       56.05111989543557
H           63.79358277963216       11.30097486828625       55.66603498491238
H           63.79646132097459       12.50283427166843       56.95935014122414
C           63.99731193462775       11.43948829634263       59.62153411283565
H           64.39889646729729       12.26364105320217       59.03735928982504
H           64.83157064295041       10.88354625211317       60.04985600875225
H           63.41078153362887       11.85461828488550       60.44173455451179
C           65.54768423355723        5.08045893165653       56.50838761162652
H           65.53369593594212        4.11392657608834       56.00493031735525
H           66.40561511309919        5.10238090656797       57.18018133053265
H           65.66930035859609        5.85936348210231       55.76234858737507
N           63.87560945007283        4.47876364738336       58.27261295415077
H           64.36689279918760        3.66536959551538       58.60524562135063
C           64.28541947402013        5.30260598851421       57.25758509546505
C           62.69931593621866        4.95456609884443       58.73795812749015
H           62.14393501484093        4.50827761029349       59.53627821932563
N           62.34081777804884        6.02908525530569       58.07884363472338
C           63.31634139845295        6.25900241609325       57.15494315171941
H           63.25498074653056        7.09038053989096       56.48404520506509
C           58.94335443158204        9.55532635783893       60.04970352384503
H           60.01234444804957        9.65088107867444       60.20643409711547
H           58.47234372883389        9.05879878385704       60.89264257029254
H           58.49758938489951       10.53292249290391       59.89645253049533
S           58.63448517018302        8.59623814424139       58.52707502601133
H           59.12670887035686        7.41028788485037       58.99695664544669
