69
 energy: -103.223817035328 gnorm: 0.850810494915 xtb: 6.7.1 (edcfbbe)
Fe          22.59300000000000       -1.25400000000000       -3.84800000000000
N           20.65400000000000       -0.94600000000000       -3.27100000000000
N           22.80900000000000       -2.59100000000000       -2.30200000000000
N           24.62000000000000       -1.41000000000000       -4.24400000000000
N           22.44800000000000        0.28200000000000       -5.18100000000000
C           19.76800000000000       -0.06000000000000       -3.84900000000000
C           18.42000000000000       -0.34200000000000       -3.36000000000000
C           18.52000000000000       -1.40000000000000       -2.51100000000000
C           19.92599999999999       -1.76100000000000       -2.45200000000000
C           21.77600000000000       -3.20300000000000       -1.63000000000000
C           22.29500000000000       -4.27600000000000       -0.80000000000000
C           23.64600000000000       -4.25300000000000       -0.95900000000000
C           23.96099999999999       -3.21800000000000       -1.92000000000000
C           25.51300000000000       -2.22600000000000       -3.60700000000000
C           26.75300000000000       -2.26700000000000       -4.36700000000000
C           26.55900000000000       -1.49500000000000       -5.47600000000000
C           25.22700000000000       -0.91100000000000       -5.35200000000000
C           23.39400000000000        0.58900000000000       -6.13300000000000
C           22.85800000000000        1.55200000000000       -7.05700000000000
C           21.56500000000000        1.80200000000000       -6.65600000000000
C           21.31600000000000        0.98700000000000       -5.48900000000000
C           20.09300000000000        0.86000000000000       -4.83000000000000
H           19.31000000000000        1.56000000000000       -5.11900000000000
C           20.44500000000000       -2.81700000000000       -1.69900000000000
H           19.73500000000000       -3.39400000000000       -1.10800000000000
C           25.22600000000000       -2.98900000000000       -2.48400000000000
H           26.07300000000000       -3.46100000000000       -1.98700000000000
C           24.66600000000000        0.02400000000000       -6.21600000000000
H           25.28900000000000        0.35000000000000       -7.04900000000000
C           17.42000000000000       -2.11700000000000       -1.78500000000000
H           16.44400000000000       -1.65100000000000       -2.03800000000000
H           17.58200000000000       -2.04100000000000       -0.68900000000000
H           17.40100000000000       -3.18400000000000       -2.09300000000000
C           17.16900000000000        0.37300000000000       -3.79000000000000
H           16.72700000000000       -0.14800000000000       -4.66600000000000
H           17.41400000000000        1.41800000000000       -4.07800000000000
H           16.43100000000000        0.37100000000000       -2.96000000000000
C           21.46900000000000       -5.18600000000000        0.05600000000000
H           21.16800000000000       -6.07800000000000       -0.53400000000000
H           20.55500000000000       -4.65400000000000        0.39600000000000
H           22.06400000000000       -5.51800000000000        0.93400000000000
C           24.66400000000000       -5.10200000000000       -0.33000000000000
H           25.62600000000000       -4.63600000000000       -0.07400000000000
C           24.55500000000000       -6.38300000000000       -0.03100000000000
H           23.62700000000000       -6.93100000000000       -0.25100000000000
H           25.39100000000000       -6.91900000000000        0.44200000000000
C           27.96800000000000       -3.05600000000000       -3.95700000000000
H           27.91100000000000       -4.07700000000000       -4.39200000000000
H           28.00600000000000       -3.13800000000000       -2.85000000000000
H           28.88500000000000       -2.55500000000000       -4.33300000000000
C           27.43700000000000       -1.31900000000000       -6.64300000000000
H           27.34500000000000       -0.38600000000000       -7.21700000000000
C           28.34600000000000       -2.18400000000000       -7.08500000000000
H           28.50200000000000       -3.14200000000000       -6.56800000000000
H           28.95300000000000       -1.95200000000000       -7.97300000000000
C           23.59300000000000        2.13500000000000       -8.22500000000000
H           23.89400000000000        1.32000000000000       -8.91800000000000
H           24.50500000000000        2.66100000000000       -7.87000000000000
H           22.93200000000000        2.84400000000000       -8.76800000000000
C           20.58299999999999        2.71000000000000       -7.32900000000000
H           20.13200000000000        2.18800000000000       -8.20000000000000
H           21.10200000000000        3.62500000000000       -7.68600000000000
H           19.77600000000000        2.98400000000000       -6.61600000000000
O           23.39900000000000        0.44100000000000       -2.50700000000000
H           24.35200000000000        0.35700000000000       -2.52000000000000
H           22.93100000000000        1.05400000000000       -2.06400000000000
O           24.92800000000000        0.85200000000000       -2.28500000000000
H           24.64900000000000        0.92300000000000       -1.37200000000000
H           25.63700000000000        1.24500000000000       -2.65100000000000
69
 energy: -103.466761630166 gnorm: 0.263301555161 xtb: 6.7.1 (edcfbbe)
Fe          22.59561144902350       -1.22443132744701       -3.81889789913024
N           20.65087087082844       -0.95220349685406       -3.27990665386715
N           22.80680903224291       -2.59693346645127       -2.31034078123239
N           24.61344033788104       -1.41437771074500       -4.24784756442380
N           22.44497813846162        0.26872233056169       -5.18978966633372
C           19.76966950583992       -0.06601764873419       -3.84866696119239
C           18.42258713409804       -0.33999860778803       -3.36043951191219
C           18.52197471068176       -1.40034064056644       -2.51069525832592
C           19.92751282492418       -1.76248681026759       -2.45510607852085
C           21.77889365572250       -3.20057800377116       -1.63167568102618
C           22.29491328346959       -4.27329761283789       -0.80102185530941
C           23.65413395463256       -4.25395532517072       -0.95728601730710
C           23.96043922424172       -3.21466582463073       -1.92336155140500
C           25.50998167692374       -2.22554504353444       -3.60990722798476
C           26.75180077340964       -2.26813827011006       -4.36422781700972
C           26.56067964063422       -1.49323879694408       -5.48083101289817
C           25.22632732158501       -0.91300067318221       -5.35363849931858
C           23.39228900448780        0.58574751350490       -6.12952674161739
C           22.85528538562331        1.55266106541902       -7.05513541816432
C           21.56752447654692        1.80338771995314       -6.65575258277016
C           21.31972962870539        0.98326753680851       -5.48910289667355
C           20.09663248044171        0.86159090691240       -4.82748816694644
H           19.31216895624193        1.55447683125368       -5.12123055070059
C           20.44562954189598       -2.81447503759574       -1.70070605540051
H           19.73731179244781       -3.39035505740541       -1.11103863472972
C           25.22375584743463       -2.98516378463604       -2.47995789662092
H           26.06773220003414       -3.46502488946403       -1.99144288467162
C           24.66567647913331        0.02443412185214       -6.21482158798257
H           25.28555279867275        0.34939655344482       -7.04595569933579
C           17.42161398434079       -2.11450028195629       -1.78628048801988
H           16.45149258865952       -1.65673893399686       -2.03461438523467
H           17.57928530523055       -2.04439902776356       -0.69741703423104
H           17.39999134298826       -3.17502086339127       -2.08784840455557
C           17.17303263357641        0.37246171906657       -3.78936053689146
H           16.72948380057838       -0.14206647825945       -4.65911608066584
H           17.40848776036986        1.40952235517950       -4.07501683175165
H           16.43693592420614        0.37326345657447       -2.96903071163256
C           21.47049305642332       -5.18321693595827        0.05463947587225
H           21.16893056589409       -6.07110507945060       -0.52749078681626
H           20.56255959235456       -4.66099541584742        0.39532821662153
H           22.05733917989388       -5.51560051401075        0.92675831070001
C           24.66624138334292       -5.09891367191602       -0.32889230708810
H           25.62160885975199       -4.63187150250171       -0.07889364011995
C           24.55167058335714       -6.38558159298972       -0.02918737202119
H           23.63598049567763       -6.93160962017946       -0.24912295936521
H           25.38054643261239       -6.91851355108954        0.43827329364181
C           27.96456916113242       -3.05395107060383       -3.95803597754722
H           27.91307749224651       -4.06942945433538       -4.38651422684317
H           28.00831166619111       -3.13810526035793       -2.86036224566779
H           28.87752105275087       -2.56012406985820       -4.32865598460129
C           27.43818157469460       -1.31549447551068       -6.63933760672023
H           27.33961920586014       -0.38907688309794       -7.21111443366410
C           28.34619172225432       -2.18407496445459       -7.08127232537411
H           28.50263815107073       -3.13590171140875       -6.57633105472978
H           28.94812943669554       -1.95758972451203       -7.96361119751766
C           23.59100239349565        2.13339150662566       -8.22304918643631
H           23.89263812187380        1.32812679537563       -8.91374090546354
H           24.49756678216909        2.65745169192479       -7.87559776120727
H           22.94054089157555        2.83820649574166       -8.76422959858781
C           20.58366269477747        2.70889286442531       -7.32711986708715
H           20.13397469084672        2.19415557654011       -8.19343673096959
H           21.09424520733107        3.61840000955779       -7.68312961302926
H           19.78216182313784        2.98460416104198       -6.62468639568443
O           23.25085017728791        0.37745935194999       -2.52493971865634
H           24.30182279459732        0.29090439266656       -2.56582505278126
H           22.84052899424757        1.06122041568200       -2.05539199679143
O           25.04084087758283        0.87971444297740       -2.25800035509589
H           24.69976041957825        0.95089017467199       -1.35801144567024
H           25.76755905307869        1.30175912187462       -2.64053492550523
69
 energy: -103.520744193329 gnorm: 0.151323599238 xtb: 6.7.1 (edcfbbe)
Fe          22.60315287147244       -1.17876146177356       -3.77341287324984
N           20.64945354002145       -0.97224345954547       -3.30572237644246
N           22.80292353627414       -2.60715060698895       -2.33210970217010
N           24.59562527279379       -1.42886165133092       -4.26095337010439
N           22.43421366854396        0.22922390067918       -5.21254982510661
C           19.77582197115971       -0.07978950135018       -3.85602137844087
C           18.43203753007604       -0.33916115655906       -3.36184522132248
C           18.52974386722715       -1.40066447166774       -2.51283564131280
C           19.93224930300069       -1.77037678966845       -2.46828237186398
C           21.78370105477202       -3.19750885183100       -1.64017300157505
C           22.29901274691462       -4.26452280415165       -0.80532731709754
C           23.66237027155361       -4.24956060923902       -0.95879573129591
C           23.95762668863834       -3.20841836443889       -1.93197913000242
C           25.49805559711936       -2.22593718309209       -3.61663205108682
C           26.74144826530476       -2.26816973995606       -4.36128472999426
C           26.55614858103336       -1.49176935812035       -5.48190373235546
C           25.21846189594478       -0.92097060637180       -5.35836037616048
C           23.38687067389515        0.57026737415019       -6.12887129981819
C           22.85301986994451        1.54953245321698       -7.04872985831164
C           21.57149310047344        1.80231668667825       -6.65042504421152
C           21.32317347870803        0.96775241376985       -5.49175145010295
C           20.10488957270881        0.85764686637995       -4.82605156195709
H           19.31822585363191        1.53950900612349       -5.12842627152806
C           20.44993662006760       -2.81223622902311       -1.70823324707697
H           19.74353484048048       -3.38056916003771       -1.11532941161630
C           25.21707945560262       -2.97695501293358       -2.47848624885844
H           26.05431852201786       -3.47847869785942       -2.00649006169977
C           24.66151382688196        0.02010927978496       -6.21440162228780
H           25.27921299741109        0.35174331120594       -7.03937884881214
C           17.42951928775348       -2.10902065848627       -1.78878661143791
H           16.46379402281643       -1.66316108878284       -2.03002127244979
H           17.57814542893837       -2.05048943248482       -0.70750307773475
H           17.40064206709932       -3.16247574677994       -2.07945834741091
C           17.18500752862650        0.37121602164636       -3.78764584750288
H           16.73630996500981       -0.13324247255666       -4.64971056973316
H           17.40190414573906        1.40123849483253       -4.07046767206706
H           16.44915696822320        0.37710916295027       -2.98072115757935
C           21.47655153313109       -5.17372773253081        0.04929662227510
H           21.17120592379824       -6.05829550608968       -0.51955804828834
H           20.57387675975228       -4.66859348556038        0.39623350521361
H           22.05146110274758       -5.50929653815411        0.91516976307094
C           24.66671999249402       -5.09184495523768       -0.32949281734304
H           25.61589696749875       -4.61877061518814       -0.09281797749616
C           24.54462611955013       -6.38080685671325       -0.02611818676547
H           23.64658163324790       -6.93354954537680       -0.24973396666692
H           25.36167513708790       -6.91760513754462        0.43476436940806
C           27.95324332181442       -3.04804371847268       -3.95939840088263
H           27.91395131291093       -4.05873039227538       -4.37747689735718
H           28.01119076434754       -3.13626238197807       -2.87311686499834
H           28.86232784825601       -2.56394440501190       -4.32386224500154
C           27.43769760789805       -1.30843496506015       -6.62569446906248
H           27.32211367783487       -0.39010083363265       -7.19564810536641
C           28.34441607587624       -2.17867875412540       -7.06824923559331
H           28.50111001089950       -3.13070184230625       -6.58773558037760
H           28.93879152083456       -1.96430714383703       -7.94628884723354
C           23.58752866197434        2.12853694992074       -8.21535493636971
H           23.89051501420705        1.33767312936876       -8.90682848478003
H           24.48801438949394        2.65195848028378       -7.88203430991516
H           22.95237210434203        2.83021170514236       -8.75691205831901
C           20.58695785262312        2.70545766395180       -7.32045959741199
H           20.13669015264608        2.20243765832321       -8.18227722050796
H           21.08250025044661        3.61057916825657       -7.67758422703694
H           19.78891071983115        2.98817175437733       -6.63493914641688
O           23.18777306788683        0.33791627440702       -2.51391282917187
H           24.27304002589000        0.27913240012146       -2.57571563436634
H           22.80694183214765        1.07024179245245       -2.04725315067471
O           25.09558380559730        0.88617385214038       -2.23879967553626
H           24.74710047937376        0.97929484159796       -1.34125332016169
H           25.83383944568025        1.33273928236284       -2.63386971508806
69
 energy: -103.556579527814 gnorm: 0.098489281277 xtb: 6.7.1 (edcfbbe)
Fe          22.58661181616843       -1.20142291833859       -3.79586010196572
N           20.65811018261019       -0.99096487814530       -3.33065746327185
N           22.79719569837094       -2.60267614027907       -2.35163894724936
N           24.57419812413050       -1.43239444092214       -4.26562304771639
N           22.42803085024025        0.19416452568710       -5.21927547150951
C           19.78584441598860       -0.09668261342686       -3.86514127370916
C           18.44478890424086       -0.33887427011389       -3.36397584565212
C           18.54062957275624       -1.40135238013777       -2.51556497530720
C           19.94060472398553       -1.77836550155396       -2.48316720584824
C           21.78835193512511       -3.19150863641399       -1.65130926840158
C           22.30162682831763       -4.25278680956905       -0.81197640153074
C           23.66720327093865       -4.24099315890998       -0.96300956695202
C           23.95147940815879       -3.19767132282211       -1.94336297088360
C           25.48205870532276       -2.22425712686428       -3.62283465884509
C           26.72625832947206       -2.26778908984154       -4.35573377363595
C           26.54651852147343       -1.49056844423724       -5.47969915613464
C           25.20801395007475       -0.92656942036970       -5.35884006925903
C           23.37946794311647        0.55013519252931       -6.12502218118249
C           22.85178299068550        1.54459860873762       -7.03933113697114
C           21.57564452900309        1.79947668839278       -6.64177051959742
C           21.32623564401911        0.94695586823781       -5.49257516323915
C           20.11167151573269        0.84697875751158       -4.83029221848371
H           19.32529014971331        1.52278644839410       -5.13595381759891
C           20.45408624724492       -2.81211292455777       -1.71877293794603
H           19.75003911405460       -3.37009860320194       -1.11841724844769
C           25.20730432355235       -2.97263850236108       -2.48196975035797
H           26.03799666531813       -3.49338071354916       -2.02517162868123
C           24.65453380245074        0.01226292883828       -6.21562863626443
H           25.27139323974604        0.35536891374105       -7.03294297348328
C           17.44011174609584       -2.10398021980296       -1.79077352647545
H           16.47757458134360       -1.66337233405911       -2.02888680286996
H           17.58339355686942       -2.05257111449506       -0.71339625643700
H           17.40696282207193       -3.15396477627222       -2.07498227336238
C           17.19951823314307        0.37112307493327       -3.78569987560131
H           16.74832059145109       -0.12832624251120       -4.64350578171334
H           17.40373223526650        1.39842508194243       -4.06611610618449
H           16.46459542061788        0.37754590201869       -2.98504246574961
C           21.48276140922975       -5.16205275311977        0.04322378776804
H           21.17542803468355       -6.04424966391445       -0.51915206020004
H           20.58330919097727       -4.66732759864277        0.39653097200969
H           22.05453366674709       -5.49965859964500        0.90354713852079
C           24.66638047281340       -5.08238685160319       -0.33574145880329
H           25.61003545490312       -4.60202490276626       -0.10841975837202
C           24.53724837261321       -6.37181418772578       -0.02957413246586
H           23.65016751210218       -6.93206170537646       -0.24975229968538
H           25.34288828359132       -6.91302620963851        0.43440551836928
C           27.93910242359005       -3.04161183595325       -3.95904006188593
H           27.90776338202896       -4.04980726210053       -4.37138897799224
H           28.00941244367789       -3.13112788063459       -2.87885674951697
H           28.84339039163029       -2.56050183882481       -4.32439357088088
C           27.42815421670658       -1.30415553533492       -6.61347913181810
H           27.30379587518416       -0.38674211314125       -7.17477501601125
C           28.33428370078026       -2.17484678222019       -7.05658788119283
H           28.50042966039917       -3.12642318199624       -6.59219361659037
H           28.93160734929365       -1.96484151566667       -7.92665809540012
C           23.58554576453471        2.12254686714379       -8.20525855915986
H           23.88795208869429        1.33915458670119       -8.89704913910020
H           24.48274843329915        2.64660044521754       -7.88114371706296
H           22.95755731394101        2.82266492642707       -8.74617569695704
C           20.59053187067672        2.70173834107694       -7.31054306598050
H           20.14116368856072        2.20339917462364       -8.16956815733999
H           21.07825365531505        3.60398051665253       -7.67011066070160
H           19.79374608020928        2.99023155431075       -6.63546388985909
O           23.11508816490576        0.28010304922290       -2.48917989800533
H           24.22413422895278        0.26932954443189       -2.58131064318584
H           22.77162554715525        1.07499362234698       -2.05461044785876
O           25.16841027429432        0.89548811417754       -2.21131103757596
H           24.83014085485454        1.03584067430827       -1.31742935936909
H           25.90622960478343        1.37008959345583       -2.62061883517702
69
 energy: -103.580056344053 gnorm: 0.084248469977 xtb: 6.7.1 (edcfbbe)
Fe          22.58246968526541       -1.19649698625493       -3.79059342407080
N           20.65943405822255       -1.02066576874922       -3.36611806335734
N           22.78808272149200       -2.61363105275047       -2.37912251210297
N           24.55450466191783       -1.44339370193531       -4.27535940324478
N           22.41777525805714        0.16095836743173       -5.23161835525943
C           19.78918105373972       -0.11752034129489       -3.88349364768539
C           18.45355152303685       -0.34272432024563       -3.36879692566007
C           18.54799999970258       -1.40561513555518       -2.52108488179150
C           19.94280503503114       -1.79559429681381       -2.50462766489711
C           21.78644431835472       -3.19602405881813       -1.66709395549659
C           22.30080055308040       -4.24561565165141       -0.81897898711873
C           23.66527751081756       -4.23456065758474       -0.97045015619766
C           23.94335717397087       -3.19778297055068       -1.95969001923475
C           25.46648255127191       -2.22887753807495       -3.63101345524802
C           26.71051100712224       -2.27003289525115       -4.35289927682610
C           26.53458305067851       -1.49239990328565       -5.47690852735818
C           25.19573616061655       -0.93703481831669       -5.36434438145925
C           23.37101764732148        0.52751761143294       -6.12965685319739
C           22.85072158848974        1.53617586569364       -7.03494653457798
C           21.57650466622061        1.79257455964992       -6.63771341290647
C           21.32193839104910        0.92389875967424       -5.50128519652029
C           20.11022149544186        0.83248943895463       -4.84271990100136
H           19.32643968743024        1.50915856843560       -5.14516203599309
C           20.45288489021120       -2.81952142266461       -1.73030548312960
H           19.75180294776485       -3.36340315945398       -1.11606516717887
C           25.19846336967407       -2.97709728451548       -2.49095380982801
H           26.02466504391523       -3.50894425313197       -2.04392738795090
C           24.64778981386797        0.00224651055973       -6.22219278148756
H           25.26631316036422        0.35945252381489       -7.03082995597484
C           17.45008701287315       -2.10159520456627       -1.78979333045593
H           16.48857919657692       -1.65864166812405       -2.02784871915608
H           17.59500288018594       -2.05074133541226       -0.71252154520028
H           17.41458790896872       -3.15213725773124       -2.07246140379010
C           17.21194337774857        0.37340347211475       -3.78410443032507
H           16.75985216151758       -0.12439634711757       -4.64242880769084
H           17.41346372220880        1.40238502837104       -4.06193970938082
H           16.47927385490442        0.37706591965483       -2.98136935886501
C           21.48634918281091       -5.15140683665582        0.04035784647782
H           21.17771486645891       -6.03286033586000       -0.52219470805879
H           20.58830606957094       -4.65809998234670        0.39952756480413
H           22.06494666503824       -5.48860748838565        0.89633207373094
C           24.66430361442213       -5.07149823804551       -0.34164370382039
H           25.60747378378842       -4.58560135873663       -0.12432471056507
C           24.52973041780950       -6.35826448983305       -0.02982876693256
H           23.64724855260046       -6.92605218137018       -0.25369150712539
H           25.33126451439679       -6.90530368581772        0.43601879991612
C           27.92580627026534       -3.03630972852658       -3.95635579737065
H           27.89789621319821       -4.04564698718228       -4.36645714464042
H           28.00390858977233       -3.12276197470257       -2.87617985341167
H           28.82484636010999       -2.55043099591307       -4.32871562997204
C           27.42004168517215       -1.29799867598582       -6.60159953535023
H           27.28616067615944       -0.37954167597746       -7.15800570723013
C           28.32903800950258       -2.16563093412174       -7.04232419266822
H           28.49302954689546       -3.12581068475748       -6.59267011843013
H           28.92590034647848       -1.95791154495698       -7.91351673570292
C           23.58671678500022        2.11682163231702       -8.19614327886001
H           23.88780622682487        1.33396566428875       -8.88899495693189
H           24.48377270188389        2.64166867443401       -7.87296000197737
H           22.95759323077894        2.81787763805509       -8.73533849672414
C           20.59274444889705        2.69930792161174       -7.30019219998852
H           20.14265827955881        2.20042870623642       -8.15855525882871
H           21.08123459980979        3.60084141145692       -7.66133245149708
H           19.79589107302172        2.99161973399537       -6.62617253018109
O           23.06102521092888        0.23659733101773       -2.45003524863923
H           24.16369199571390        0.27158179470096       -2.56956962475653
H           22.75096015473737        1.08467136327248       -2.07388999843508
O           25.25425907020108        0.90929056681838       -2.17046279826163
H           24.94058293271891        1.12395367668860       -1.28373539994219
H           25.97754878636138        1.40423308834453       -2.59292646700761
69
 energy: -103.597087817975 gnorm: 0.070892092195 xtb: 6.7.1 (edcfbbe)
Fe          22.56930448474085       -1.23281137316257       -3.82525249604592
N           20.66261896843444       -1.04829877247221       -3.39665883160449
N           22.77878420343976       -2.62238521330046       -2.40434327564063
N           24.53713598282267       -1.44996409351339       -4.28236178138796
N           22.41075534262183        0.13698455337894       -5.23815160889254
C           19.79159412007590       -0.13757960677051       -3.90225580258089
C           18.46147269791595       -0.34926973819381       -3.37490196702225
C           18.55482568888608       -1.41153205255940       -2.52821986158951
C           19.94411647191209       -1.81261287357218       -2.52577255306018
C           21.78216809992854       -3.20145683642984       -1.68284289536142
C           22.29874868961129       -4.23943636190469       -0.82547734141315
C           23.66023530115810       -4.22740151949021       -0.97998305476426
C           23.93413801503020       -3.19937694547105       -1.97540033118465
C           25.45139864534893       -2.23228599003334       -3.63778481825536
C           26.69545572172315       -2.27154649758941       -4.35265985845260
C           26.52139016490624       -1.49431303473369       -5.47461267137453
C           25.18385270042777       -0.94411872640397       -5.36817462019979
C           23.36432701554456        0.51048574599226       -6.13424224767723
C           22.84950899786070        1.52563493760710       -7.03236448392059
C           21.57585892245539        1.78265677928990       -6.63519032545993
C           21.31790954180162        0.90520500525222       -5.50927117170134
C           20.10634814693333        0.81596796260328       -4.85673847265853
H           19.32382813333997        1.49391584076762       -5.15650815418625
C           20.44999527613327       -2.82887873691272       -1.74249618341895
H           19.75171384425642       -3.35867614009398       -1.11370056336299
C           25.18909822062192       -2.98421973856642       -2.50285338805692
H           26.01221877725352       -3.52455514076363       -2.06318663121132
C           24.64149137756726       -0.00637595519876       -6.22873004032006
H           25.26079876348247        0.36022135728456       -7.03166582058415
C           17.46026122386280       -2.10040547824715       -1.78741914530006
H           16.49834395417816       -1.65496621068008       -2.02317519444496
H           17.60938352948721       -2.04674955864934       -0.71020418423721
H           17.42095081178972       -3.15232665545867       -2.06679153123871
C           17.22376721704075        0.37618187466215       -3.78241571921939