78
 energy: -116.004721742245 gnorm: 0.199710826651 xtb: 6.7.1 (edcfbbe)
Fe         -11.65700000000000        2.27400000000000        1.26700000000000
N          -12.23400000000000        0.57300000000000        2.14900000000000
N           -9.92900000000000        2.25200000000000        2.36100000000000
N          -10.99200000000000        3.85100000000000        0.23000000000000
N          -13.30400000000000        2.18700000000000        0.08700000000000
C          -13.42000000000000       -0.14300000000000        1.92600000000000
C          -13.42500000000000       -1.33800000000000        2.73600000000000
C          -12.29500000000000       -1.30200000000000        3.47900000000000
C          -11.52500000000000       -0.13900000000000        3.10500000000000
C           -9.60900000000000        1.34600000000000        3.36600000000000
C           -8.42700000000000        1.79400000000000        4.04100000000000
C           -8.06200000000000        2.97700000000000        3.46900000000000
C           -9.01200000000000        3.27600000000000        2.39100000000000
C           -9.82800000000000        4.56100000000000        0.48600000000000
C           -9.65100000000000        5.59000000000000       -0.50200000000000
C          -10.72600000000000        5.49300000000000       -1.36000000000000
C          -11.57600000000000        4.41900000000000       -0.88900000000000
C          -13.63300000000000        3.10900000000000       -0.90400000000000
C          -14.98600000000000        2.90600000000000       -1.33300000000000
C          -15.47200000000000        1.81900000000000       -0.59400000000000
C          -14.41100000000000        1.37000000000000        0.25000000000000
C          -14.42300000000000        0.26100000000000        1.09300000000000
H          -15.32700000000000       -0.34700000000000        1.08700000000000
C          -10.30000000000000        0.20500000000000        3.66300000000000
H           -9.86000000000000       -0.48200000000000        4.38700000000000
C           -8.98000000000000        4.34000000000000        1.51700000000000
H           -8.19300000000000        5.07800000000000        1.67100000000000
C          -12.79100000000000        4.10300000000000       -1.39800000000000
H          -13.13700000000000        4.67100000000000       -2.26200000000000
C          -11.80800000000000       -2.34800000000000        4.47000000000000
H          -12.53400000000000       -3.18800000000000        4.50900000000000
H          -11.72500000000000       -1.89700000000000        5.48200000000000
H          -10.82000000000000       -2.74000000000000        4.14700000000000
C          -14.53100000000000       -2.34900000000000        2.66100000000000
H          -14.83900000000000       -2.48300000000000        1.60200000000000
H          -15.40500000000000       -1.99400000000000        3.24800000000000
H          -14.17600000000000       -3.32400000000000        3.05900000000000
C           -7.75800000000000        1.05900000000000        5.16800000000000
H           -7.92700000000000       -0.03300000000000        5.05100000000000
H           -8.18700000000000        1.38800000000000        6.13800000000000
H           -6.66500000000000        1.25800000000000        5.14900000000000
C           -6.92900000000000        3.88400000000000        3.79900000000000
H           -6.55300000000000        4.58200000000000        3.03700000000000
C           -6.33000000000000        3.89500000000000        5.00000000000000
H           -6.66600000000000        3.21700000000000        5.79800000000000
H           -5.49500000000000        4.58200000000000        5.20100000000000
C           -8.43000000000000        6.49500000000000       -0.59100000000000
H           -7.51300000000000        5.90200000000000       -0.38500000000000
H           -8.51000000000000        7.30800000000000        0.16200000000000
H           -8.35700000000000        6.92800000000000       -1.61100000000000
C          -10.98900000000000        6.23100000000000       -2.62700000000000
H          -11.37800000000000        5.68300000000000       -3.49800000000000
C          -10.77600000000000        7.54800000000000       -2.77300000000000
H          -10.38800000000000        8.14700000000000       -1.93600000000000
H          -10.98700000000000        8.04500000000000       -3.73100000000000
C          -15.73200000000000        3.73300000000000       -2.31800000000000
H          -15.31300000000000        3.56800000000000       -3.33400000000000
H          -15.63300000000000        4.80800000000000       -2.05700000000000
H          -16.80400000000000        3.44000000000000       -2.31900000000000
C          -16.84600000000000        1.18200000000000       -0.68500000000000
H          -17.23800000000000        1.29200000000000       -1.71900000000000
H          -17.54100000000000        1.68700000000000        0.02000000000000
H          -16.77500000000000        0.10100000000000       -0.44000000000000
O          -10.69900000000000        0.99100000000000        0.02300000000000
H          -10.90000000000000        0.11200000000000        0.34500000000000
H          -10.19300000000000        1.19100000000000       -0.68100000000000
C          -14.96700000000000        6.00100000000000        3.92900000000000
H          -14.52700000000000        6.97800000000000        4.22300000000000
H          -15.54100000000000        5.59100000000000        4.78800000000000
H          -15.64200000000000        6.15700000000000        3.06100000000000
N          -12.88700000000000        4.68900000000000        4.43700000000000
H          -12.78900000000000        5.05000000000000        5.36400000000000
C          -13.87000000000000        5.05100000000000        3.55300000000000
C          -12.10000000000000        3.78700000000000        3.85200000000000
H          -11.24000000000000        3.32700000000000        4.33900000000000
N          -12.52000000000000        3.55000000000000        2.62500000000000
C          -13.63100000000000        4.32800000000000        2.41000000000000
H          -14.15600000000000        4.30100000000000        1.46300000000000
78
 energy: -116.036854855997 gnorm: 0.073742999643 xtb: 6.7.1 (edcfbbe)
Fe         -11.65525960040395        2.27871406234460        1.26808972514267
N          -12.24443203329335        0.58881419350282        2.17196670269602
N           -9.94978591474124        2.27124571448529        2.37828100896507
N          -10.98775792458667        3.85074181036629        0.23058395147714
N          -13.30663932810630        2.20593401938479        0.09802637116508
C          -13.40656634953185       -0.12283182433032        1.93457608182402
C          -13.42307015991807       -1.32961569128934        2.73131583775987
C          -12.28392283069705       -1.31781781966602        3.46980895218894
C          -11.54247164741227       -0.13191341743456        3.10539598277327
C           -9.60855016840407        1.36376038226317        3.35212604441195
C           -8.42006651950568        1.80306919703480        4.03598941299852
C           -8.05079227210252        2.99266110800701        3.46858578827237
C           -9.01402521696261        3.26369070928507        2.40546899273287
C           -9.84139602879323        4.56061921780468        0.48115511168445
C           -9.65426102052523        5.58746831940099       -0.51590686245497
C          -10.71629008650723        5.49011474529092       -1.37700855917889
C          -11.55903053846542        4.41625390560239       -0.88061863399914
C          -13.63863606273693        3.10501879584216       -0.88538748086125
C          -14.99074385993526        2.89155797201111       -1.32073115368119
C          -15.46668041346731        1.81695446787061       -0.60305195916484
C          -14.39908048146203        1.39060367126196        0.25371803868589
C          -14.41603524819709        0.28040542479785        1.09193146975897
H          -15.31325271493118       -0.33134641050031        1.07976641094800
C          -10.31413912638659        0.21424308649365        3.64983349947241
H           -9.88574312012011       -0.46387435700808        4.38062881649215
C           -8.97792883546887        4.33299985016625        1.52934774807994
H           -8.18460060396722        5.05902747385366        1.67014823396211
C          -12.79310356972552        4.09113997839258       -1.38911943795607
H          -13.14526566639553        4.66158269819142       -2.24276267429075
C          -11.81134853712460       -2.34464509777613        4.46093471602997
H          -12.51931321441135       -3.17622438903401        4.51290600643503
H          -11.72194095763499       -1.90714625930049        5.46112221139447
H          -10.83420934366820       -2.73677511063605        4.16099964293276
C          -14.52207339416060       -2.34154101490972        2.66430664009257
H          -14.83622612147609       -2.48553544866545        1.62537014237884
H          -15.39208954050651       -2.00774226589077        3.24124881943048
H          -14.19042340970551       -3.30750759918872        3.05712077703522
C           -7.76103549579573        1.05865866523473        5.15444558937341
H           -7.92347886883150       -0.01888493897423        5.05501776938236
H           -8.17176071476737        1.37472409308734        6.12160769964177
H           -6.68300756721095        1.24362979910938        5.15057660712951
C           -6.93173432137524        3.87141846397335        3.80613143286291
H           -6.58048238622998        4.55994766612786        3.04044907653048
C           -6.32969254683580        3.89525318527381        4.99509739013456
H           -6.65723361064857        3.25651232946341        5.80258276102847
H           -5.50694210053402        4.57051333648739        5.19674025321721
C           -8.44818952589899        6.48299597685948       -0.59420653541438
H           -7.53549621644151        5.91225007776686       -0.38925869500038
H           -8.51289462481041        7.29243041396126        0.14253528297092
H           -8.36412727386241        6.92149503381858       -1.59230278620995
C          -10.98047912532494        6.23520566186473       -2.61297786908517
H          -11.37795371454735        5.67704963114633       -3.46022820888448
C          -10.76842183939394        7.54008300701145       -2.76674944463000
H          -10.40039654304680        8.14729479050495       -1.94984319054904
H          -10.97688418603295        8.03712481084164       -3.70769330295227
C          -15.72691444616329        3.72282825861677       -2.31418116899209
H          -15.32147568391618        3.57627768008591       -3.32303918186040
H          -15.64077712209978        4.78721000564451       -2.06761943682684
H          -16.78654015904334        3.45269573633285       -2.32607583754454
C          -16.82991086200450        1.18999939213505       -0.68941467309086
H          -17.23508671450034        1.28875842739998       -1.70132243793657
H          -17.52612318787407        1.67315673092929        0.00682188143335
H          -16.78060880258408        0.12548916410972       -0.44445568870731
O          -10.70446318015663        0.97359296167231        0.00374357283283
H          -10.87562305119225        0.08291491697344        0.31340478693828
H          -10.15611842165456        1.17046686535016       -0.73476642782670
C          -14.96032031397022        6.00194870943792        3.92604167601358
H          -14.53977777164079        6.97000006483506        4.21981262113224
H          -15.53745928775992        5.60657244476814        4.76946178627001
H          -15.63013988177467        6.15346159149729        3.07776575220091
N          -12.89591428336140        4.69166106212208        4.44030920000767
H          -12.79386559316987        5.05681801195773        5.37126313364429
C          -13.87690096040410        5.04903271064356        3.55481398613722
C          -12.10618660218455        3.78226241561947        3.84507796902573
H          -11.25358897316086        3.32960893461148        4.32125223888225
N          -12.52621622920260        3.53672109847798        2.62514487863845
C          -13.62732606008101        4.32238399820257        2.42229071063447
H          -14.14629988907425        4.30133271699438        1.48258045381416
78
 energy: -116.045652569215 gnorm: 0.023597179261 xtb: 6.7.1 (edcfbbe)
Fe         -11.65217672079229        2.28193384865217        1.27047785590945
N          -12.25525546602785        0.60210954405958        2.19033558694226
N           -9.96479827702744        2.28298185651208        2.38698829376242
N          -10.98447256975625        3.85187558670172        0.23618249946708
N          -13.31124891279437        2.22938742982490        0.11741106924792
C          -13.40148282133500       -0.09778939616409        1.94890943243585
C          -13.42455582040185       -1.31713569254293        2.72835769456365
C          -12.27807544992816       -1.32582440949380        3.46247098285179
C          -11.55823637805196       -0.12094858505581        3.10931934348364
C           -9.61950856161249        1.38233216798212        3.34814049733629
C           -8.42360130188084        1.80639854659613        4.03344821308538
C           -8.05262270843957        3.00223971883200        3.46873461214830
C           -9.02232276090649        3.25858183385678        2.41542309902395
C           -9.84711273169730        4.55522894456646        0.48113686317190
C           -9.65504100618348        5.58200384044888       -0.51796371273931
C          -10.71181848887369        5.48319819136465       -1.38081513156151
C          -11.54695313704526        4.40870557089271       -0.87017716510688
C          -13.64097628482967        3.11141668054369       -0.86213157411265
C          -14.99257274165855        2.88518637310717       -1.31198375169444
C          -15.46121513040763        1.81751239844244       -0.60770922193953
C          -14.38899706405303        1.41120507000877        0.26734455593347
C          -14.41511239346063        0.30213402273717        1.09890853938695
H          -15.30328472313678       -0.31530776144539        1.07464182163348
C          -10.33331067013098        0.23058061732460        3.64912062973340
H           -9.91174511594262       -0.44087624838331        4.38322895998744
C           -8.97541336122467        4.32722788227935        1.53690000139167
H           -8.17182643829560        5.03914137456891        1.66220439046433
C          -12.79407561629641        4.08549575035601       -1.37484985012227
H          -13.15069997378726        4.65785492553298       -2.22021218423555
C          -11.81101360673381       -2.34178560775405        4.44935976972219
H          -12.51286170751825       -3.16785757145067        4.50833783686900
H          -11.72080414957991       -1.90335602533524        5.44182837160143
H          -10.83662986642330       -2.73546204986941        4.16528387217477
C          -14.51609992082321       -2.33251344228500        2.66680217544759
H          -14.83277577380982       -2.48505514834317        1.63729201846830
H          -15.38244643587131       -2.00640301751608        3.24137396984239
H          -14.18693498933937       -3.28864767471040        3.06419644079452
C           -7.76462120570312        1.05316778303916        5.13945415119249
H           -7.93160797314758       -0.01590569662709        5.04188674756649
H           -8.16259702689790        1.36537019351666        6.10673631667404
H           -6.69305573728703        1.23309763631242        5.13690554413531
C           -6.94556535234598        3.86377873082040        3.81010547004559
H           -6.60569797637459        4.53465272295190        3.03143801810787
C           -6.33711289318952        3.90590038336730        4.99312262788934
H           -6.65052828781325        3.29390053535040        5.81664294938747
H           -5.50926545797889        4.56613103181350        5.18143465812056
C           -8.46243737047283        6.47303227706409       -0.59658059023956
H           -7.55258476600975        5.91119666515703       -0.39263818982418
H           -8.52695326582915        7.27993087382587        0.13338460093817
H           -8.38187429987672        6.91316672900891       -1.58649904805620
C          -10.97963803421040        6.23249964080078       -2.59362302313157
H          -11.38540319607270        5.66260524922458       -3.42225207076644
C          -10.76536970843958        7.53275925980572       -2.75512425893508
H          -10.39903659905946        8.14916159529925       -1.95483152480286
H          -10.96619359732045        8.02820780754289       -3.68943972840107
C          -15.71963137141978        3.71648658422594       -2.31511534218681
H          -15.31285696967522        3.57372040958235       -3.31605850971877
H          -15.63677361526219        4.77420878525577       -2.06964261614501
H          -16.77317739679155        3.45413290403906       -2.33263649153457
C          -16.81433046653320        1.19237162724471       -0.69105788322296
H          -17.22291266893118        1.29192908287550       -1.69338969079219
H          -17.50549797317586        1.67022823639130        0.00404907298794
H          -16.77310841558260        0.13515526512368       -0.44559449194669
O          -10.72034263756328        0.95282298840686       -0.05075252477604
H          -10.81501068875258        0.04340769938973        0.25328717872548
H          -10.11513937732692        1.13953744143312       -0.77138644578424
C          -14.95708757577028        6.00407865169936        3.92098352398023
H          -14.54020048787403        6.96607073222430        4.21248745053939
H          -15.53756183621595        5.61833104069260        4.75782809238755
H          -15.62125836760489        6.15184957081365        3.07832505040269
N          -12.90348064493325        4.68931256617217        4.44499691027084
H          -12.79712738221969        5.05634923994906        5.37720964086751
C          -13.88334197233492        5.04532074177351        3.55721815945803
C          -12.11393129073526        3.77417587909007        3.84236649391300
H          -11.26569837811950        3.32439332927455        4.31155405913000
N          -12.53096682970990        3.52836335111109        2.62467889863618
C          -13.62942827960799        4.31439511566380        2.43186791485639
H          -14.14851354975395        4.29993579445226        1.49734209468300
78
 energy: -116.048816230247 gnorm: 0.037844801864 xtb: 6.7.1 (edcfbbe)
Fe         -11.65210075119788        2.28132267397537        1.27021280427789
N          -12.26516727550419        0.61309058007680        2.20278564288623
N           -9.97631484465449        2.28879515536143        2.38981464807593
N          -10.98237177998805        3.84986032735174        0.24225939113535
N          -13.31699138993003        2.24837772332072        0.13740742666060
C          -13.40451909931695       -0.08062874960948        1.95985713648401
C          -13.42899654273225       -1.30647491633962        2.72870526822742
C          -12.27922629501644       -1.32527359403276        3.45880600496067
C          -11.56733140872277       -0.11325895687185        3.11331759666679
C           -9.63230492707667        1.39162988165611        3.34954254710962
C           -8.43551318794419        1.80724092356716        4.03599954249194
C           -8.06234654645151        3.00475609225143        3.47200336317279
C           -9.03005273495626        3.25846359144020        2.41974342875822
C           -9.84549993496550        4.54874075008552        0.48365517426274
C           -9.65411808700502        5.57588415874089       -0.51345061471805
C          -10.71230932175449        5.47766040252351       -1.37439846268553
C          -11.54428162331570        4.40467382443315       -0.85928373505783
C          -13.64243500555296        3.12295337256036       -0.84399956551667
C          -14.99234946263382        2.88743086923499       -1.30642309369122
C          -15.45781046270993        1.82058445224899       -0.60636878782859
C          -14.38582869285549        1.42515133685889        0.28281977719053
C          -14.42062437949079        0.31685702360860        1.10820893424966
H          -15.30408149858692       -0.30269389202315        1.07642769326438
C          -10.34755407879884        0.24112383210777        3.65501394509954
H           -9.93265502076966       -0.42264091183107        4.39753719505259
C           -8.96980193455233        4.32281375448849        1.53855505359326
H           -8.15645201831273        5.02344013271048        1.65262387685834
C          -12.79737529695826        4.08985650808643       -1.36084334175496
H          -13.15556186440061        4.66440704148436       -2.20182113388529
C          -11.80984538063070       -2.33912112533468        4.44143538018084
H          -12.50981603365321       -3.16587577666204        4.50445182199431
H          -11.71860638090059       -1.89703476840067        5.43204592493008
H          -10.83456943579482       -2.73376630986522        4.16206404174084
C          -14.51621129108282       -2.32455674405847        2.67128956109269
H          -14.83275905003250       -2.48713584947420        1.64397199055401
H          -15.38303877716660       -1.99835566539160        3.24420365474863
H          -14.18165615884220       -3.27437087599893        3.07738808645767
C           -7.76886594226312        1.04531029073330        5.12825504392539
H           -7.94108420734840       -0.02156599821200        5.02435064324018
H           -8.15465806665735        1.35265454948106        6.10151499315763
H           -6.69742468491831        1.22348828355955        5.11645758007614
C           -6.95189555045419        3.85584573028280        3.80721719854292
H           -6.61766515265565        4.51587204164900        3.01727957249410
C           -6.33628207057540        3.91445994503954        4.98609229870330
H           -6.65546964543411        3.33668609228948        5.83459679833459
H           -5.50833005734380        4.57776672801479        5.15956656767099
C           -8.46885985308205        6.46891259399258       -0.59702003266745
H           -7.55632123191064        5.91229302389508       -0.39563255857362
H           -8.53642098985085        7.27636148372189        0.13121035529196
H           -8.39670598532002        6.90852474869096       -1.58737525827208
C          -10.98275800590982        6.22820666911262       -2.57899286104542
H          -11.40522610658632        5.65382417023258       -3.39540130747172
C          -10.75705564614704        7.52566512931039       -2.74750274512893
H          -10.39160548967171        8.14901696742333       -1.95237103700962
H          -10.96453105045038        8.02135969188471       -3.67905880808331
C          -15.71058564222637        3.71472805176063       -2.31969779378336
H          -15.29473489137597        3.56876165807007       -3.31505066442440
H          -15.62884802886897        4.77146892250146       -2.07427704165478
H          -16.76357698643063        3.45297592345906       -2.34481056080040
C          -16.80502137085157        1.19110620603029       -0.69044729088852
H          -17.21539547379311        1.29437874896673       -1.69092127780619
H          -17.49342783279797        1.66654871988937        0.00836980755063
H          -16.76311242613060        0.13417425666627       -0.44767176412662
O          -10.76344628324796        0.93213193482772       -0.13529601746637
H          -10.72144592791064        0.01145648291535        0.20635898316000
H          -10.05431464973565        1.11450951931975       -0.78620504133488
C          -14.95544090993635        6.00593281500072        3.91505616025190
H          -14.53444097954690        6.96641952592080        4.20304125026764
H          -15.54352334319491        5.62985863180284        4.75066876190800
H          -15.61447069889248        6.15277948590764        3.06861302395718
N          -12.90919174186940        4.68117020450428        4.45062013194779
H          -12.80035506752542        5.04851488615374        5.38263296831234
C          -13.88722626921778        5.03888137101199        3.56027767256485
C          -12.12037254169607        3.76388261805845        3.84507761564122
H          -11.27309277963325        3.31337340450958        4.31255909101576
N          -12.53563309936245        3.51902295134001        2.62728199553381
C          -13.63252091144397        4.30661743921477        2.43704381131487
H          -14.15518443347433        4.29769782878739        1.50503155863501
78
 energy: -116.050649025479 gnorm: 0.024519176984 xtb: 6.7.1 (edcfbbe)
Fe         -11.65052931050887        2.27870953848315        1.26919192556583
N          -12.26857014948223        0.61819445604543        2.20547639171259
N           -9.97930069597501        2.28739718713069        2.38597644671451
N          -10.98016423457899        3.84625502316861        0.24768309914678
N          -13.31934125257908        2.26046109193840        0.15439716519299
C          -13.40936565369699       -0.07155439631875        1.96633791403677
C          -13.43367440382086       -1.29909016689439        2.73126861927230
C          -12.28290520354037       -1.32112877228593        3.45799244784970
C          -11.57088618170683       -0.10903972612758        3.11655330339552
C           -9.64152456882616        1.39479974299382        3.35393734964620
C           -8.44718438316732        1.80824389849797        4.04124309467440
C           -8.07190103734626        3.00430503042165        3.47610125367668
C           -9.03248542095355        3.25839874945231        2.41878738538556
C           -9.83960313853745        4.54314926781124        0.48584566843906
C           -9.65234170595161        5.57147781504403       -0.50777024836597
C          -10.71564189241125        5.47569909792884       -1.36388014380638
C          -11.54556205046211        4.40354940898535       -0.84970227741357
C          -13.64218585722499        3.13308747527718       -0.83084155095633
C          -14.98989560293789        2.89240598816272       -1.30195101041781
C          -15.45477493541799        1.82470433638256       -0.60181277016347
C          -14.38527626940088        1.43389700238707        0.29592632260695
C          -14.42741573445348        0.32625232860587        1.11780257803467
H          -15.31009840807049       -0.29234489443942        1.08322794081718
C          -10.35691500420108        0.24790863989020        3.66516278743832
H           -9.94858983324538       -0.40828583121335        4.41803507167334
C           -8.96187419656809        4.31871713436076        1.53582981012868
H           -8.14263513906089        5.01257738071850        1.64454576448956
C          -12.80053436106356        4.09793892182953       -1.34848521414092
H          -13.15976555472246        4.67563832382359       -2.18642605130486
C          -11.80795096896963       -2.33690144230431        4.43699484905380
H          -12.50698877187446       -3.16646995386790        4.50181111779231
H          -11.71503221251983       -1.89298554291501        5.42841559933792
H          -10.83150833436984       -2.73054760680737        4.15467998611959
C          -14.51972044251796       -2.31803687179301        2.67749390976712
H          -14.83357834921676       -2.49091616793642        1.64958968783133
H          -15.38906486773382       -1.98782107364366        3.24678832650374
H          -14.18062251549100       -3.26365602158787        3.09378921531925
C           -7.77120956565539        1.03993133175449        5.12226821736114
H           -7.94590250198864       -0.02736186129561        5.00946304443707
H           -8.14652255909345        1.33995671548319        6.10303062998361
H           -6.69843587098796        1.21949507270167        5.09859547427060
C           -6.95869800700427        3.85616199205900        3.80547665113923
H           -6.61473207934254        4.49730097285921        3.00225425972358
C           -6.34454825193265        3.93390699650995        4.98448075465978
H           -6.65822338496985        3.36795709367063        5.84452005494140
H           -5.50360667861814        4.58982868079688        5.13773320572131
C           -8.47074871621704        6.46934689195901       -0.59690653984166
H           -7.55366449727321        5.91686510603817       -0.39828448580762
H           -8.54180012237604        7.27830373018253        0.13119496592472
H           -8.40721070787176        6.90712894156969       -1.59033758125323
C          -10.99278945789811        6.22757070164461       -2.56631120560000
H          -11.42738042148552        5.65285677259456       -3.37694947662949
C          -10.75693764744308        7.52339476362078       -2.73906650153461
H          -10.37315827602692        8.14629531577642       -1.94992309958012
H          -10.96299786001084        8.01716176722894       -3.67352252236434
C          -15.69952985495257        3.71359367373946       -2.32559581936726
H          -15.27164134173659        3.56191731806708       -3.31627027531913
H          -15.62001030728104        4.77220838190158       -2.08270035155360
H          -16.75344721372106        3.44973283387898       -2.36078744932459
C          -16.79872094943861        1.18838729514072       -0.68955932987477
H          -17.21016447253108        1.29680634456590       -1.69059568825598
H          -17.48754240029497        1.65875199528662        0.01443366119502
H          -16.75118053825770        0.12893384383752       -0.45332853713451
O          -10.75139090141806        0.91338334293675       -0.17598175679781
H          -10.70355750454320        0.00166442010812        0.13715991006568
H          -10.02410951241256        1.08577069320700       -0.80200940067801
C          -14.95502825250365        6.00688494706013        3.90801842809558