87
 energy: -128.408011861423 gnorm: 0.219164133790 xtb: 6.7.1 (edcfbbe)
Fe          21.94000000000000        7.09900000000000        7.07500000000000
N           23.54500000000000        8.21800000000000        7.45800000000000
N           21.13600000000000        7.70700000000000        8.78200000000000
N           20.34400000000000        5.96700000000000        6.71800000000000
N           22.73200000000000        6.53200000000000        5.37300000000000
C           24.72400000000000        8.27100000000000        6.72100000000000
C           25.72400000000000        9.09600000000000        7.39900000000000
C           25.12100000000000        9.63800000000000        8.48500000000000
C           23.76000000000000        9.08200000000000        8.52600000000000
C           21.67400000000000        8.59400000000000        9.72600000000000
C           20.79600000000000        8.74500000000000       10.87500000000000
C           19.72400000000000        7.95500000000000       10.66600000000000
C           19.92500000000000        7.30900000000000        9.35900000000000
C           19.26500000000000        5.76000000000000        7.54200000000000
C           18.35300000000000        4.77700000000000        6.96400000000000
C           18.86300000000000        4.39500000000000        5.74800000000000
C           20.10000000000000        5.15000000000000        5.60700000000000
C           22.15400000000000        5.72700000000000        4.38700000000000
C           23.01500000000000        5.59100000000000        3.25500000000000
C           24.16100000000000        6.23400000000000        3.55300000000000
C           23.98200000000000        6.85800000000000        4.85300000000000
C           24.91400000000000        7.66800000000000        5.48800000000000
H           25.86300000000000        7.84200000000000        4.98000000000000
C           22.88000000000000        9.26100000000000        9.58900000000000
H           23.15800000000000        9.97400000000000       10.36500000000000
C           19.03700000000000        6.40800000000000        8.75600000000000
H           18.10100000000000        6.19800000000000        9.27300000000000
C           20.94000000000000        5.06600000000000        4.49900000000000
H           20.62200000000000        4.44000000000000        3.66500000000000
C           25.72600000000000       10.65800000000000        9.45800000000000
H           26.58400000000000       11.17000000000000        8.97200000000000
H           26.08700000000000       10.13800000000000       10.37100000000000
H           24.96100000000000       11.41600000000000        9.73000000000000
C           27.18100000000000        9.32100000000000        6.94600000000000
H           27.22800000000000       10.20500000000000        6.27400000000000
H           27.54400000000000        8.42900000000000        6.39300000000000
H           27.82500000000000        9.50700000000000        7.83200000000000
C           20.98600000000000        9.72300000000000       12.04000000000000
H           20.64100000000000       10.73400000000000       11.73600000000000
H           22.06100000000000        9.77700000000000       12.31300000000000
H           20.38900000000000        9.38600000000000       12.91400000000000
C           18.60500000000000        7.95500000000000       11.48600000000000
H           18.01500000000000        8.87900000000000       11.57200000000000
C           18.15900000000000        6.85900000000000       12.22400000000000
H           18.70100000000000        5.90200000000000       12.18600000000000
H           17.26000000000000        6.93800000000000       12.85300000000000
C           17.05600000000000        4.30700000000000        7.64500000000000
H           16.21500000000000        4.96300000000000        7.33400000000000
H           17.16900000000000        4.36500000000000        8.74900000000000
H           16.83000000000000        3.26300000000000        7.34100000000000
C           18.37600000000000        3.48900000000000        4.78600000000000
H           19.04500000000000        3.21400000000000        3.95800000000000
C           17.11200000000000        2.89000000000000        4.76800000000000
H           16.37900000000000        3.10900000000000        5.55900000000000
H           16.83600000000000        2.19300000000000        3.96300000000000
C           22.71500000000000        4.90000000000000        1.92300000000000
H           21.62900000000000        4.97400000000000        1.70300000000000
H           22.99800000000000        3.82700000000000        1.98500000000000
H           23.28200000000000        5.39600000000000        1.10700000000000
C           25.38900000000000        6.11500000000000        2.66000000000000
H           25.20499999999999        6.64800000000000        1.70300000000000
H           25.59300000000000        5.04500000000000        2.44200000000000
H           26.26600000000000        6.57300000000000        3.16500000000000
C           19.70400000000000       12.11600000000000        5.71800000000000
H           18.59600000000000       12.15500000000000        5.78900000000000
H           20.02400000000000       12.63600000000000        4.79000000000000
H           20.14000000000000       12.62100000000000        6.60600000000000
N           19.77300000000000        9.79700000000000        4.70300000000000
H           19.17800000000000       10.00700000000000        3.92700000000000
C           20.15100000000000       10.69100000000000        5.67800000000000
C           20.33900000000000        8.61700000000000        4.98200000000000
H           20.20400000000000        7.72900000000000        4.36500000000000
N           21.06100000000000        8.68800000000000        6.07900000000000
C           20.94900000000000        9.99600000000000        6.52700000000000
H           21.46000000000000       10.31300000000000        7.42800000000000
C           25.13900000000000        3.94400000000000       10.41800000000000
H           25.89200000000000        3.27700000000000        9.94700000000000
H           24.64800000000000        3.40000000000000       11.25300000000000
H           25.65200000000000        4.85000000000000       10.80500000000000
N           23.31500000000000        3.44900000000000        8.72500000000000
H           23.32600000000000        2.45600000000000        8.83900000000000
C           24.11799999999999        4.33800000000000        9.40300000000000
C           22.53300000000000        4.15400000000000        7.90000000000000
H           21.79500000000000        3.69700000000000        7.24100000000000
N           22.78100000000000        5.44400000000000        8.00100000000000
C           23.77700000000000        5.56800000000000        8.94400000000000
H           24.16100000000000        6.54600000000000        9.20800000000000
87
 energy: -128.446833685755 gnorm: 0.088321569504 xtb: 6.7.1 (edcfbbe)
Fe          21.93930616073753        7.10205436550841        7.06950079097703
N           23.56496466710002        8.22880136851071        7.45701313218948
N           21.13928033780055        7.69903396571562        8.80732279592218
N           20.32994717413203        5.95766195140322        6.70977207551439
N           22.73985394758512        6.52454095315499        5.35340097752894
C           24.72868831456520        8.26626094402736        6.72453782607776
C           25.72014738490970        9.10209137083815        7.38545483313876
C           25.11527159660386        9.64143431750985        8.47665411710819
C           23.77547246191050        9.06795194197900        8.52654958236645
C           21.67743358186251        8.59159162544908        9.71582711599225
C           20.79916113915097        8.75740147736516       10.85200608885285
C           19.72561208399474        7.94388544531356       10.64583908215530
C           19.94039532591402        7.29425590370744        9.35525732682727
C           19.26104324806759        5.76044963112415        7.54078671578325
C           18.34336797428609        4.79049985338709        6.97827845547164
C           18.85585289357401        4.40432926961142        5.75903801552017
C           20.09947401040720        5.15134633747780        5.61530559016729
C           22.14753511014364        5.73639694411186        4.38762928499664
C           23.00967932029939        5.59127275712204        3.25068209532665
C           24.16992793062396        6.22904316292304        3.55418645569725
C           23.98398977236998        6.84417305461986        4.85337976620295
C           24.91276286464585        7.65134723988169        5.49621434299052
H           25.85359537034186        7.83189100314589        4.98712209328559
C           22.88533156223932        9.25474139230972        9.57497543446638
H           23.16234715715090        9.95970012986266       10.35186053193410
C           19.05414393341000        6.40778586724504        8.75696127792870
H           18.12501090310864        6.20372526810694        9.27904257401650
C           20.93411183379419        5.08020955848306        4.51066210177224
H           20.62611249243678        4.45255994192923        3.68152787659764
C           25.70980575295905       10.63935381352603        9.44515981001211
H           26.55787207894351       11.15346449158780        8.98009362840502
H           26.07144050037090       10.14494649022772       10.35494972551736
H           24.97036269469501       11.39487703033561        9.72846897456392
C           27.15308536053669        9.31780855912446        6.94375276635480
H           27.22311147193121       10.18897130294566        6.28128256410401
H           27.53255899719266        8.44450489942832        6.40562176687425
H           27.79859956942942        9.49793723492020        7.81018206845834
C           20.99114018464141        9.70623497156103       12.01530298897320
H           20.65101619314224       10.71173567353057       11.73684431691970
H           22.04320847221992        9.77216988377022       12.30876591735599
H           20.40556191295265        9.38228929343846       12.88284990517695
C           18.57097638197873        7.93445389853523       11.49117581113631
H           18.01167238658434        8.86593939227529       11.58837998362401
C           18.15179173245813        6.87662301429738       12.20401355409267
H           18.68908918039466        5.93440417292985       12.17875104481811
H           17.27876157331808        6.93958271568555       12.84194130889141
C           17.07546421411739        4.31994961558243        7.64944033623845
H           16.23141709817090        4.95059622060695        7.34270326794963
H           17.16934757211272        4.36963018623684        8.73674534448548
H           16.85215162559239        3.28555160410345        7.37422027224076
C           18.35638652040190        3.47979016541915        4.79024816645045
H           19.02691873621450        3.21615770047769        3.97247092138068
C           17.13536284580686        2.90035780931372        4.76251074964324
H           16.38653125909306        3.11319357837950        5.51056214155978
H           16.85981679845771        2.20957840882774        3.97555681006550
C           22.70776104888890        4.90110875989711        1.94384774658882
H           21.64169147693285        4.96801062015897        1.70711251849016
H           22.99112062358964        3.84299475234140        1.98309672066569
H           23.26834803820849        5.37913278522491        1.13380390910690
C           25.38934397697501        6.13783498716941        2.67627218194850
H           25.21640477184239        6.65002212912265        1.72226471007971
H           25.59259164240749        5.08308149698638        2.45408525206360
H           26.26688092525458        6.57361099057981        3.15780629528800
C           19.70177456947273       12.11059867518684        5.71443009411181
H           18.60926587789287       12.16350004292559        5.78593581473202
H           20.01602230692982       12.63721241253228        4.80643808307797
H           20.13210638944967       12.61164404950700        6.58469540834123
N           19.77276814928520        9.80402267437763        4.70506244426802
H           19.17568494531688       10.01394437452625        3.92417822157928
C           20.15125701846922       10.69220323361254        5.68187052934559
C           20.34016495695982        8.61718004139094        4.98953410513369
H           20.21062791733987        7.73736158059084        4.38072281284161
N           21.05342990701031        8.68689750595948        6.08717766221631
C           20.94923881492297        9.98528885250819        6.52799829428887
H           21.45677973637196       10.30099171668774        7.42009592219472
C           25.13719371486162        3.93704610380967       10.41411806151388
H           25.88816201209004        3.28008656045698        9.96108771376945
H           24.66416280260348        3.40489337392643       11.24679331465511
H           25.63957300443783        4.82767295810041       10.79929769039446
N           23.32036704393285        3.45392590201543        8.72878851229151
H           23.32903983817719        2.45486541295713        8.84089284341492
C           24.12184178723777        4.34057120243698        9.40552676920013
C           22.53483079364177        4.16719198731402        7.89975024108080
H           21.80477381765676        3.71733179613668        7.24661915636375
N           22.78152566929474        5.45254872500614        8.00499334102332
C           23.77299271576983        5.57137830805984        8.94308281804276
H           24.15600203989314        6.53830681960348        9.20783830978693
87
 energy: -128.455955572129 gnorm: 0.019246869123 xtb: 6.7.1 (edcfbbe)
Fe          21.94023042017274        7.10157263963074        7.06666790805670
N           23.58349534236181        8.23113949383069        7.45537481674208
N           21.14102917441367        7.70246417847096        8.82239870697526
N           20.31593483864900        5.95439767693054        6.70660964715944
N           22.74631790409946        6.51872755426793        5.33756520148514
C           24.73043820884665        8.26212436336292        6.72291365053831
C           25.71700620679901        9.10396203151292        7.37028520681405
C           25.11193019266295        9.63674595711748        8.46856139862969
C           23.78690256573127        9.05540324045387        8.52148937798125
C           21.67658028810769        8.59543738022928        9.70359969561932
C           20.79417963480599        8.78516571364531       10.82795766005416
C           19.71842254093777        7.96981693252402       10.61647855847935
C           19.95295481985601        7.29956325127801        9.35036553916097
C           19.25855447401695        5.76310095587367        7.54521729152958
C           18.33706433294103        4.80385795927914        6.99127675678480
C           18.85108028476606        4.41974179830563        5.77108577722829
C           20.09460903800319        5.16247928653057        5.62380019118711
C           22.14446801554416        5.74510523558101        4.38974156910720
C           23.00732986285135        5.59018737035093        3.24792602872873
C           24.17604680265881        6.22192292045813        3.55573290682519
C           23.98465987945247        6.82934874215168        4.85438526696863
C           24.91249104754152        7.63141648986239        5.50198477696720
H           25.85227680047349        7.80564653912416        4.99679465531520
C           22.89034564685359        9.24899725141508        9.55972434637661
H           23.16988139812253        9.94597856772847       10.33761885832758
C           19.07248399206795        6.40966799013200        8.76359555791643
H           18.15296555121680        6.20735280929771        9.29607084910575
C           20.92696811168536        5.09802133981364        4.52016414601774
H           20.62497879249854        4.46914473244112        3.69463585511614
C           25.69342003295587       10.61967878865227        9.43337169545857
H           26.53730777208360       11.13410507781715        8.97873800924123
H           26.04844498081583       10.13021880164349       10.34077194515176
H           24.95992143993724       11.36898139124022        9.72151804450269
C           27.12905223249567        9.31676452682100        6.93372057492878
H           27.21004915592312       10.18134434101408        6.27463616613186
H           27.51058546686456        8.44794695288092        6.40534610908749
H           27.76872040679224        9.49236852399216        7.79653442077698
C           20.99549858439952        9.70103066746054       11.99188034563271
H           20.66434124741746       10.70803342975418       11.73153181492713
H           22.03880093747377        9.75528248037416       12.29100516762046
H           20.41135952455059        9.36681814849965       12.84692772295785
C           18.54833041117629        7.91019418389233       11.48625286054176
H           18.00559968862719        8.84544347337452       11.58890687705046
C           18.15388718048262        6.86786036414789       12.18714787067960
H           18.67845536899991        5.92934484262112       12.15373003359982
H           17.29285669123805        6.91597321912609       12.83217947238687
C           17.09204086570060        4.33222279871355        7.65923549579884
H           16.24184662085531        4.94309730698896        7.35119841091552
H           17.17938071168322        4.39082307292576        8.73942007710691
H           16.88148360935704        3.29876892738481        7.39900706000723
C           18.34559265637554        3.48382687833397        4.79536898701455
H           19.03347776832936        3.22307587861869        3.99813590415647
C           17.14594380950605        2.91740419457522        4.75471843088551
H           16.37706569542717        3.12098707884776        5.47347507274644
H           16.88135392266931        2.21985045143586        3.97965316628670
C           22.70027671692776        4.89810703966825        1.96196203289874
H           21.64223600299693        4.96009669832851        1.72300533851954
H           22.98390770091000        3.84675390703657        1.99642287041011
H           23.25852582922173        5.36573483707405        1.15333237105486
C           25.39340178399935        6.16148820272006        2.69316012896536
H           25.22411287470479        6.67099951687090        1.74462639853933
H           25.60729142037252        5.11641104716992        2.46469552669729
H           26.26416795265945        6.59308245272464        3.17027612840338
C           19.70310881920377       12.10689752917804        5.71223460385845
H           18.61794211434861       12.16495056128746        5.78126598036444
H           20.01540529843558       12.63375251621616        4.81242360878723
H           20.13089402004041       12.60624622822192        6.57389801488713
N           19.77487063259493        9.80808005310907        4.70930722381349
H           19.17896667257942       10.01837406737460        3.92472031674613
C           20.15321753048961       10.69164817555527        5.68772554887875
C           20.33859193258476        8.61403664163795        4.99919897749226
H           20.21366481377943        7.73883941902974        4.39589435665630
N           21.04630193590117        8.68334584836180        6.09809876898092
C           20.94635410705958        9.97310091426058        6.53491905292732
H           21.45186745628310       10.29032916884299        7.42193475569189
C           25.13681761121602        3.92932889163636       10.41391383247045
H           25.88401212869545        3.27593644996887        9.96738718587029
H           24.66986290049676        3.40166053214003       11.24311871777958
H           25.63411864100629        4.81221152919556       10.79942270979011
N           23.32519923901008        3.46168013714905        8.73051075649194
H           23.32969475532255        2.45970932738138        8.83868330098383
C           24.12610622196395        4.34382675269363        9.40957966899924
C           22.53820304553025        4.18329243194976        7.89993036939542
H           21.81232711855357        3.74167881960947        7.24855142826445
N           22.78832986001745        5.46401683152342        8.01161677048501
C           23.77329172406309        5.57722014784187        8.94813721042882
H           24.15748818875663        6.53622712150576        9.21961210767598
87
 energy: -128.458054849945 gnorm: 0.009916898732 xtb: 6.7.1 (edcfbbe)
Fe          21.94063788776097        7.10005543323358        7.06665986684510
N           23.58493707487399        8.22656142093911        7.44836314451205
N           21.14386093170504        7.70158779276112        8.82166709207115
N           20.31122166996504        5.95974046624694        6.70998685599698
N           22.74701271129573        6.51490383688529        5.33707173961032
C           24.72984196388049        8.25395690325900        6.71842765117380
C           25.71243389075502        9.10285755456492        7.35804835134322
C           25.10836837588457        9.63045356793285        8.45904775040279
C           23.78751091987929        9.04723238935046        8.51387492481885
C           21.67501760829716        8.59924802679756        9.69383419069756
C           20.78947924772421        8.79705114758278       10.81438677361757
C           19.71335795078878        7.98456000709756       10.60316482633534
C           19.95607633919549        7.30499757643565        9.34688963864558
C           19.25746339276283        5.76785124902253        7.55050326278950
C           18.33462108254747        4.81218206478755        6.99793797610218
C           18.84654924193404        4.43137004615571        5.77711547853961
C           20.08823319524784        5.17406182886470        5.62719628464942
C           22.14196282628020        5.74760680435997        4.39171863279672
C           23.00711184326955        5.58624529047793        3.25020115741746
C           24.17642911232474        6.21595766535581        3.55876903844451
C           23.98572595586920        6.81709855424901        4.85859358595602
C           24.91689361169035        7.61223269698737        5.50535638026547
H           25.86121333395069        7.77426797709441        5.00541644251479
C           22.89211767475636        9.24569065634612        9.55049795119560
H           23.17642202918426        9.93967250040314       10.32846061924223
C           19.07718461066065        6.41071913404061        8.76880701331446
H           18.16620229375522        6.20453369189522        9.31304131053553
C           20.91958507901067        5.10962809595794        4.52191894595665
H           20.61490808106526        4.48403727916082        3.69599282795253
C           25.68257519750646       10.60669692700096        9.43038303783913
H           26.52836625809704       11.12451110354121        8.98289250573455
H           26.02948368129382       10.10923788546391       10.33727855753590
H           24.94293977665042       11.35106166864983        9.71817826085159
C           27.12000013680568        9.31819195677159        6.91715455842245
H           27.19921561177926       10.18063857912838        6.25437068647095
H           27.49982013816851        8.44624549477584        6.39124503403098
H           27.75798063010463        9.49646248220962        7.78107189401999
C           20.99932968442902        9.70467557543834       11.97849619784357
H           20.67874309380293       10.71887218193582       11.73034290493069
H           22.04458523885582        9.74267155633239       12.27567951450261
H           20.41204011139758        9.36171801580374       12.82792403632331
C           18.54147183609636        7.91003882057537       11.47557765790088
H           17.99912241306085        8.84495818995931       11.58282241858074
C           18.14935217281085        6.85130205095690       12.16547439022615
H           18.67571091041862        5.91311868881218       12.12063871395996
H           17.29450520563586        6.88966300852224       12.82176504384578
C           17.10035831193917        4.33657781192340        7.68037213116169
H           16.23807028556371        4.92768817681157        7.36261675376197
H           17.19162391349804        4.42215586608115        8.75996652362272
H           16.90904076623294        3.29166880253732        7.44557754929201
C           18.34904628548725        3.48995151451048        4.80121982620859
H           19.05565740883160        3.22492586937310        4.02181425002409
C           17.14366831783685        2.92628015773256        4.73703798370878
H           16.34223906601248        3.15140445605463        5.41932207753163
H           16.90009784112190        2.22121551763030        3.95999193358741
C           22.69429324052392        4.88714174410436        1.97137984768664
H           21.63431457641466        4.94795548777271        1.73713420191474
H           22.97670573011192        3.83490131719904        2.01342444761056
H           23.25123255609235        5.34865526793455        1.15756213328234
C           25.39960354452957        6.18409222838351        2.70340744781889
H           25.22963689008526        6.70513967174558        1.76069741684022
H           25.63545467199312        5.14536549084169        2.46421467961466
H           26.26022962521869        6.62565591119797        3.19297493710268
C           19.70674807116842       12.10472095509612        5.71267513681173
H           18.62080697232965       12.16453945399698        5.77858913870657
H           20.02145136987427       12.62843412666947        4.81106909891489
H           20.13408506755777       12.60702094640822        6.57385440101566
N           19.77711780698708        9.80647382222093        4.71463250010268
H           19.18459016602183       10.01799638422500        3.92804817071898
C           20.15478675111460       10.68878520999037        5.69376820635702
C           20.33564899873475        8.60971093749024        5.00692334947346
H           20.21159542415179        7.73367731411857        4.40501504024677
N           21.04043385518739        8.67853520694307        6.10792861187429
C           20.94220866010259        9.96659398825881        6.54445329700589
H           21.44532126886358       10.28451469408890        7.43309038497344
C           25.13723986557241        3.92175913213188       10.41666205954016
H           25.88242513808328        3.26673843823283        9.96764065799948
H           24.66781302023118        3.39104457553843       11.24341693504753
H           25.63807933960770        4.80121268133085       10.80771254043960
N           23.32812557294934        3.47048168705525        8.72834317686404
H           23.32946217716045        2.46817695036936        8.83084154543942
C           24.12905692224925        4.34693456268564        9.41382101133376
C           22.54355402157674        4.19858753867031        7.89981758684997
H           21.81792968236408        3.76389342994273        7.24383116032534
N           22.79620944004391        5.47754298505682        8.02024477846646
C           23.77859395176522        5.58417623325995        8.95877581879547
H           24.16482139158028        6.54024761026208        9.23988612516585
87
 energy: -128.459664132384 gnorm: 0.012485886340 xtb: 6.7.1 (edcfbbe)
Fe          21.94087966758418        7.09924993471814        7.07030144735350
N           23.58320865090356        8.21848002162079        7.43895267969124
N           21.14544415285010        7.70359353771811        8.81769414681120
N           20.31012073243015        5.96430896915927        6.71915309990121
N           22.74663721804397        6.50942147704561        5.34077923890069
C           24.72712503450179        8.24432085255996        6.71150068428806
C           25.70705212889739        9.09882291113458        7.34349976287839
C           25.10419572084566        9.62147787746014        8.44667568477091
C           23.78603459542183        9.03742022708710        8.50332652217586
C           21.67189025997616        8.60706737087826        9.68146336732871
C           20.78212606021019        8.81552644234271       10.79747922443079
C           19.70753958402431        8.00282394927786       10.58929937683582
C           19.95866844672660        7.31162900089347        9.34359008567383
C           19.25870320231440        5.76945704098162        7.56081024711113
C           18.33154002580917        4.82168529617960        7.00442714923042
C           18.83857203999724        4.45104473065236        5.78072982502441
C           20.08143569178704        5.18929901851463        5.63166355455640
C           22.13990687944872        5.74781310456032        4.39593102539332
C           23.00721748116237        5.57921029645608        3.25389775401851
C           24.17639407705549        6.20559509930833        3.56372273662721
C           23.98577480665459        6.80216733851465        4.86466353034286
C           24.92271524853633        7.58777515562828        5.50950433816877
H           25.87547356339879        7.72908531895541        5.01928832811902
C           22.89347041815287        9.24367306266945        9.53936434629112
H           23.18463842976204        9.93514689832648       10.31639596294102
C           19.08226188169184        6.40868131020171        8.77813018485192
H           18.18019721136714        6.20202776527394        9.33573902191333
C           20.90999070292438        5.12463755865036        4.52323891958388
H           20.59721068508634        4.50893021750938        3.69360101664680
C           25.66889791479058       10.59017761776956        9.42882793061331
H           26.51997764628164       11.11243070587705        8.99598496459313