72
 energy: -105.909290372587 gnorm: 0.228743124307 xtb: 6.7.1 (edcfbbe)
Fe          -6.18300000000000       24.76300000000000        7.65700000000000
N           -4.44400000000000       23.73500000000000        7.40000000000000
N           -5.87400000000000       24.84600000000000        9.60000000000000
N           -7.99200000000000       25.61900000000000        7.96000000000000
N           -6.53700000000000       24.54700000000000        5.72800000000000
C           -3.86300000000000       23.38900000000000        6.20200000000000
C           -2.54600000000000       22.83800000000000        6.43400000000000
C           -2.35600000000000       22.83000000000000        7.78200000000000
C           -3.53900000000000       23.40000000000000        8.37800000000000
C           -4.78900000000000       24.31100000000000       10.29000000000000
C           -4.91200000000000       24.64099999999999       11.70600000000000
C           -6.02300000000000       25.37200000000000       11.84300000000000
C           -6.62000000000000       25.53800000000000       10.54200000000000
C           -8.39900000000000       26.30600000000000        9.07400000000000
C           -9.61500000000000       27.05200000000000        8.78800000000000
C           -9.91300000000000       26.80600000000000        7.48800000000000
C           -8.90200000000000       25.90700000000000        6.96400000000000
C           -7.77000000000000       24.76800000000000        5.11700000000000
C           -7.72300000000000       24.25600000000000        3.75800000000000
C           -6.50400000000000       23.73400000000000        3.55500000000000
C           -5.75000000000000       23.88600000000000        4.79100000000000
C           -4.44800000000000       23.53300000000000        4.97600000000000
H           -3.83500000000000       23.35500000000000        4.09200000000000
C           -3.75900000000000       23.56600000000000        9.73600000000000
H           -3.06900000000000       23.07300000000000       10.42100000000000
C           -7.75900000000000       26.25100000000000       10.28700000000000
H           -8.19200000000000       26.81900000000000       11.11000000000000
C           -8.86500000000000       25.41200000000000        5.67000000000000
H           -9.75200000000000       25.53700000000000        5.04900000000000
C           -1.11700000000000       22.30900000000000        8.53200000000000
H           -0.25200000000000       22.26800000000000        7.83600000000000
H           -1.31500000000000       21.28700000000000        8.92000000000000
H           -0.87200000000000       22.99300000000000        9.37200000000000
C           -1.57200000000000       22.34600000000000        5.34000000000000
H           -0.92500000000000       23.18800000000000        5.01300000000000
H           -2.14700000000000       21.97300000000000        4.46600000000000
H           -0.93000000000000       21.53500000000000        5.74600000000000
C           -3.90500000000000       24.17600000000000       12.79000000000000
H           -3.09900000000000       24.93300000000000       12.89600000000000
H           -3.45200000000000       23.20700000000000       12.49100000000000
H           -4.42700000000000       24.06600000000000       13.76500000000000
C           -6.63600000000000       26.01800000000000       13.08900000000000
H           -7.70500000000000       26.27500000000000       13.09900000000000
C           -5.92300000000000       26.28900000000000       14.18400000000000
H           -4.85000000000000       26.05099999999999       14.22500000000000
H           -6.40000000000000       26.75400000000000       15.06000000000000
C          -10.31200000000000       27.95700000000000        9.83700000000000
H           -9.54400000000000       28.50900000000000       10.41900000000000
H          -10.91100000000000       27.33200000000000       10.53300000000000
H          -10.97000000000000       28.69000000000000        9.32300000000000
C          -11.07200000000000       27.30300000000000        6.59200000000000
H          -11.02300000000000       27.10400000000000        5.51200000000000
C          -12.14400000000000       27.96400000000000        7.02600000000000
H          -12.26100000000000       28.19900000000000        8.09400000000000
H          -12.92600000000000       28.28300000000000        6.32100000000000
C           -8.90600000000000       24.30200000000000        2.75900000000000
H           -9.20500000000000       25.35800000000000        2.58600000000000
H           -9.77200000000000       23.74600000000000        3.17700000000000
H           -8.59800000000000       23.85200000000000        1.79100000000000
C           -5.95200000000000       23.05300000000000        2.27200000000000
H           -5.48100000000000       23.81900000000000        1.61900000000000
H           -6.78400000000000       22.56900000000000        1.71700000000000
H           -5.18800000000000       22.29500000000000        2.54800000000000
O           -7.17400000000000       22.77300000000000        7.97700000000000
H           -7.40800000000000       22.74100000000000        8.90500000000000
H           -7.32400000000000       22.13700000000000        7.37400000000000
C           -3.56800000000000       26.92600000000000        6.93800000000000
H           -2.98700000000000       27.66800000000000        7.52600000000000
H           -3.49100000000000       27.20300000000000        5.86500000000000
H           -3.10400000000000       25.92800000000000        7.08900000000000
S           -5.31200000000000       26.89300000000000        7.45500000000000
H           -5.05400000000000       26.55399999999999        8.71000000000000
72
 energy: -105.951544046773 gnorm: 0.093346679225 xtb: 6.7.1 (edcfbbe)
Fe          -6.19955042177857       24.72724711123689        7.65523783883985
N           -4.42789991846582       23.75383970181204        7.39871576146843
N           -5.86412543160515       24.84949286240315        9.61244295276591
N           -7.98486623164783       25.65089571240419        7.93737253838178
N           -6.56366387051267       24.51387308882998        5.72434301165814
C           -3.84753895233243       23.41068893044667        6.20887976363041
C           -2.53791389421197       22.83883871252237        6.43478688715254
C           -2.35287993319897       22.82078042355968        7.78545413651910
C           -3.54383750817155       23.39233137957748        8.37678296947171
C           -4.80312867129269       24.29852715975385       10.30210782513717
C           -4.90890656784271       24.62599978281505       11.71590069750377
C           -6.02942127381383       25.38421954086901       11.86099304822138
C           -6.61950762614097       25.52474664138342       10.54658613624136
C           -8.40377528216436       26.31519752541742        9.05422149956065
C           -9.62045475761440       27.06025241553809        8.78121666332681
C           -9.93674531029199       26.80582315565482        7.47439861567082
C           -8.90323421660886       25.91781570261027        6.96163547355411
C           -7.76993216283274       24.75618661619224        5.11057215119428
C           -7.73495824956218       24.25549948151250        3.74743767851948
C           -6.50013929425835       23.74017713763991        3.54061926951093
C           -5.76244730519444       23.91513091536816        4.77878428981295
C           -4.44766193726618       23.54785705388808        4.97413361691224
H           -3.84956189324761       23.32322756467929        4.09702989835947
C           -3.76849547819651       23.56588227489887        9.73668884727427
H           -3.06009283313043       23.10206143515203       10.41375001762998
C           -7.76362281113344       26.24792374840368       10.27906794029358
H           -8.19707396943280       26.80648775883576       11.09983403567109
C           -8.85390774968463       25.41019375544284        5.67138485163068
H           -9.72885993045191       25.54510045816466        5.04768880964395
C           -1.13533334136496       22.31633350900145        8.52646699590137
H           -0.27491127747135       22.27125924041941        7.85126069902934
H           -1.31631545013308       21.30843674935063        8.91756986604145
H           -0.88270230291313       22.97826584614480        9.36044391447320
C           -1.58750978283951       22.35575888016224        5.35798175694034
H           -0.94009364923574       23.17561354678051        5.02340712264852
H           -2.13784241317380       21.98053440202582        4.49016063910607
H           -0.95056473290828       21.55214904792995        5.74018265918163
C           -3.91999840281833       24.17427064973689       12.77211026504414
H           -3.11822461312855       24.91430258920426       12.88747808101181
H           -3.46570715234803       23.21934322518134       12.49507313237621
H           -4.42300350514439       24.05591002268084       13.73665438006003
C           -6.61526231523005       26.00199032689294       13.08059505096080
H           -7.67551010469927       26.25056403709212       13.06875337429424
C           -5.92146268685855       26.28034222702297       14.17906840025541
H           -4.86250319656390       26.07329645874934       14.23889766155349
H           -6.39180709767828       26.73895563928774       15.04286852808872
C          -10.29294125898334       27.94231127269982        9.81873633424520
H           -9.54755590035254       28.49015769060462       10.40406868760946
H          -10.89501058882795       27.33967828366893       10.50987172882523
H          -10.94092043313623       28.67899571343461        9.33998473202646
C          -11.05646505568607       27.30009693642515        6.61812934488169
H          -10.98644638135422       27.09662452271554        5.55056518880705
C          -12.13367889909362       27.95882810811479        7.03265849885210
H          -12.28800518906936       28.19120791334691        8.07590148781490
H          -12.90255411161002       28.27742082505578        6.33582101941511
C           -8.89284495492331       24.30794207015359        2.77312525830618
H           -9.19612648333745       25.34475863611142        2.59378349678259
H           -9.75289419719224       23.75885332303180        3.17094498287769
H           -8.60210498974168       23.86562227418004        1.81619205089510
C           -5.95638778185916       23.06855927957796        2.29188587253774
H           -5.48874904667589       23.81139023691564        1.63528825102270
H           -6.76401021687574       22.58245014916712        1.73572920751100
H           -5.20693440013801       22.31423812307818        2.54848710390130
O           -7.16986622262305       22.78852605793318        7.99161415002900
H           -7.41990997643627       22.72178077565984        8.91064690030803
H           -7.33793313838060       22.10772884382336        7.36554377390356
C           -3.55049786869237       26.92267747364755        6.93361088070580
H           -3.00040729754018       27.66475857532934        7.52067587981399
H           -3.50242580018160       27.19688812621035        5.87659479286346
H           -3.10921593364087       25.93333643663120        7.07763416291148
S           -5.29669638315750       26.89941428446306        7.44631262778300
H           -5.03746198389546       26.59812962334448        8.71615383284595
72
 energy: -105.964272884637 gnorm: 0.023969284174 xtb: 6.7.1 (edcfbbe)
Fe          -6.20442321834753       24.71740775361823        7.64840840009183
N           -4.42389622657457       23.76728827022755        7.39834190006833
N           -5.86742966912677       24.83496608008996        9.62609027131510
N           -7.97993218857963       25.66674468798455        7.91800959173018
N           -6.58071500881034       24.49315874800048        5.71853622618056
C           -3.84434383041782       23.42882826888446        6.21547519676139
C           -2.53808642443586       22.84695577953482        6.43719574469191
C           -2.35791051685975       22.81800660540054        7.78951242094652
C           -3.55263742851131       23.39443710742591        8.37594232422843
C           -4.81861790431923       24.28548996075397       10.31019223201713
C           -4.91024774894250       24.60774740425946       11.71787522335941
C           -6.03369896577407       25.38672336688624       11.86970502829663
C           -6.62012678552610       25.50798205399139       10.54722383894893
C           -8.39680995016568       26.32127936017588        9.03558424449191
C           -9.61351126002825       27.06238974168867        8.77653141683159
C           -9.94768619833712       26.80408438536457        7.46620103788528
C           -8.89913990840150       25.92524766579337        6.95758129006226
C           -7.77095883044581       24.73726308410754        5.10965578001582
C           -7.74238960861347       24.25605734360389        3.74129947248095
C           -6.49452136294883       23.75188563526650        3.53226256148094
C           -5.77637988495216       23.92549232665913        4.77764948011864
C           -4.45764393282645       23.54698403021291        4.97857009417148
H           -3.87433885129983       23.28194768810328        4.10656504707821
C           -3.77277900218533       23.57488650932224        9.73468115622601
H           -3.04144136120822       23.14298493097900       10.40430125822543
C           -7.76145821915459       26.24330591646056       10.26770752085148
H           -8.20345165181294       26.78778303224039       11.08794916335773
C           -8.84412022389579       25.40725829346685        5.67188072339773
H           -9.70535470289826       25.56037763101843        5.03923901592073
C           -1.15831993988974       22.32132943171777        8.52534079383428
H           -0.30041599159800       22.27540730674255        7.85943543847509
H           -1.33026362804007       21.32080195379380        8.92181232176578
H           -0.90509075300446       22.97495842926254        9.35579343879276
C           -1.60300345169630       22.36834042777567        5.37648284981335
H           -0.95633624529961       23.17780685048717        5.03583288658296
H           -2.14480256309529       21.99027678417774        4.51426167318825
H           -0.96948502956263       21.56825696470328        5.75044347081894
C           -3.93805023828576       24.16574085624753       12.75528639215502
H           -3.14010728510822       24.90017743327115       12.87532541133337
H           -3.47990373642027       23.21875072175137       12.48632622284114
H           -4.43323408203542       24.04402189125788       13.71483173794216
C           -6.59068068614799       25.98557713232974       13.06334202910946
H           -7.64809085221848       26.21888031388322       13.03217448568206
C           -5.91525621005072       26.27659967983650       14.17116858335807
H           -4.86127568446420       26.09760707084282       14.25560090899782
H           -6.39343263083911       26.71848901338957       15.02839944353716
C          -10.27249250630897       27.92840318579097        9.79808741356944
H           -9.53058406056870       28.46188520913841       10.38841614690459
H          -10.87915065689887       27.33306115286863       10.48195528638343
H          -10.91326931659735       28.66976621679268        9.33470476243305
C          -11.03623466016681       27.28847370985942        6.64892059833288
H          -10.94127380652754       27.08898690890725        5.58831080884184
C          -12.12498100124638       27.94361787696886        7.04523888365623
H          -12.31708607800013       28.17894709094886        8.07335941765018
H          -12.87301603876960       28.27252567134226        6.34322999111537
C           -8.88225799864251       24.31341826806182        2.78546808843542
H           -9.18614671852184       25.34265504211374        2.60737617922591
H           -9.74174814242675       23.76988759040245        3.17378554049603
H           -8.60057033601055       23.87609643182953        1.83249385819465
C           -5.95831752599913       23.09044243007062        2.30789161551819
H           -5.48729579926612       23.81866477101766        1.64842343058158
H           -6.75682014698184       22.60387059522370        1.75318833782301
H           -5.21990680052847       22.33539452042702        2.56152616043890
O           -7.15960730061192       22.80374217317099        8.00549583825906
H           -7.44242378064464       22.68207665899119        8.91322494111810
H           -7.34924931537798       22.10496416161881        7.37815399523858
C           -3.53199720624703       26.92142430766550        6.92394159346892
H           -3.00080632967172       27.66268487321027        7.51038582782086
H           -3.50582706224088       27.19107066827227        5.87525950376170
H           -3.10946924374549       25.93513371985660        7.06662095101957
S           -5.28263339213483       26.91984360282958        7.43577923924212
H           -5.02603490270792       26.67097723962972        8.72373584100886
72
 energy: -105.959188357700 gnorm: 0.104165849269 xtb: 6.7.1 (edcfbbe)
Fe          -6.20929581753987       24.70756877690483        7.64157911383124
N           -4.41989234923709       23.78073646520808        7.39796802329294
N           -5.87073406583432       24.82043953837609        9.63973736004290
N           -7.97499836167900       25.68259364304666        7.89864715283970
N           -6.59776562397816       24.47244507563850        5.71272946847616
C           -3.84114836503581       23.44696744358952        6.22207043813281
C           -2.53825863548212       22.85507259005578        6.43960446021218
C           -2.36294074376528       22.81523258153934        7.79357059022144
C           -3.56143708333120       23.39654236152029        8.37510173010348
C           -4.83410703043505       24.27245293947576       10.31827655299478
C           -4.91158897613197       24.58949576589401       11.71984982297620
C           -6.03797662242381       25.38922766758327       11.87841686929669
C           -6.62074600674095       25.49121818257763       10.54786152472360
C           -8.38984502492110       26.32736155078449        9.01694733246184
C           -9.60656843508836       27.06452724268843        8.77184608651475
C           -9.95862726739028       26.80234548741354        7.45800347518643
C           -8.89504589324673       25.93267936199895        6.95352727120894
C           -7.77198539851790       24.71833977674581        5.10873944983385
C           -7.74982076055567       24.25661484607343        3.73516142884039
C           -6.48890342636584       23.76359360593861        3.52390602910633
C           -5.79031191176269       23.93585386884251        4.77651455506081
C           -4.46762526159772       23.54611172392123        4.98300635081277
H           -3.89911459045850       23.24067010380621        4.11609981829379
C           -3.77706281486866       23.58389005128926        9.73267361405172
H           -3.02279120850886       23.18390638090776       10.39485291095310
C           -7.75929370425010       26.23868879216380       10.25634728223199
H           -8.20982897497429       26.76907955008999       11.07606443779055
C           -8.83433297690867       25.40432241974793        5.67237675050877
H           -9.68185025354351       25.57565347016946        5.03078979634388
C           -1.18130555499390       22.32632520158429        8.52421417209501
H           -0.32591984659804       22.27955560243762        7.86760944694855
H           -1.34421050202090       21.33316676285432        8.92605401942822
H           -0.92747806819928       22.97165077886046        9.35114264443773
C           -1.61849660636285       22.38092151274795        5.39498350243709
H           -0.97257803640748       23.17999964089031        5.04825846154287
H           -2.15176224160419       22.00001903044829        4.53836206518561
H           -0.98840498732223       21.58436412574838        5.76070371891660
C           -3.95610138832318       24.15721234532987       12.73846276347965
H           -3.16198925233331       24.88605371687464       12.86317229921886
H           -3.49409968578178       23.21815935371058       12.47757979276322
H           -4.44346362359850       24.03213542301324       13.69300963563971
C           -6.56609936840888       25.96916517397299       13.04608917798484
H           -7.62067181527762       26.18719859412174       12.99559617111412
C           -5.90904948279609       26.27285771350570       14.16326868937758
H           -4.86004824591530       26.12191620321643       14.27230370075447
H           -6.39505726824596       26.69802348298073       15.01393051308257
C          -10.25204566523910       27.91449509171894        9.77743844262888
H           -9.51361486481460       28.43361473005935       10.37276275400154
H          -10.86329120836841       27.32644352885879       10.45403966832883
H          -10.88562187992534       28.66053493552547        9.32942418375155
C          -11.01600511333801       27.27685040355064        6.67971145341699
H          -10.89610368638670       27.08134816876062        5.62605605665775
C          -12.11628256004303       27.92840904371553        7.05781986713561
H          -12.34616271948692       28.16669053884335        8.07081790909176
H          -12.84347857760217       28.26763170455932        6.35064053111864
C           -8.87167109458747       24.31889359677100        2.79781078240711
H           -9.17616725033064       25.34055052880376        2.62096851927289
H           -9.73060196354598       23.78092070284257        3.17662606550913
H           -8.59903542347507       23.88656963372672        1.84879559171202
C           -5.96024744449658       23.11232424831143        2.32389736903712
H           -5.48584323070930       23.82593798722466        1.66155817788963
H           -6.74963037475790       22.62528924703257        1.77064794200042
H           -5.23287898947114       22.35654990300820        2.57456528303570
O           -7.14934884088503       22.81895853252993        8.01937656340208
H           -7.46493563198742       22.64237428438840        8.91580279277405
H           -7.36056412327297       22.10219938487015        7.39076355971670
C           -3.51349739398249       26.92017131393692        6.91427318908782
H           -3.00120634296923       27.66061074008750        7.50009783232595
H           -3.50922818332456       27.18525464497607        5.87392535951675
H           -3.10972308292669       25.93693104913958        7.05560781778796
S           -5.26857135684962       26.94027212689733        7.42524567479305
H           -5.01460943846067       26.74381800357235        8.73131614284726
72
 energy: -105.967746500526 gnorm: 0.020832617999 xtb: 6.7.1 (edcfbbe)
Fe          -6.20782504207202       24.70955812429841        7.64572852824315
N           -4.42827501680409       23.78028126847512        7.39869650980733
N           -5.86850599122354       24.82647347472043        9.62745366776488
N           -7.96863860089419       25.67034670530606        7.90479505269050
N           -6.58990931885176       24.47866957980609        5.72157569534133
C           -3.85031062911346       23.44037554691906        6.21839655850514
C           -2.54651684666850       22.85737928520777        6.44203593342878
C           -2.36880722834851       22.82428489729143        7.79264285782915
C           -3.56065457584140       23.40411733136058        8.37575026319532
C           -4.82486198691184       24.27558071999692       10.30911868808752
C           -4.91126445394036       24.59289513560686       11.71093425951496
C           -6.03164316460239       25.37732919517142       11.86530928207910
C           -6.61990784092776       25.49519496343943       10.54406807916334
C           -8.38177000438479       26.31822378858105        9.02579454926056
C           -9.59627375134070       27.05489359522472        8.77497497400734
C           -9.93954359970615       26.79864867498913        7.46753441787789
C           -8.89089842342408       25.92671732692767        6.95138514673820
C           -7.77401106152927       24.72967466289887        5.11082216251710
C           -7.74398227267806       24.25943577305019        3.74210646659605
C           -6.49312095085614       23.76301368962794        3.53337670816919
C           -5.78200947521785       23.92664646672537        4.78119574619447
C           -4.46686806263669       23.54107397449086        4.98290283630328
H           -3.89710014326454       23.23642901274525        4.11428874905099
C           -3.77064505758308       23.58328534437278        9.73164855764479
H           -3.01549037531490       23.18459902716375       10.39656249172360
C           -7.75710548599593       26.23295579985383       10.26073680717182
H           -8.21035480723821       26.76727581528444       11.08067324466870
C           -8.84050791054033       25.41089621218870        5.66739176001574
H           -9.69100360730983       25.58185415611599        5.02523589565027
C           -1.17791379521024       22.32427564385127        8.53312463001984
H           -0.31870479869362       22.27605195950846        7.86900278013957
H           -1.35422908008890       21.32546637451281        8.93293909848601
H           -0.92870776305281       22.97980306676633        9.36374142319210
C           -1.61315512866433       22.37837684082605        5.38649410708570
H           -0.96830870768165       23.18850944455359        5.04356125183276
H           -2.15775111412562       21.99675776297733        4.52750294845218
H           -0.98094108634714       21.57982335148780        5.76612449293726
C           -3.94784274886040       24.14590269502366       12.74782750236384
H           -3.15263945760458       24.88288832724057       12.87179710407277
H           -3.48848947543345       23.19972955763177       12.47548010238842
H           -4.45025433754110       24.02234063620500       13.70385976715411
C           -6.57981225932039       25.96856364622679       13.05799654930068
H           -7.63839077638812       26.19116509156468       13.01504350289323
C           -5.91464748381296       26.26893768472643       14.17110989993117
H           -4.85286706684940       26.12781609024614       14.26559376099478
H           -6.40812362752954       26.70219352693148       15.02317491200684
C          -10.24931361402091       27.92075845302202        9.79132189220227
H           -9.49990118767079       28.43476077764112       10.38991833756184
H          -10.87020558538184       27.32466148386874       10.46222230751242
H          -10.87473562202437       28.67522393069959        9.32710697262501
C          -11.02513150708721       27.28763029605980        6.66133031974490
H          -10.91149259540252       27.09470443853077        5.60210951598257
C          -12.12377572284630       27.93400200324351        7.04879686569621
H          -12.35714121244862       28.14397684718863        8.07715749067896
H          -12.85481967721699       28.26878188670389        6.33358414447595
C           -8.88189321484067       24.32342727904417        2.78937500925363
H           -9.18207353339460       25.35533580531837        2.61688724750138
H           -9.74288876132910       23.78178377159373        3.17861986388956
H           -8.60182501366574       23.88749641594683        1.83491550807028
C           -5.95374192853296       23.10961355931053        2.31128062464260
H           -5.47602219029129       23.83645265958690        1.65460253272885
H           -6.75412449744410       22.62695485679886        1.75556559852018
H           -5.22068778872939       22.35090183520765        2.57118611315618
O           -7.15480355674329       22.79620454947890        8.02274682497245
H           -7.47248684318334       22.63937286864750        8.91684781776708
H           -7.36771034199164       22.10149791561425        7.39378974410179
C           -3.51981606818270       26.92163693878620        6.91114698859631
H           -2.98722364911932       27.66581636104716        7.49135136325366
H           -3.50496589987100       27.18341040307277        5.86005757452774
H           -3.10458526640808       25.93252676619473        7.05689528743630
S           -5.27166468659584       26.93441060762609        7.43036549540069
H           -5.00738564315279       26.77794604164682        8.74030883720685
72
 energy: -105.969536537933 gnorm: 0.012917909965 xtb: 6.7.1 (edcfbbe)
Fe          -6.20478247528678       24.71223818879953        7.64707807963827
N           -4.43502815034606       23.78450597511235        7.39972306976450
N           -5.86363731503801       24.82915739993252        9.62441850708462
N           -7.96186012623197       25.66221316929643        7.90126583090708
N           -6.59169298166166       24.47436726951980        5.72597761155360
C           -3.85875033390377       23.43718119392856        6.21947831606033
C           -2.55303285870725       22.86017797932555        6.44394898261519
C           -2.37352236756633       22.83259787920825        7.79310620170181
C           -3.56196369257054       23.41517984318646        8.37516139970665
C           -4.81927083175431       24.27950574155474       10.30659167097803
C           -4.90949513529422       24.58979907746621       11.70826491829471
C           -6.02898176382064       25.37024947344641       11.86300359381561
C           -6.61713362479493       25.49179293078650       10.54317110863474
C           -8.37338127069573       26.30913492123864        9.02442575728952
C           -9.58612670797470       27.04667907812892        8.77492818766647
C           -9.93102913492032       26.79462948218771        7.46955327310830
C           -8.88619613064873       25.92380399420311        6.94831259058587
C           -7.77567350643538       24.73004909683154        5.11096651857695
C           -7.74371312507165       24.26289511816919        3.74216500270163