78
 energy: -116.058025728249 gnorm: 0.000041936393 xtb: 6.7.1 (edcfbbe)
Fe          14.43066497358556       29.75340035893480        4.93702875015354
N           14.59246939266547       31.12557945019530        6.37073577112498
N           13.69100428728723       28.44484787047980        6.25093809415342
N           14.32983989075434       28.35673619839600        3.48618272578709
N           15.22674201542137       31.04464632521389        3.61696290818153
C           15.04376593492595       32.39951305089408        6.24123946866185
C           15.00387289210761       33.08997519540691        7.51290101630326
C           14.51821604427112       32.19782139511756        8.41553748901970
C           14.26290319876432       30.97694404620584        7.68077207389384
C           13.47042608508944       28.65728314538384        7.57582255686783
C           12.91467167046619       27.48350610574773        8.19998451425005
C           12.80078135174600       26.54121477998594        7.21305654868329
C           13.28670412642953       27.17312489119361        6.00045182306960
C           13.82972951855373       27.09497142772764        3.60630522354994
C           13.89329472503838       26.39736061570796        2.34902218304778
C           14.44822172526506       27.27093306291402        1.45008646407443
C           14.69782444879592       28.49462611210396        2.18489993578892
C           15.48083002342233       30.81969543072946        2.29855307243011
C           16.01786386784405       32.00671322968964        1.67204865867873
C           16.07072408627246       32.95918761877802        2.64205959257740
C           15.57307475675599       32.33907775855958        3.84908540625249
C           15.49089739675140       32.98069857299483        5.06981494564656
H           15.80972156968967       34.01079714559118        5.11326976759316
C           13.74121569804849       29.83434221387453        8.25279591563564
H           13.53534093421737       29.85905517285876        9.31215447902255
C           13.34966315617008       26.53544799144392        4.77728681779279
H           13.00826733048354       25.51277070019533        4.73109152994391
C           15.25403605699384       29.63223748583961        1.62720869825681
H           15.51609062324155       29.59858189003969        0.58086757007803
C           14.27393759133058       32.36748046413661        9.87601363670810
H           14.55343266424027       33.36647420704787       10.20146158005175
H           14.85747037708037       31.64508306225055       10.44670627417536
H           13.22043698208475       32.21257771417896       10.11176856739147
C           15.43468213139763       34.50195921643167        7.71720114376976
H           14.85367188964806       35.17568808318659        7.08690769951980
H           16.48716604843698       34.62173262773918        7.45950207467522
H           15.30037296916206       34.80155560875836        8.75368763237746
C           12.49628453794733       27.38580798690477        9.62572744655153
H           12.04982482462457       28.32012836178083        9.96337056537150
H           13.35220766262543       27.17072232460441       10.26727219017691
H           11.76708692804119       26.58721254469795        9.74704430567995
C           12.28396705337934       25.19286182761079        7.29134787862027
H           11.76495435068706       24.83809311894094        6.40814324776417
C           12.40382480660457       24.37993698851767        8.33605546838637
H           12.95034979777938       24.65964383023395        9.21956794134939
H           11.98039012051616       23.38915501172375        8.33036382134481
C           13.37888240223338       25.02184106616972        2.10503163637124
H           12.45695563210907       24.85217092581520        2.65912657806418
H           14.10548635597938       24.27164122371253        2.42183410655450
H           13.17919096869228       24.88045931889644        1.04477279725831
C           14.72437805528487       27.08345740299702        0.04301702845598
H           14.61629122439419       27.96570344246531       -0.57758701739167
C           15.09996459280512       25.94154650872017       -0.52400404362345
H           15.26997079224111       25.04615434381143        0.04794797532296
H           15.27634700757312       25.87072022958697       -1.58452391282084
C           16.41022710505920       32.09599296780406        0.23697444512568
H           15.54995949368873       31.91545465850526       -0.40839003044372
H           17.17184947121581       31.35276683863800       -0.00047267751078
H           16.80950569986188       33.08047473933357        0.00607022815287
C           16.53798370475814       34.37141828466957        2.55403930057445
H           16.86079645133425       34.61046187712477        1.54370262385534
H           17.37549928620170       34.54119414035545        3.23117107513458
H           15.73663489992245       35.05716078545683        2.82979468077609
O           16.56885100558589       29.00502294469869        5.29884970379790
H           16.53358265140449       28.15366364784749        4.84946895172193
H           17.05266284959005       29.60871659914756        4.72464267147845
C            9.78843526742545       31.40545519473279        2.32990075970387
H            9.47065605708794       32.43982825690540        2.46088049031401
H            8.90761217678035       30.76716047890618        2.39772628161139
H           10.22125569097638       31.29715424956871        1.34041912162621
N           10.52159697620542       31.05539753088682        4.69874399886205
H            9.64522032342247       31.32207165239891        5.11646495384699
C           10.79318307067853       31.02829528841184        3.35592104824748
C           11.63776244978064       30.65891059374848        5.35092189032999
H           11.71709157179245       30.58375083454284        6.41604476430994
N           12.59881553089599       30.38287703893494        4.50288154347358
C           12.08861984117201       30.60808084584871        3.25832258982484
H           12.68281287718618       30.45379386844144        2.38200096252626
