78
 energy: -116.058076779685 gnorm: 0.000137370349 xtb: 6.7.1 (edcfbbe)
Fe          57.91254875527401       21.51451444723198       38.38379641773733
N           59.26209412506473       21.81668073215599       36.92039349330076
N           58.71958363232552       19.70003612073479       38.73342730141677
N           56.62300460542721       21.23282340400349       39.87723736070907
N           57.16263297624803       23.33095774461703       38.05960966720820
C           59.35820743994139       22.90541819195286       36.11153410824713
C           60.42669577149190       22.73782639160420       35.15319882078054
C           60.97436084045886       21.51663859248464       35.39882941372651
C           60.22956746195253       20.95285707939189       36.50177228093707
C           59.75732629631617       19.11773019778670       38.06712986185536
C           60.00387354575273       17.78986528228143       38.56313686759065
C           59.07469479327498       17.56700207824836       39.54643248483838
C           58.29004867284787       18.78158916768364       39.63860018176101
C           56.49087017646806       20.11669445906817       40.64428101388060
C           55.43345870790767       20.27987409491234       41.61084682210268
C           54.91890606779016       21.53211056551915       41.40836996046082
C           55.68631756272951       22.10712352397744       40.31931165097331
C           56.14316796405500       23.92103120623514       38.73448049150285
C           55.86403278298445       25.23583711182175       38.19660383081584
C           56.74200967300882       25.42323884922308       37.17664603445949
C           57.54528784448674       24.22078131928395       37.10723089000431
C           58.56126785104989       24.03216380429429       36.19059260515294
H           58.75084514842946       24.82577155437984       35.48427763145660
C           60.47303692127119       19.70135159901425       37.03385071407808
H           61.26889662843760       19.12213208852562       36.59104184738565
C           57.24778252895004       18.96502670332547       40.52620506253325
H           57.00214309523619       18.14247633530367       41.18009993336975
C           55.44780800899415       23.36130115713999       39.78875451123451
H           54.65433279449106       23.94750678969714       40.22677091917724
C           62.10931789103974       20.83487604988016       34.71388727274444
H           62.90756691704588       20.61139831591883       35.42227804197398
H           62.51809751858127       21.46254640214725       33.92597717398072
H           61.78183740280535       19.89519685038615       34.26778793744923
C           60.80167360366814       23.75102012703276       34.12684498987531
H           61.09302868620927       24.68805465296978       34.60192363015864
H           59.95937123296603       23.95582037693715       33.46571987893795
H           61.63455622369707       23.40052428433103       33.52213221318488
C           61.10911624685760       16.89767950185440       38.11539493100315
H           62.00852360664596       17.47365918444806       37.90225431833407
H           60.83263924656107       16.35661295631323       37.20863549755857
H           61.33784152774769       16.17011597651949       38.89154596507976
C           58.88873165829029       16.39949670102643       40.37876520904753
H           58.53755666923712       16.59354769175675       41.38557922610483
C           59.10277683739532       15.14207570648299       40.00487343848069
H           59.40523444876588       14.88394124742526       39.00502103667316
H           58.95525581767396       14.31983642203715       40.68525912089696
C           55.06491081781321       19.28495654514045       42.65537807740038
H           55.95380973567477       18.80054544973532       43.05677902736598
H           54.41500039869578       18.51059307576655       42.24422668145937
H           54.53959239065553       19.77778186119997       43.47086469389967
C           53.85652414326756       22.21146213570227       42.11642047251007
H           53.97526929112581       23.28372864084551       42.22055950335164
C           52.77479663150623       21.63081089725222       42.62561439371634
H           52.58173935266783       20.57842390306321       42.51058946114327
H           52.02713992938495       22.19783476024438       43.15519542716418
C           54.80759852388353       26.14951610108755       38.71594579200165
H           54.99756376608653       26.39783974070573       39.76029704082828
H           53.82659965968402       25.67775105443400       38.65375060656530
H           54.77988408335860       27.07389295628446       38.14423279355569
C           56.90661626472450       26.59793948414757       36.27443202161948
H           56.18481527495395       27.37450438245764       36.51517080805134
H           56.76243633419571       26.30571026184635       35.23395043119189
H           57.90769735076575       27.01860291034929       36.37192995744255
C           53.38333527328379       20.07480516012149       35.47137388564887
H           53.03028084976999       19.04711262447242       35.55564730926568
H           53.33210132761793       20.36792302467151       34.42279648199709
H           52.72331730031301       20.71760767141949       36.04523804654037
N           55.81954346512310       19.49472363707771       35.45873940521534
H           55.76422643287120       18.84096904084847       34.69512655539603
C           54.76997606935821       20.19956555702068       35.98731047082460
C           56.93056964838909       19.83436191145876       36.15013123832451
H           57.90445902088226       19.43600464503013       35.95410163328293
N           56.64865989092971       20.71081301465918       37.08316164719150
C           55.30830143753118       20.94845753019464       36.99420844371585
H           54.82477406898720       21.63673316604103       37.65630022007436
O           59.49593844235842       22.34556882122281       39.82084540384734
H           60.13961690779871       22.66512363205174       39.17915607485895
H           59.83997770848406       21.52057336401086       40.18018393437018
