78
 energy: -116.058077292459 gnorm: 0.000118603684 xtb: 6.7.1 (edcfbbe)
Fe         -11.73485363312027        2.41726906103096        1.17949895161953
N          -12.34549452309215        0.76240926023863        2.14990321151288
N          -10.05588348051334        2.43526850030446        2.29676685778493
N          -11.09271576170067        4.02051762882164        0.18339029116701
N          -13.37067391224130        2.35027069696037        0.04617933954341
C          -13.51560363671800        0.09470914079153        1.96652668818112
C          -13.61897214981471       -1.01739493261161        2.88342893626622
C          -12.48209334947943       -1.00524204405981        3.63102182291645
C          -11.70107104322382        0.11714284872458        3.16268151485222
C           -9.71777403502037        1.56341892238982        3.28949198291163
C           -8.46728382311102        1.93680637674626        3.89520523977692
C           -8.05361095462184        3.07620504363515        3.25446410074007
C           -9.06192733982539        3.36145675099311        2.25384109528962
C           -9.95156737866560        4.72474774551021        0.41495501040153
C           -9.84298878301255        5.83973202271404       -0.49272577778164
C          -10.95700172121655        5.79720756148721       -1.28713820482987
C          -11.71888141075556        4.64458626406021       -0.84407497192040
C          -13.69751452522518        3.20157058590280       -0.95949126494566
C          -14.97393296149368        2.84333650138644       -1.54138827901288
C          -15.41069573605611        1.75356632609572       -0.85745806142987
C          -14.39423120251906        1.46138352745099        0.13131141634542
C          -14.47751747829708        0.41226907637258        1.02591108653591
H          -15.35819169753562       -0.21017268012292        0.98571845075564
C          -10.47592580534512        0.47520640274153        3.69138940279796
H          -10.09083040668447       -0.12771390932913        4.49957215007327
C           -9.01118911367972        4.43595992577150        1.38737044775658
H           -8.17067407748386        5.10673969968818        1.47739008220382
C          -12.93763577219025        4.27499145693087       -1.38205723201714
H          -13.32973213570134        4.87280224905664       -2.19074754230999
C          -12.06008748470641       -1.92652650973043        4.72429595355195
H          -12.81025024865335       -2.69513874694516        4.89270411044066
H          -11.91616427053685       -1.37851351708907        5.65604835541516
H          -11.11889029490511       -2.41623524431812        4.47259561312714
C          -14.77504597503639       -1.95597533853952        2.93917111275131
H          -14.90069828848495       -2.46617115555520        1.98388690093788
H          -15.69653736620468       -1.41555883672865        3.15659551309902
H          -14.62785265857909       -2.70712485464601        3.71140243745198
C           -7.76360682356540        1.16494184998770        4.95683791207357
H           -7.88828353622437        0.09401640035297        4.80288065951748
H           -8.15577752099162        1.41130145480264        5.94522922469918
H           -6.70055104571531        1.39687616474245        4.94308089844657
C           -6.85364415795925        3.85568706672336        3.46185547246375
H           -6.44156256447563        4.32492768427392        2.57602596154042
C           -6.24366113472317        4.03943408159549        4.62840650722505
H           -6.63223365503383        3.63949485639466        5.54866610255144
H           -5.34201388845698        4.62403268183436        4.70606614228387
C           -8.68880907259527        6.77740723871741       -0.56584584311321
H           -7.75037898148921        6.24603411672030       -0.41432663869321
H           -8.76600408386602        7.55111645795804        0.19997414597531
H           -8.66147973920001        7.25970811882191       -1.54076760311896
C          -11.33843340767828        6.66802266789052       -2.37701632218638
H          -11.86835144336147        6.19083590284494       -3.19322826911554
C          -11.09807952325812        7.97364087994532       -2.44112991763792
H          -10.61844923436828        8.50784818878796       -1.63948785937980
H          -11.39854169050423        8.56087994866956       -3.29309525419417
C          -15.61691048059278        3.57233423441047       -2.67086016058504
H          -14.97635241322112        3.55097780247303       -3.55265646359207
H          -15.79195179405051        4.61529925842466       -2.40538474369401
H          -16.57109341516192        3.12028815192184       -2.93025726108691
C          -16.66321805557684        0.96559608760075       -1.03430801550641
H          -17.27114966661647        1.38030500947998       -1.83457870197700
H          -17.25278198185339        0.97115989098825       -0.11715992001503
H          -16.43203925926587       -0.07077781939763       -1.28145151256169
O          -10.60814171740537        1.00589195952296       -0.23563160414073
H          -10.93738418003808        0.16173139743965        0.09183468758618
H           -9.71254730861691        1.11145185332685        0.10322292532739
C          -14.71153604358095        6.37994065160675        3.73095594701383
H          -14.17500379804534        7.09958333839769        4.34913723974081
H          -15.61564592241057        6.08180434665430        4.26177217788123
H          -14.99664007458044        6.86353430514056        2.80198812225434
N          -13.34299557670478        4.39914184884115        4.42002427520710
H          -13.47912541163418        4.52131551152058        5.41003436186819
C          -13.85956352714762        5.20034147054534        3.43564799192394
C          -12.62055751603415        3.42682768467991        3.81970239160092
H          -12.10001952864618        2.65410837591813        4.34649465382514
N          -12.64840311930629        3.56337198104559        2.51631983476837
C          -13.41585916455555        4.66206909036866        2.26179187791132
H          -13.59522410603486        4.98969200190179        1.25859983496442
