78
 energy: -115.996355886522 gnorm: 0.233112994356 xtb: 6.7.1 (edcfbbe)
Fe         -11.74800000000000        2.44300000000000        1.24300000000000
N          -12.28300000000000        0.72400000000000        2.12500000000000
N          -10.04000000000000        2.44000000000000        2.31600000000000
N          -11.10300000000000        4.02400000000000        0.15500000000000
N          -13.35800000000000        2.31900000000000       -0.02500000000000
C          -13.43700000000000        0.01000000000000        1.88600000000000
C          -13.46800000000000       -1.16100000000000        2.72500000000000
C          -12.34000000000000       -1.12800000000000        3.47100000000000
C          -11.58100000000000        0.03700000000000        3.11100000000000
C           -9.67900000000000        1.53800000000000        3.31600000000000
C           -8.49200000000000        2.00400000000000        3.98300000000000
C           -8.12900000000000        3.15700000000000        3.38900000000000
C           -9.07100000000000        3.43400000000000        2.32000000000000
C           -9.94300000000000        4.69800000000000        0.42400000000000
C           -9.74200000000000        5.69800000000000       -0.59400000000000
C          -10.81600000000000        5.64100000000000       -1.42000000000000
C          -11.69200000000000        4.59800000000000       -0.95500000000000
C          -13.73700000000000        3.25200000000000       -0.95400000000000
C          -15.07500000000000        2.95400000000000       -1.38600000000000
C          -15.53000000000000        1.89200000000000       -0.70000000000000
C          -14.43400000000000        1.44900000000000        0.16800000000000
C          -14.45000000000000        0.35400000000000        1.01200000000000
H          -15.33100000000000       -0.28800000000000        0.98600000000000
C          -10.38100000000000        0.40600000000000        3.63600000000000
H           -9.93900000000000       -0.25900000000000        4.37800000000000
C           -9.05800000000000        4.48900000000000        1.46500000000000
H           -8.28000000000000        5.23800000000000        1.61300000000000
C          -12.89300000000000        4.20900000000000       -1.46100000000000
H          -13.22200000000000        4.71300000000000       -2.37000000000000
C          -11.90000000000000       -2.16600000000000        4.49400000000000
H          -12.65500000000000       -2.97900000000000        4.54600000000000
H          -11.81200000000000       -1.69200000000000        5.49500000000000
H          -10.92300000000000       -2.60000000000000        4.19200000000000
C          -14.59000000000000       -2.21600000000000        2.70400000000000
H          -15.02800000000000       -2.27100000000000        1.68500000000000
H          -15.38700000000000       -1.93100000000000        3.42400000000000
H          -14.17500000000000       -3.21100000000000        2.97200000000000
C           -7.80300000000000        1.25400000000000        5.11300000000000
H           -7.96400000000000        0.16200000000000        4.98600000000000
H           -8.23000000000000        1.57000000000000        6.08900000000000
H           -6.71200000000000        1.46200000000000        5.09100000000000
C           -6.94400000000000        4.05000000000000        3.71800000000000
H           -6.52700000000000        4.69900000000000        2.93400000000000
C           -6.36200000000000        4.09700000000000        4.93000000000000
H           -6.73500000000000        3.47000000000000        5.75300000000000
H           -5.50600000000000        4.76300000000000        5.11300000000000
C           -8.53200000000000        6.61800000000000       -0.65400000000000
H           -7.61800000000000        6.04600000000000       -0.38600000000000
H           -8.65900000000000        7.45300000000000        0.06800000000000
H           -8.41700000000000        7.02000000000000       -1.68300000000000
C          -11.11100000000000        6.43800000000000       -2.70200000000000
H          -11.61000000000000        5.92100000000000       -3.53400000000000
C          -10.81300000000000        7.71600000000000       -2.89900000000000
H          -10.31300000000000        8.30000000000000       -2.11200000000000
H          -11.06200000000000        8.20700000000000       -3.85100000000000
C          -15.84200000000000        3.82900000000000       -2.40300000000000
H          -15.38500000000000        3.71500000000000       -3.40900000000000
H          -15.78400000000000        4.89600000000000       -2.09900000000000
H          -16.90400000000000        3.50500000000000       -2.45100000000000
C          -16.91000000000000        1.21900000000000       -0.75200000000000
H          -17.42000000000000        1.49100000000000       -1.70100000000000
H          -17.52900000000000        1.56600000000000        0.10200000000000
H          -16.79100000000000        0.11500000000000       -0.71100000000000
O          -10.55400000000000        0.97200000000000       -0.01200000000000
H          -10.74900000000000        0.10400000000000        0.34200000000000
H          -10.01300000000000        1.15200000000000       -0.69400000000000
C          -15.12500000000000        6.26000000000000        3.80500000000000
H          -14.66700000000000        7.23000000000000        4.09300000000000
H          -15.74600000000000        5.89000000000000        4.64900000000000
H          -15.75900000000000        6.41400000000000        2.90600000000000
N          -13.09800000000000        4.87800000000000        4.40100000000000
H          -13.02700000000000        5.23200000000000        5.33300000000000
C          -14.04600000000000        5.27000000000000        3.49900000000000
C          -12.30700000000000        3.97700000000000        3.85800000000000
H          -11.47600000000000        3.49400000000000        4.37000000000000
N          -12.70000000000000        3.77700000000000        2.61600000000000
C          -13.78300000000000        4.56400000000000        2.35900000000000
H          -14.27100000000000        4.55500000000000        1.39300000000000
78
 energy: -116.036136109810 gnorm: 0.091424087454 xtb: 6.7.1 (edcfbbe)
Fe         -11.72481575278697        2.42724289802713        1.22155943697140
N          -12.30227643639850        0.73620630675195        2.14098400939063
N          -10.04413313125954        2.45524793006567        2.34110946037688
N          -11.09774105497142        4.02330474531489        0.16357823752930
N          -13.37592232467602        2.33251962482061        0.01357614412726
C          -13.44136754667227        0.01915854700222        1.89327478876580
C          -13.47541560148546       -1.16745340584439        2.71891545799416
C          -12.34279483379585       -1.14555921416046        3.46902456257290
C          -11.60292600439345        0.03609233726482        3.10192197042681
C           -9.68192320644268        1.55645580341924        3.31788709530558
C           -8.48148199264745        2.00127730037171        3.98300654188539
C           -8.11146600796763        3.17311646188360        3.39266606779643
C           -9.08318680348708        3.43743475122942        2.34290949425705
C           -9.94717425009136        4.70576322444053        0.41302328575357
C           -9.74743842197138        5.71782051946664       -0.60049484480141
C          -10.81641364970238        5.64650996247396       -1.44635279605975
C          -11.67071906122437        4.58605922946970       -0.95205513524506
C          -13.73371765335618        3.22882926935449       -0.95400220745370
C          -15.08435238610048        2.96298872907481       -1.39113895942862
C          -15.53192604697770        1.88537540078905       -0.70112874498147
C          -14.43769071742135        1.47050978100372        0.17009261401169
C          -14.44849945241961        0.37151325796499        1.00910752370635
H          -15.32304023890814       -0.26893692914790        0.98106067896429
C          -10.38850375832766        0.41044591828296        3.63370519440207
H           -9.95368888937505       -0.24902905960330        4.37829626914981
C           -9.06322590929608        4.49460762964005        1.46433165748569
H           -8.27564860497514        5.22786134398157        1.59583909299982
C          -12.89005982496132        4.20219755691139       -1.46417275240721
H          -13.23309875798467        4.72652858513784       -2.35205799966895
C          -11.90241415694933       -2.16096752809130        4.48750939422447
H          -12.63822130896956       -2.96719822203561        4.55110004662278
H          -11.80778087623484       -1.70190293600002        5.47762171514101
H          -10.93589809916650       -2.59217020488394        4.20464757410293
C          -14.57598984532746       -2.20306093298537        2.70238386326115
H          -15.01752480252438       -2.27227973089196        1.70426148559751
H          -15.36778270452688       -1.93611452661267        3.41182149911995
H          -14.18333046066657       -3.18861131130343        2.97014286571422
C           -7.80767713850385        1.25386414747351        5.09975081575573
H           -7.96130867564866        0.17628182699873        4.98954012989762
H           -8.21808935430355        1.55983385900025        6.07034677747639
H           -6.73191744190428        1.45222428256543        5.09101284789532
C           -6.95631508082811        4.03677438169324        3.72188995915508
H           -6.56141530315109        4.67633907511428        2.93421460117225
C           -6.37090578791973        4.09218469558018        4.91841670305259
H           -6.72998459403566        3.50061254968237        5.74953313497486
H           -5.52577346914999        4.74684804483803        5.10352695178909
C           -8.54278613312948        6.61361867636109       -0.65915038585122
H           -7.63673297464169        6.05757302439655       -0.39351262412719
H           -8.65449432354175        7.44308659452328        0.04910588744419
H           -8.41938699887598        7.01762042610765       -1.66737215220612
C          -11.10088097578574        6.42711216134871       -2.68376322891787
H          -11.60392844571610        5.89924507025219       -3.49334863671011
C          -10.80617040818643        7.70572594516012       -2.88531173752814
H          -10.32464206423484        8.30247680673033       -2.12074791595816
H          -11.05114900434348        8.19689681229150       -3.82245015632860
C          -15.83232031883328        3.81722948388007       -2.39384571744137
H          -15.38966156411331        3.71557282285032       -3.39093669262430
H          -15.78489783181114        4.87186131639925       -2.10349860151918
H          -16.88149980786644        3.51388533717618       -2.44869518320628
C          -16.88947524993721        1.22546794976637       -0.75522623769335
H          -17.40776787643347        1.48514548229185       -1.68367702278940
H          -17.50922662762071        1.55555346803345        0.08668111772636
H          -16.79154094998664        0.13677766909997       -0.71041621036037
O          -10.57886195852156        0.97077984669640       -0.02073814838814
H          -10.73509380953957        0.09409256317218        0.32767193062642
H           -9.98453452296652        1.14034305200702       -0.72873402462060
C          -15.11803992943647        6.25998334507372        3.80560731573881
H          -14.68027879673086        7.22299305782714        4.09164846680165
H          -15.74178112851769        5.90381301745169        4.63360201399012
H          -15.74708373813575        6.40963049770402        2.92540383539061
N          -13.10823375160259        4.88436921069112        4.40640963771500
H          -13.03480480559655        5.24162098595168        5.34378711317517
C          -14.04923287759130        5.27026584039790        3.49528810066361
C          -12.31064620107726        3.96933342059088        3.84152331670789
H          -11.48700706742568        3.49535734507788        4.34669640215551
N          -12.69339604996600        3.74665686412967        2.60161719338207
C          -13.77033168000817        4.55083459884862        2.36407373414010
H          -14.25713470793871        4.54833133218254        1.40712210183324
78
 energy: -116.047223514320 gnorm: 0.025119847152 xtb: 6.7.1 (edcfbbe)
Fe         -11.72359693218842        2.42478132508157        1.21661142575593
N          -12.31352665314868        0.74301747193872        2.14873134145089
N          -10.05202946384233        2.46676371290952        2.35452388369484
N          -11.08255260973640        4.00704163182050        0.16263477681488
N          -13.37862577922389        2.33660785543386        0.03259593806625
C          -13.44729769161603        0.03210428221321        1.90265771174482
C          -13.48044421497266       -1.16738342440097        2.71371911045973
C          -12.34347123642732       -1.15427793170730        3.46469198784450
C          -11.62149235488691        0.04305183595408        3.09607669391074
C           -9.69560498315899        1.57391523357563        3.31893284996965
C           -8.48686052103563        1.99918984588444        3.98330270550973
C           -8.11400301002453        3.18523041087220        3.39805815905224
C           -9.10005606546565        3.43923773336161        2.35721840020090
C           -9.94506198153971        4.70577147580832        0.40540813296201
C           -9.75144119793641        5.72904015963068       -0.59908676094084
C          -10.81733145787247        5.64252035273026       -1.45773700614988
C          -11.65105027965596        4.56499126692632       -0.94596030428968
C          -13.72569930780761        3.21943762486939       -0.94316872423859
C          -15.07997002682349        2.96938362773412       -1.39404282757851
C          -15.52397841517871        1.88493602383604       -0.69837018687510
C          -14.43641046404796        1.49556213661337        0.18051204639589
C          -14.45164801199953        0.39483128062887        1.01788483916010
H          -15.32076299025768       -0.24599066059013        0.98076847645971
C          -10.40344742146489        0.42145395033032        3.63575380593670
H           -9.97551498060353       -0.23355644259694        4.38216171656983
C           -9.06577030981722        4.49479949911734        1.46267263131396
H           -8.26483822546527        5.21104197059118        1.57826854286192
C          -12.88877011450666        4.20338096156112       -1.45469756142726
H          -13.24558615150147        4.74703774471401       -2.32146165866494
C          -11.90131170952598       -2.15484908824483        4.47871804240940
H          -12.62609270165432       -2.95969239117957        4.55287230201514
H          -11.80354291043211       -1.69660868365136        5.46094235600915
H          -10.93732469290710       -2.58258679494167        4.20870172302017
C          -14.56493714422928       -2.19047579664059        2.69963188980955
H          -15.00910050111889       -2.26986768145713        1.71165419183377
H          -15.35329172236579       -1.92973912967265        3.40513052777296
H          -14.17904068132197       -3.16883221621723        2.97376275695793
C           -7.81331604522012        1.25107578771622        5.08318594471268
H           -7.96614826641264        0.18074412710794        4.97980772432674
H           -8.21182490128348        1.55226740325023        6.05311798041718
H           -6.74453736795047        1.44640961364070        5.07868766024530
C           -6.98206804024154        4.02535278601864        3.71973356758935
H           -6.60423209679661        4.65158447962216        2.92061619127612
C           -6.38682613256079        4.09473424074766        4.90746913441753
H           -6.73036748026759        3.53108186786271        5.75408706339410
H           -5.53922021386305        4.73521384740693        5.08218517326791
C           -8.55494561149476        6.61404460533192       -0.66502972981511
H           -7.65477654730396        6.06187538270573       -0.40304978419265
H           -8.65409863271556        7.44345368049294        0.03507948930433
H           -8.43174033344246        7.01772102117109       -1.66494382389349
C          -11.09838429884803        6.40806872719593       -2.65539486381638
H          -11.60433500976546        5.86880847636652       -3.44833464890350
C          -10.80097881775805        7.68735275382571       -2.86337136241204
H          -10.33080722469579        8.29823353435823       -2.11498252276839
H          -11.03809634836610        8.17619460319607       -3.79423166232921
C          -15.81615320796347        3.80560756161641       -2.38622649001422
H          -15.37985027722232        3.71018665703063       -3.37917750449143
H          -15.77627135993442        4.85529146727351       -2.10232673121038
H          -16.85927698805989        3.50980748839649       -2.44250256657588
C          -16.86480274528811        1.23189636616798       -0.75518096397402
H          -17.38470057215744        1.48842041363614       -1.67431952947465
H          -17.48484799059160        1.55229101884836        0.08263795408515
H          -16.77677555226245        0.14983476495403       -0.70891105956558
O          -10.65398105436710        0.97509155487600       -0.08521714986759
H          -10.68637871133887        0.08910909616156        0.30661271485635
H           -9.94772880217621        1.12944130253447       -0.72967205085603
C          -15.11197965442427        6.25893919018084        3.80092232517637
H          -14.68039584621193        7.21625315417695        4.08703052374854
H          -15.73501291682037        5.90913266599228        4.62251346527435
H          -15.73924247723471        6.40684649965813        2.93012849506340
N          -13.11359640568459        4.88504235460560        4.41110520862516
H          -13.03687300715175        5.24308682996000        5.35028922595101
C          -14.05076704161691        5.26741428257101        3.49035727889243
C          -12.31627527423662        3.96040567919997        3.83211899647197
H          -11.49598786034708        3.49054518427840        4.33111069065114
N          -12.68966262678487        3.73016053147482        2.59600841393698
C          -13.76477944486963        4.53824030664193        2.36843049116848
H          -14.25247189850745        4.54146951891088        1.41656279550957
78
 energy: -116.047653449303 gnorm: 0.069816927247 xtb: 6.7.1 (edcfbbe)
Fe         -11.72337221861377        2.42090479459371        1.21216105100823
N          -12.32551906860129        0.75349278798447        2.15895634922217
N          -10.05948885035484        2.46875144496360        2.35648261418614
N          -11.07419790779974        3.99796018419158        0.16859304790228
N          -13.38278833224632        2.35240979209768        0.05610304778748
C          -13.45727102731348        0.04370241818362        1.91253356071215
C          -13.48566411464797       -1.16133470573495        2.71457829618109
C          -12.34723596862105       -1.15166523239867        3.46310963378163
C          -11.63339960231652        0.05192698251347        3.09825734188348
C           -9.71000139175016        1.57957503337569        3.32297505743376
C           -8.50185377793276        1.99794267853472        3.98768260025611
C           -8.12855697317069        3.18683396150278        3.40438179681496
C           -9.11072981944431        3.43871866991441        2.36233058894793
C           -9.93894354206962        4.70253257406407        0.40850553257411
C           -9.75217996522836        5.72996275297549       -0.58949305415543
C          -10.81823537306896        5.63594963545761       -1.44764907819720
C          -11.64316143453578        4.55262004686198       -0.93467498187181
C          -13.72068349318174        3.22604695200510       -0.92751014394297
C          -15.07124365371567        2.97501863496917       -1.38833254091131
C          -15.51665842994289        1.89255793723132       -0.68983931445519
C          -14.43705498488102        1.51229454259573        0.19641915367413
C          -14.46028268801704        0.41019527207234        1.03095806441826
H          -15.33080730672214       -0.22660377125016        0.98928169237412
C          -10.41815679935512        0.42887353784793        3.64313522074897
H           -9.99794857696786       -0.22094441723424        4.39631424802330
C           -9.06132556787727        4.49078861223938        1.46325695544045
H           -8.24906172697499        5.19497640121171        1.56902651644266
C          -12.88765425109453        4.20935155393603       -1.44036223425633
H          -13.25413979223577        4.77024169707128       -2.29067094355010
C          -11.89701337279592       -2.14861871711031        4.47386943726864
H          -12.61634408610094       -2.95808177891311        4.55485881856259
H          -11.79763652750715       -1.68558795236511        5.45407275221480
H          -10.93040463525214       -2.57210597588396        4.20512329042811
C          -14.56491413189635       -2.18516288058568        2.69919528086227
H          -15.00699876586392       -2.27108768342284        1.71067929461186
H          -15.35509998934129       -1.92277545306902        3.40248838808398
H          -14.17565449496584       -3.16026317740932        2.98090844803457
C           -7.81911206969381        1.24405675131742        5.07396161056139
H           -7.97350176060349        0.17416349353035        4.96608664055175
H           -8.20700802931158        1.54077289933581        6.04979419749787
H           -6.75045714819601        1.44092209171274        5.05969073438782
C           -6.99790017224833        4.02158993172491        3.71412335340535
H           -6.63056869619160        4.63939889394917        2.90360790070393
C           -6.39266881469432        4.10323497834631        4.89674081552900
H           -6.73926500128203        3.56706431477453        5.76205877509981
H           -5.54151258892821        4.74208010135116        5.05530322688546
C           -8.56092888015766        6.61725891731576       -0.66840370267705
H           -7.65841518123733        6.06668567497019       -0.41196968123844
H           -8.65348209577944        7.45184574151235        0.02686700267678
H           -8.44800305375834        7.01739158508465       -1.67150738014857
C          -11.10143520112423        6.39421032585869       -2.63940418196717
H          -11.61631313853391        5.85034642522055       -3.42318069895377
C          -10.79693502040703        7.67187514063688       -2.85029159661591
H          -10.33491731248397        8.28887155542454       -2.10140999349429
H          -11.03223955104364        8.16000340076637       -3.78048454937109
C          -15.80032905660336        3.80148725818108       -2.38780555891959
H          -15.35980999397446        3.70364518459194       -3.37879865245894
H          -15.76486010121581        4.85295632704094       -2.10783655373755
H          -16.84295721362153        3.50322347049234       -2.44602337434602
C          -16.85027943399762        1.23413114617864       -0.75358903619854
H          -17.36796999288604        1.49328259140168       -1.67290667105303
H          -17.47129555353690        1.54838186222643        0.08614343761860
H          -16.75757747702463        0.15211853827879       -0.71066039220571
O          -10.75034335189012        0.96958084397262       -0.19138619919231
H          -10.61292591067750        0.09611486852896        0.29775512291863
H           -9.89999546567653        1.12965252363782       -0.71366306832009
C          -15.10472856024417        6.25389018721895        3.79245024209043
H          -14.67040580073791        7.21006334173963        4.07822711081762
H          -15.72991436031493        5.90851962168869        4.61447898118572
H          -15.73231641415633        6.40370466233282        2.92205948380766
N          -13.11263344475673        4.87457992924939        4.40837374035484
H          -13.03420353179702        5.23323116143337        5.34713265158539
C          -14.04799185833070        5.25728933845921        3.48319888191980
C          -12.31781605821189        3.94607989889206        3.82622873213960
H          -11.49709293045194        3.47618399719728        4.32365154268595
N          -12.68917200545224        3.71432996623510        2.59186682314043
C          -13.76253230912327        4.52489377517514        2.36464721557404
H          -14.25250281723827        4.53149012999734        1.41416727922040
78
 energy: -116.051101551812 gnorm: 0.019318987141 xtb: 6.7.1 (edcfbbe)
Fe         -11.72371267208049        2.41853889619530        1.21034810337624
N          -12.33364198870259        0.76231559194152        2.16640926301849
N          -10.06606703855338        2.46948950348796        2.35630422094173
N          -11.06661161329006        3.98938381817851        0.17410732334751
N          -13.38262434711452        2.36633223509988        0.07578427381228
C          -13.46498699994977        0.05312491428344        1.92039059651470
C          -13.48861398639890       -1.15497163262422        2.71576306061382
C          -12.34976121946957       -1.14728710509074        3.46150183248857
C          -11.64109596970349        0.06010820428086        3.10134279613022
C           -9.72297591327047        1.58324134395600        3.32823083515774
C           -8.51781179608911        1.99864783078953        3.99370042439594
C           -8.14498991791121        3.18756247277409        3.41148570278932
C           -9.11936555295884        3.43928127895525        2.36587310105380
C           -9.93215449076072        4.69896623198239        0.41349831482233
C           -9.75205054475226        5.72852365294747       -0.57913137211387
C          -10.81857923967155        5.62868657036050       -1.43422656970774
C          -11.63733784305283        4.54173202771505       -0.92430710470915
C          -13.71410270253704        3.23339959253392       -0.91349287307525
C          -15.05977243382469        2.97775851844384       -1.38274629958924
C          -15.50734399772513        1.89925752206197       -0.68245950625108
C          -14.43524616002341        1.52477273490819        0.21125517751027
C          -14.46753478888109        0.42218596256602        1.04347897782214
H          -15.34055005770163       -0.21023138877447        0.99749958824262
C          -10.43086685008716        0.43560029758921        3.65168716283445
H          -10.01773582393694       -0.20931697311661        4.41183494012324
C           -9.05610597199682        4.48741406632897        1.46488156644393
H           -8.23499235456410        5.18234589494489        1.56333978560388
C          -12.88545342236619        4.21478206468442       -1.42704984024601
H          -13.25956891378816        4.79001777776058       -2.26355514725409
C          -11.89209655507865       -2.14289254860490        4.47051354783919
H          -12.60791769168682       -2.95744410364221        4.55675688790315
H          -11.79222899198238       -1.67413955236244        5.45001312634640
H          -10.92209192445154       -2.56278151749178        4.20119317796768
C          -14.56567080080375       -2.18190289012929        2.69868136121220
H          -15.00435870135613       -2.27312687394365        1.70732839620349
H          -15.35873611276717       -1.91602143800290        3.39994498160603
H          -14.17146233445578       -3.15471332862467        2.98801676059407
C           -7.82471098797701        1.23921812728252        5.06886625960479
H           -7.98038811898291        0.16821123187681        4.95471620732848
H           -8.20389937679055        1.53154058268999        6.05101047590589
H           -6.75482241436717        1.43895791088948        5.04379785365712
C           -7.01210624695892        4.02196438279880        3.71084654657333
H           -6.65071362489612        4.63064033191707        2.88946613845996
C           -6.39963403576082        4.11467124397852        4.89034379400909
H           -6.74774816741974        3.59659530768399        5.76974547411805
H           -5.54279172253903        4.75159746640677        5.03291390097296
C           -8.56540258316498        6.62122376313813       -0.67033819529309
H           -7.65920425602280        6.07184275759079       -0.41859768170610
H           -8.65391427511254        7.46149274941167        0.02106084264875
H           -8.46316522160377        7.01720921606984       -1.67871282493786
C          -11.10547080609244        6.38282306380731       -2.62684803903883
H          -11.62589612607218        5.83452715962201       -3.40474241973677
C          -10.79496870784433        7.65894847060517       -2.83905665238531
H          -10.33658846348960        8.27897472424573       -2.08773615941252
H          -11.02715526719740        8.14600346524979       -3.77090785979038
C          -15.78480575891145        3.79768835789159       -2.39109639989814
H          -15.33883189898806        3.69614227574655       -3.38095838984152
H          -15.75289695606303        4.85200098125385       -2.11387808304304
H          -16.82812355943770        3.49510986649836       -2.45095377251840
C          -16.83709941651054        1.23415217093249       -0.75297889150804
H          -17.35236448766432        1.49705798054232       -1.67413670059254
H          -17.45918882125630        1.54343011484039        0.08963561871305
H          -16.73779701065124        0.15079551309954       -0.71451151909089
O          -10.68667845961349        0.97809450524657       -0.16786738572540
H          -10.64638928707674        0.10523897034381        0.21704931380887
H           -9.93666738564181        1.11848617059112       -0.75285548707794
C          -15.09983829820836        6.24833045652082        3.78312232850251