77
 energy: -118.995548530855 gnorm: 0.000049061527 xtb: 6.7.1 (edcfbbe)
Fe          -0.64931576134804       26.94412701575964       15.50887929836266
N           -2.03607854346458       28.32680493742732       16.01133891635472
N           -2.11949283551493       25.68206519847242       14.91405159658473
N            0.72628369205607       25.64695768363241       14.79517631460601
N            0.79686884910140       28.29334604864598       15.89994567801447
C           -1.80912852347419       29.56467926281923       16.52093785138451
C           -3.06172945001095       30.21744326526366       16.83256985011153
C           -4.04610662248022       29.33557828389528       16.50763848572935
C           -3.38373098429094       28.15559904711322       15.99590156654540
C           -3.45659208951034       25.88529887735501       15.04483614597373
C           -4.18975541136480       24.73594447490065       14.57728995826102
C           -3.25460258536714       23.82392385285983       14.16296068021044
C           -1.96214147758901       24.44341476743848       14.38255887982594
C            0.49690617741092       24.40345658488945       14.29720130039058
C            1.74394092799531       23.74258049079961       14.00034262896260
C            2.73778500223277       24.61861380766090       14.34945413371281
C            2.07027745813407       25.80806645699548       14.84336842588199
C            2.13241630171345       28.07398886856007       15.80299732774379
C            2.86736303660791       29.22510560074352       16.28407732474697
C            1.93742654437734       30.13749178980665       16.67466337925710
C            0.64474307939534       29.53040742435997       16.43532926023546
C           -0.56482813295651       30.13734585188042       16.72046069199845
H           -0.53641441016114       31.12906147151444       17.14581415692875
C           -4.05096933246471       27.03112357606652       15.54857406241401
H           -5.12866078471797       27.04180623895343       15.61150596048841
C           -0.75132425765645       23.83641230819431       14.10168838875653
H           -0.78079897727263       22.82937781019143       13.71395093879278
C            2.73205602861887       26.92962419793592       15.31163672147144
H            3.81100280127588       26.90020644740968       15.31810483071212
C           -5.52386481611663       29.48340203284996       16.62987181200197
H           -5.78223207995481       30.45876308971669       17.03386635413858
H           -5.92844135818023       28.71943636607477       17.29328362481963
H           -6.00467755625147       29.37651267860241       15.65710089833873
C           -3.17315458075097       31.58640329316400       17.40921462396142
H           -2.69561801329409       32.31771808294813       16.75708109252936
H           -2.68323876931191       31.62909025197226       18.38168191014422
H           -4.21478017312015       31.86906872436963       17.53812907433199
C           -5.67358286811729       24.63339714751601       14.51235377122178
H           -6.11607485317277       25.58579630236337       14.22408136070034
H           -6.08345035866754       24.35179985300162       15.48307631729340
H           -5.96429714894509       23.87854334493866       13.78464182749405
C           -3.45134860688917       22.50920567401945       13.59023587233449
H           -2.72390949296766       22.21012651293088       12.84458302099031
C           -4.42733885042664       21.66820156491690       13.91456137017483
H           -5.14473920476477       21.89358099508409       14.68381411055223
H           -4.52122471046531       20.70558238848170       13.44025381111786
C            1.87210633106803       22.39488594556784       13.38297926905460
H            1.10127818858062       22.23988284701421       12.62960658727487
H            1.76811415522986       21.61466856230283       14.13799205743581
H            2.84762749381992       22.29067083334616       12.91244763275063
C            4.17283263870155       24.46417407502828       14.24283102362800
H            4.72594220740104       25.36857750160006       14.01718047497245
C            4.83766086328687       23.32584061310795       14.40809055975109
H            4.34510007161951       22.41052254322164       14.68475567265784
H            5.90901013470192       23.28018851041544       14.30489545028011
C            4.35355420945347       29.31579656402994       16.32022896565403
H            4.77118479657578       29.20778010952059       15.31886466891243
H            4.76438607303621       28.52475783681754       16.94679718973600
H            4.67284854923781       30.27342765302805       16.72337816695211
C            2.13045018069761       31.49561741943267       17.25478583412495
H            1.63388877887127       32.24863969891473       16.64263834714451
H            3.18687131702161       31.74389522809421       17.31573050148792
H            1.70847341292694       31.54230839197002       18.25846433489543
O           -0.67210337938902       26.29095634357810       17.04999456741750
O            0.44594773363820       26.04313895145642       17.62299717876788
C            0.52013043794740       28.83223904342145       10.05039526407579
H            0.27830134388819       29.85812880315548        9.77275395738786
H            0.22088102358468       28.17825021732775        9.23140389465158
H            1.59429595426894       28.75179118641219       10.18477304652306
N           -1.53522122128831       28.45845375931291       11.43267032435804
H           -2.18838006353509       28.71473713868976       10.70996590667170
C           -0.16893697319880       28.44979759676418       11.30796976602202
C           -1.83304167662957       28.06015299880054       12.68763186891569
H           -2.82879541925736       27.97079934241519       13.07122360911655
N           -0.74599613860932       27.80105396891134       13.36420848143217
C            0.29878250647910       28.03770335751745       12.52370871073924
H            1.30838019202023       27.89568301437960       12.84955108060595
