77
 energy: -118.870940294496 gnorm: 0.391446282759 xtb: 6.7.1 (edcfbbe)
Fe          -0.62100000000000       27.02800000000000       15.27200000000000
N           -1.98300000000000       28.31400000000000       15.94100000000000
N           -2.08600000000000       25.73200000000000       14.81600000000000
N            0.73100000000000       25.74600000000000       14.69200000000000
N            0.82400000000000       28.29900000000000       15.73700000000000
C           -1.77700000000000       29.66700000000000       16.48400000000000
C           -3.09900000000000       30.24500000000000       16.78200000000000
C           -4.06100000000000       29.33000000000000       16.47900000000000
C           -3.46500000000000       28.14200000000000       15.94900000000000
C           -3.46000000000000       25.84000000000000       14.95400000000000
C           -4.18500000000000       24.72600000000000       14.54300000000000
C           -3.26100000000000       23.80600000000000       14.13700000000000
C           -2.01300000000000       24.48100000000000       14.28700000000000
C            0.56000000000000       24.43700000000000       14.25000000000000
C            1.72800000000000       23.67899999999999       14.07500000000000
C            2.74900000000000       24.56400000000000       14.45800000000000
C            2.08000000000000       25.80000000000000       14.80800000000000
C            2.16000000000000       28.17400000000000       15.66800000000000
C            2.94300000000000       29.24500000000000       16.17300000000000
C            1.92000000000000       30.10700000000000       16.61000000000000
C            0.72900000000000       29.57300000000000       16.35600000000000
C           -0.48700000000000       30.11200000000000       16.64300000000000
H           -0.42500000000000       31.10000000000000       17.09100000000000
C           -4.09400000000000       27.00100000000000       15.55300000000000
H           -5.17300000000000       26.95500000000000       15.69900000000000
C           -0.73400000000000       23.85800000000000       13.98500000000000
H           -0.75500000000000       22.87200000000000       13.52000000000000
C            2.74500000000000       26.97800000000000       15.20900000000000
H            3.83300000000000       26.96000000000000       15.15800000000000
C           -5.52500000000000       29.48900000000000       16.62200000000000
H           -5.75100000000000       30.49800000000000       17.02800000000000
H           -5.91900000000000       28.72300000000000       17.32300000000000
H           -6.01300000000000       29.38200000000000       15.63000000000000
C           -3.22600000000000       31.63400000000000       17.25800000000000
H           -2.39600000000000       32.24500000000000       16.84400000000000
H           -3.17200000000000       31.65700000000000       18.36700000000000
H           -4.19300000000000       32.06100000000000       16.91600000000000
C           -5.71100000000000       24.57700000000000       14.53200000000000
H           -6.18000000000000       25.57100000000000       14.37100000000000
H           -6.05500000000000       24.17000000000000       15.50700000000000
H           -6.01600000000000       23.89800000000000       13.70800000000000
C           -3.41600000000000       22.41700000000000       13.58900000000000
H           -2.72700000000000       22.04200000000000       12.81800000000000
C           -4.35500000000000       21.63600000000000       14.00800000000000
H           -5.06200000000000       21.97700000000000       14.77900000000000
H           -4.46000000000000       20.62000000000000       13.60000000000000
C            1.89300000000000       22.25500000000000       13.58500000000000
H            1.07300000000000       22.00900000000000       12.87600000000000
H            1.84700000000000       21.55400000000000       14.44600000000000
H            2.86700000000000       22.14900000000000       13.06100000000000
C            4.24300000000000       24.36700000000000       14.65800000000000
H            4.81900000000000       25.18400000000000       15.11700000000000
C            4.89000000000000       23.34200000000000       14.34300000000000
H            4.38400000000000       22.48300000000000       13.87900000000000
H            5.97300000000000       23.28800000000000       14.52600000000000
C            4.41400000000000       29.39300000000000       16.23600000000000
H            4.85200000000000       29.17000000000000       15.24000000000000
H            4.83100000000000       28.68200000000000       16.98000000000000
H            4.67500000000000       30.43500000000000       16.51900000000000
C            2.22500000000000       31.45600000000000       17.46600000000000
H            2.19600000000000       32.33800000000000       16.79100000000000
H            3.23400000000000       31.38800000000000       17.92700000000000
H            1.45400000000000       31.58100000000000       18.25600000000000
O           -0.50700000000000       26.39500000000000       16.98100000000000
O            0.33400000000000       25.55400000000000       17.36300000000000
C            0.07500000000000       28.47500000000000        9.82700000000000
H            0.56400000000000       29.46099999999999        9.67500000000000
H           -0.79900000000000       28.39800000000000        9.14600000000000
H            0.80700000000000       27.67100000000000        9.59900000000000
N           -1.27600000000000       29.22600000000000       11.80500000000000
H           -1.70800000000000       29.97900000000000       11.31000000000000
C           -0.37900000000000       28.35700000000000       11.24800000000000
C           -1.48200000000000       28.92000000000000       13.08500000000000
H           -2.15100000000000       29.46000000000000       13.75400000000000
N           -0.74600000000000       27.87500000000000       13.37200000000000
C           -0.06100000000000       27.51300000000000       12.26400000000000
H            0.61200000000000       26.66500000000000       12.28800000000000
77
 energy: -118.954716529306 gnorm: 0.181687237512 xtb: 6.7.1 (edcfbbe)
Fe          -0.62072614358989       27.01016855951000       15.31780309998795
N           -2.00700761881209       28.32477306389664       15.93987816714210
N           -2.10487507239594       25.72115734410482       14.80198202779636
N            0.73593248700208       25.71731879540469       14.69100882212394
N            0.83389390822051       28.32253330718368       15.73469360893527
C           -1.79303724658042       29.62364319064111       16.46929978628065
C           -3.07957678125134       30.23502142303544       16.77059477119560
C           -4.04612701104772       29.32788656569519       16.47615993503778
C           -3.42516587552677       28.14020221702224       15.95823915606882
C           -3.46467519715624       25.86258107570041       14.96870795024278
C           -4.18666122382126       24.72162710031197       14.54311483818157
C           -3.24247453323980       23.80690179487093       14.11549627718430
C           -1.97798631936238       24.46899979474792       14.27804349601121
C            0.53256167978481       24.42948181257132       14.24011359588112
C            1.74637429062036       23.69570059716939       14.07689108584356
C            2.75489286679375       24.57275667713319       14.46871144981929
C            2.08778718825041       25.81036631292013       14.81004404779946
C            2.17107931216261       28.15437994867403       15.65459821553648
C            2.92765178524353       29.25284890538225       16.17759546455499
C            1.94866996307496       30.12810679181405       16.63914150712980
C            0.70735502977922       29.57058431210902       16.35789910678982
C           -0.52089263343544       30.12247428154991       16.64733740044384
H           -0.45097772562805       31.10958858834866       17.09732915103952
C           -4.07337486895336       27.00385590316633       15.55014171937934
H           -5.15167324601845       26.96093330643310       15.69111385466483
C           -0.73233091076174       23.86931332905493       13.98424613988561
H           -0.75489079842094       22.88185417135190       13.53782350707690
C            2.75470268505121       26.97119992380188       15.19676823362822
H            3.83582307146225       26.95406647271670       15.16289704650708
C           -5.51953571394681       29.49179101280211       16.62182160266954
H           -5.75576090031280       30.48387652687969       17.02342940847543
H           -5.91932176955376       28.73582641553257       17.31000182689134
H           -6.01392884968052       29.38059653726734       15.64731936762518
C           -3.22191995416849       31.63156608994984       17.25631190899221
H           -2.40818726758491       32.24597306463639       16.85447398368139
H           -3.17422804552327       31.66497414945210       18.35305759952196
H           -4.17790109926073       32.06090049817091       16.92884305024083
C           -5.69445976321418       24.58042062958140       14.53265791804438
H           -6.17265358342177       25.55471492659474       14.37370915604752
H           -6.04964465430283       24.17607930894130       15.48994733386675
H           -6.00616475840052       23.90757091357017       13.72463916074628
C           -3.41141609498043       22.43848960571499       13.58821441321695
H           -2.72083343505665       22.07090379437247       12.82982514376382
C           -4.36759147614167       21.63312247840679       14.01131248939656
H           -5.06259379185815       21.95593621774571       14.77659325185515
H           -4.47025151810745       20.62823801595134       13.61243914205104
C            1.88495484766894       22.27595780286025       13.58936768900196
H            1.08203817906223       22.01380240253232       12.88883273903314
H            1.84865734281145       21.56982626515166       14.43109075812100
H            2.83694810457890       22.14843070247950       13.06365724018980
C            4.21445526367622       24.38941656091681       14.65616585145792
H            4.77741563952078       25.20065905901699       15.11676863167700
C            4.90139974588098       23.31825866738165       14.33384018914073
H            4.41926858904411       22.46493163160151       13.88357883072990
H            5.96898223018341       23.26914081405306       14.51824911073722
C            4.40460000286127       29.39177235094340       16.23351659765420
H            4.85010925130547       29.17262561000571       15.25402351497115
H            4.82886478305644       28.69387175385271       16.96830659391134
H            4.67572121630351       30.41571686616502       16.51588037019174
C            2.21811619133394       31.43396899917669       17.44515758418343
H            2.19361876537973       32.31668127855995       16.79374114724793
H            3.20763380796482       31.37908417200854       17.91236563075900
H            1.46884769328004       31.56717705622363       18.23428184281131
O           -0.52891932821373       26.39910564968218       16.99036805946734
O            0.33516669556224       25.55377140843672       17.36390748536013
C            0.07335788721304       28.47574570597802        9.83198880272860
H            0.55838008028404       29.44746006334871        9.67172875396816
H           -0.78326437238731       28.39775591126788        9.15061271732235
H            0.79263557248779       27.68328759122280        9.60208245412879
N           -1.27818096746242       29.23466755031011       11.79387021912871
H           -1.71315226784079       29.99150030783859       11.29837388908663
C           -0.37845555289935       28.36025454777522       11.24684794490115
C           -1.47813324068999       28.91505938189829       13.08147830216039
H           -2.13943519526402       29.44812571901395       13.74484817053566
N           -0.74634915971244       27.86896484531697       13.38743522029485
C           -0.06144849439552       27.51191231728202       12.26941813499621
H            0.60728830347732       26.67076125580735       12.28794530484765
77
 energy: -118.983284921876 gnorm: 0.044277543863 xtb: 6.7.1 (edcfbbe)
Fe          -0.62154930567575       26.99137754570985       15.36995803867273
N           -2.03199811465694       28.32830027545027       15.96780721473377
N           -2.11897845382860       25.71029847346166       14.79404567141309
N            0.74672951868028       25.68844448085112       14.69377493934144
N            0.83906352103108       28.34937516991787       15.74244879335479
C           -1.80277652648131       29.57754068935852       16.45350249789242
C           -3.05942824901060       30.22753548448793       16.76014946771253
C           -4.03578679651496       29.32598286471078       16.47448392628603
C           -3.37861012159282       28.14089336583771       15.96866316009291
C           -3.46095193317931       25.87885931203854       14.98178135026392
C           -4.18324670348847       24.71544308580824       14.54282810774787
C           -3.23243103144122       23.81236146077630       14.09953770644201
C           -1.95092069169379       24.46610551581222       14.26591293220410
C            0.51728414193222       24.42329529672745       14.23658899728607
C            1.76770336793396       23.70874857859563       14.07387630993146
C            2.76473218618191       24.57258172488508       14.47199187228424
C            2.09512020825246       25.81633869111440       14.81676631762537
C            2.17484135923106       28.14130753273949       15.64594299114361
C            2.90550122333123       29.26450047973021       16.18500767549067
C            1.96524321544093       30.14278558268287       16.66118015379080
C            0.68632530827907       29.56446995137604       16.35768923606512
C           -0.54571525096950       30.13271654388418       16.64875461621341
H           -0.48043370301315       31.11519437638349       17.10135771490560
C           -4.04615841832779       27.00568288752768       15.54348529020159
H           -5.12242181187961       26.97383758777752       15.67811266175958
C           -0.72952068184241       23.88155014930338       13.98580653298364
H           -0.75502539923018       22.88771739711459       13.56141647424109
C            2.75911920015205       26.96912798582878       15.19040100704759
H            3.83639056769453       26.95421428755522       15.17126396293481
C           -5.51480428468104       29.49069755203155       16.62035008899010
H           -5.75312790223854       30.47232401451538       17.01912070366565
H           -5.91543486514148       28.74096416510860       17.30077177444395
H           -6.01171778831049       29.37706785097676       15.65700366549128
C           -3.21307583118866       31.62889841826673       17.25443554507919
H           -2.41310743953266       32.25029794313922       16.86184245730867
H           -3.17258239078364       31.66416212786373       18.34297174910184
H           -4.16448335670999       32.05164580212611       16.93677053555582
C           -5.67323904583321       24.58080751236054       14.53234795942564
H           -6.15422475522210       25.54443705307983       14.37457255934994
H           -6.03716757817330       24.18061946298777       15.47946620382419
H           -5.98996350752739       23.90909370849892       13.73654200193720
C           -3.41605691787239       22.46406478278048       13.59380646421501
H           -2.71751105958611       22.10465165719847       12.84785834946959
C           -4.37525654123135       21.63914427518552       14.01228806455711
H           -5.06474378080621       21.93896395566892       14.77654510433372
H           -4.47277832297520       20.64239382688839       13.61850296681876
C            1.87936843910830       22.29566358326026       13.59038673361873
H            1.07625591551794       22.03338233663938       12.90507655670490
H            1.84977034135933       21.59326405353839       14.42535778392651
H            2.81486728584739       22.15122251263816       13.05916689648766
C            4.18743095808949       24.38940599679475       14.64647324612109
H            4.73511032323744       25.20171565295133       15.10524215976963
C            4.90137774705215       23.30603783250870       14.33120207317428
H            4.44943415958835       22.44715299901463       13.88897423471364
H            5.95919327501137       23.26922880735991       14.51604799268072
C            4.39168535583041       29.39179648233710       16.23289026925017
H            4.83804657943860       29.17258563291464       15.26329787668129
H            4.81927067106883       28.70052575953212       16.96047705123321
H            4.67438074877548       30.40271534744677       16.51419218880321
C            2.21209058741389       31.40157385423887       17.42248792926759
H            2.18574040091508       32.28511959837581       16.78341454653692
H            3.19051591366207       31.36877170863042       17.89744892135156
H            1.47331849000750       31.54263535855778       18.20911946035501
O           -0.56112805725391       26.40674450835147       16.98738586510003
O            0.33046939853852       25.56804144193087       17.35895045211945
C            0.07323213277533       28.47470386570633        9.83602208505368
H            0.55498309222642       29.43754867363603        9.66974054136973
H           -0.77292991885083       28.39564869993394        9.15502231178817
H            0.78305363728681       27.68810374895966        9.60707193944162
N           -1.28042445547114       29.24407139174694       11.78330614254038
H           -1.71791472993058       30.00382794409404       11.28891824044086
C           -0.37776084942482       28.36397717225494       11.24618874028907
C           -1.47487556054817       28.91157914442113       13.07444532793625
H           -2.13058295743331       29.43819136651717       13.73492620126550
N           -0.74939006493555       27.86738606013723       13.39446907716915
C           -0.06253069754908       27.51395122390926       12.27094065248409
H            0.60411658114612       26.67760635553795       12.28362468869588
77
 energy: -118.987028131520 gnorm: 0.026048606899 xtb: 6.7.1 (edcfbbe)
Fe          -0.62065696494789       26.97952416014661       15.39088811118110
N           -2.02635036270890       28.32188889431833       15.98420649414090
N           -2.11333956335181       25.71005524446923       14.79252532550944
N            0.75639963885208       25.67794081003551       14.70399514773603
N            0.83448348570381       28.34971489055694       15.75247772284091
C           -1.79946917025216       29.56846957747870       16.46342116498348
C           -3.05406962419234       30.22833026743230       16.75905841537833
C           -4.03345462073218       29.32682411661319       16.47672908475382
C           -3.36697556779734       28.13819131805425       15.98464422400794
C           -3.44995511740403       25.88441816318564       14.98509019783118
C           -4.17341121057847       24.71925799613710       14.54376871541242
C           -3.22931066333059       23.82163413129298       14.09848427828196
C           -1.94391668991669       24.47110830481748       14.26290514284616
C            0.52398374820902       24.42183349497297       14.23938312194096
C            1.77405031381963       23.71106541724418       14.06327144727842
C            2.77018501531901       24.56813829334764       14.46127979498851
C            2.10047417355227       25.81196854619272       14.82143760017820
C            2.16965801089645       28.13495638920763       15.64871044950796
C            2.89614673897796       29.26091369393927       16.18710703386323
C            1.96261338735324       30.13590053966054       16.66447103801623
C            0.67508288374062       29.55512685161945       16.36585569390098
C           -0.55063558971785       30.13504872373747       16.65985725796091
H           -0.50183795629923       31.11978868819785       17.10482549055724
C           -4.03544026372484       27.00827801760918       15.54589131839180
H           -5.11147102915490       26.99403550444523       15.65742294581623
C           -0.72392325954647       23.87881294187957       13.98994512237761
H           -0.75232642187579       22.87478426032006       13.58963094503817
C            2.76022872865579       26.96703637211569       15.19410322739649
H            3.83881574688476       26.95368361270173       15.18565359926148
C           -5.51093637752695       29.48689627731644       16.61796146811826
H           -5.75170722461549       30.46875402826817       17.01495923806356
H           -5.91025257855326       28.73697608280287       17.29860468383544
H           -6.00791336755404       29.36855387906563       15.65538020767440
C           -3.20437945194029       31.62778850999531       17.25602099409129
H           -2.40952352039729       32.25929286533088       16.86707782673376
H           -3.16338490846762       31.65761622896147       18.34439899921869
H           -4.15902973823119       32.04465895827732       16.94278437644694
C           -5.65692311442662       24.58102896356263       14.53434542846204
H           -6.13489750628307       25.54475055394123       14.36986175477885
H           -6.01880808020780       24.18537441283777       15.48394789498708
H           -5.96660929443485       23.90056709850298       13.74316952902149
C           -3.42077531055061       22.47906388640072       13.59633307150876
H           -2.71159922973148       22.13192676443589       12.85487612328183
C           -4.37809356918097       21.64864787910829       14.00647056757110
H           -5.06880797347500       21.92856423091246       14.78062905013105
H           -4.47117670675280       20.65300148962523       13.60946951784671
C            1.86764610752940       22.30412342221974       13.57890442503773
H            1.03786858998912       22.05566717924747       12.92057266474744
H            1.85301717614946       21.61241228765558       14.42242730300388
H            2.78652802897832       22.14876903832844       13.02053529366641
C            4.18846222114700       24.37957743965803       14.62836377671337
H            4.71419718432596       25.20834384942239       15.08358022422710
C            4.91829078120869       23.30028988170917       14.33038278891111
H            4.49287484657827       22.41244522760553       13.90680285190308
H            5.97549302329301       23.27850745899660       14.52470657231075
C            4.38208792528947       29.38570744402316       16.23158498021571
H            4.82041263989460       29.16451966058021       15.25959037106682
H            4.80578655076897       28.69222037745018       16.95825584689472
H            4.67064482678767       30.39506027004539       16.51324726763501
C            2.20296235068405       31.40020766960443       17.41120060165346
H            2.16515019010301       32.27088316818556       16.75465210662850
H            3.18331046015634       31.37346911551553       17.88317857014326
H            1.45845688448704       31.53113431842757       18.19380042253195
O           -0.60337523701141       26.41122012182907       16.99018802173954
O            0.30434553743473       25.59621862858567       17.38203430700491
C            0.07491510103795       28.47228382357265        9.83559847307279
H            0.55943101814071       29.43279197539292        9.66235996987558
H           -0.76967629750060       28.38970889523017        9.15278992501979
H            0.78211820960522       27.68091076183934        9.61365757576336
N           -1.28147129913402       29.25173046792522       11.77771012438210
H           -1.71874382912479       30.01253394283199       11.28305035245876
C           -0.37763854911999       28.36947659513557       11.24493878284041
C           -1.47681322481870       28.91431323376449       13.06785905421310
H           -2.13438871375091       29.43803496724616       13.72801665998441
N           -0.75331934486311       27.87184610645516       13.39114645033456
C           -0.06391974423237       27.52008886468068       12.26873693722783
H            0.60358674186320       26.68431247576114       12.27879645564303
77
 energy: -118.988806729021 gnorm: 0.013324518484 xtb: 6.7.1 (edcfbbe)
Fe          -0.62791776052567       26.97216168969745       15.41773866820147
N           -2.02159728922651       28.31789238466385       16.00244967867620
N           -2.10420675996248       25.71260259499284       14.79724750886132
N            0.76141086019073       25.66858488193697       14.72429890654234
N            0.82535989666020       28.34039816154938       15.77390136361512
C           -1.79459398172735       29.56860525576425       16.47588750140803
C           -3.05132764260694       30.23040751510180       16.76065474430377
C           -4.03224007713960       29.32908476882055       16.47886412226578
C           -3.36438852561836       28.13942731021254       15.99110304211466
C           -3.43816659292681       25.89094491590708       14.98610076026512
C           -4.16191843336760       24.72464685608152       14.54756002826744
C           -3.22361439608116       23.82956556595848       14.10403987303820
C           -1.93675021276379       24.47563134406839       14.27074683560474
C            0.52973586563245       24.41933575180773       14.24949078584478
C            1.77622059122736       23.71148855663333       14.05395678069418
C            2.77351036874649       24.56323383890412       14.45257983494261
C            2.10286586483286       25.80480396550955       14.83144323101666
C            2.16045099091112       28.12415985138584       15.66285713653131
C            2.88808795936123       29.25277082792941       16.19125458658524
C            1.95777447464875       30.12678195148288       16.66609332089610
C            0.66513331533159       29.54465268440390       16.37842357964422
C           -0.55158463077411       30.13990813224670       16.67261539204676
H           -0.51906773736180       31.12673059719641       17.11038755234618
C           -4.03007791965792       27.01503774401407       15.53942092912697
H           -5.10491878238463       27.01221013336569       15.63597840960400
C           -0.71932231568122       23.87315801745070       14.00466284202751
H           -0.75257725591860       22.86511022421395       13.61896695921256
C            2.75802476809162       26.96138246987017       15.20836349741884
H            3.83729052606875       26.95443847040264       15.20301739913944
C           -5.50762123252446       29.48261201221600       16.61552335717315
H           -5.75372801576586       30.46446443267225       17.01137340559171
H           -5.90507767996840       28.73060055882153       17.29602695612931
H           -6.00361612021699       29.36113228190415       15.65218083320506
C           -3.19768855923859       31.62664636616579       17.26160119034033
H           -2.40898102367060       32.26699742866317       16.87207258828360
H           -3.14905201071676       31.65027685093656       18.35045840587118
H           -4.15662834809982       32.04066379555102       16.95644259230538
C           -5.64252343476678       24.58273511609841       14.53812411188835
H           -6.12228358651136       25.54358002724401       14.36064969345022
H           -6.00293887135028       24.19721430917854       15.49268201564551
H           -5.94488412323910       23.88892177639700       13.75505058210852
C           -3.41846854102115       22.48884726021423       13.60104232778332
H           -2.70653378071432       22.15770902338065       12.85426371040889
C           -4.37356643274302       21.65476868252447       14.00134524458619
H           -5.07532887774744       21.91982097955549       14.77320557744613
H           -4.47033896494961       20.66490043182201       13.58897729845312
C            1.86085960825805       22.31070782765306       13.56297967726787
H            1.00561161372115       22.06756480308223       12.93376659088135
H            1.87032091112686       21.62183780879788       14.40932094813249
H            2.76315102702045       22.15387887297596       12.97678159142378
C            4.19311014954154       24.36682531896374       14.60847461701277
H            4.70911245296574       25.21515703252908       15.04055011085014
C            4.92765367524989       23.28809706960486       14.33368461498051
H            4.52463312796402       22.37909668703486       13.92323983965357
H            5.98771866283410       23.28247635132490       14.52431122352077
C            4.37329002754050       29.37461507124397       16.22896634801555
H            4.80306615153623       29.15091175108724       15.25371264620206
H            4.79474100638927       28.67890662468573       16.95479727280394
H            4.66749175015120       30.38318690229077       16.50929283196481
C            2.18900941128286       31.40568595122655       17.39796865659807
H            2.13622821429505       32.26212181267257       16.72356007754601
H            3.17213812231103       31.39605198233541       17.86446299639726
H            1.44409322154822       31.53624644641031       18.17971250823887
O           -0.63619199556248       26.40775705197781       16.99676072539606
O            0.29306430327528       25.62541064798525       17.41034851342248
C            0.07895611659544       28.46824033617602        9.83134409884533
H            0.56756495672565       29.42559358046450        9.64873290804175
H           -0.76457569179448       28.38087481423170        9.14676007854885
H            0.78411061175752       27.67092764853473        9.61938300131101
N           -1.28190361258704       29.26035024904438       11.76945282962453
H           -1.71878200223338       30.02130134940205       11.27425056840309