72
 energy: -105.980694831531 gnorm: 0.000104410559 xtb: 6.7.1 (edcfbbe)
Fe          60.14341348889343       23.17792265434343       67.16627277423949
N           60.91810354248037       22.14197185128132       65.65208867853019
N           59.10525502396387       24.30308263907107       65.87881448579526
N           59.41273363829065       24.26254786708977       68.70071499078352
N           61.24493980240854       22.11367834602155       68.45915632711579
C           61.77050052329610       21.08913625709130       65.73336795036397
C           62.09010621623850       20.58550671127471       64.41459141844592
C           61.41833922489392       21.37225574537768       63.53353613020231
C           60.69104187952586       22.33944686781332       64.32727662825120
C           59.13937578468875       24.22867899823793       64.52083102034270
C           58.27041459387103       25.21451048385342       63.93080315588274
C           57.69659041950024       25.89408252604424       64.97175952454229
C           58.24941784064922       25.31408268908253       66.18025493357364
C           58.47385028723728       25.24819006014866       68.62569443467902
C           58.16051540425682       25.75547847345161       69.93517081759148
C           58.94315689301320       25.05656051468204       70.81661151429891
C           59.70282836011444       24.11580558032818       70.01994510586485
C           61.29987200944436       22.26534210821206       69.80957182880168
C           62.18179311124206       21.28185877096647       70.39791575027111
C           62.64222333592673       20.51909904681650       69.37073228940424
C           62.04656632443337       21.05549491098246       68.16758122960458
C           62.29060254141443       20.56362979049520       66.90066302885309
H           62.95125223956249       19.71516551303545       66.81464203938613
C           59.87464012688724       23.31268573521569       63.78904350292360
H           59.79629986567198       23.35668191040125       62.71393696143893
C           57.92222913264628       25.73600177723608       67.45419023842388
H           57.19802577371036       26.53043954011521       67.54351663452488
C           60.60295064667827       23.20617766870666       70.54244444249991
H           60.75327344739766       23.21095520331522       71.61044315006897
C           61.38644939342377       21.31338922878465       62.04536066690342
H           62.00988735544151       20.50248710804886       61.67729292223789
H           61.75204267951660       22.24752678902174       61.61888012086812
H           60.36870027981896       21.15349056034961       61.68822922066568
C           62.99427925999917       19.43078591928791       64.15331707678310
H           62.62754056621510       18.53502920899112       64.65491750597327
H           63.99787099612259       19.63933049920947       64.52448128795095
H           63.05970723846296       19.22457315459533       63.08795702347044
C           58.11656359216553       25.45380949851448       62.47001564935686
H           59.07406198209659       25.35148301134687       61.96179822495504
H           57.73465885598020       26.45745241802539       62.29534834603226
H           57.42050646744295       24.73881923018730       62.02767602521693
C           56.75808080189681       26.99436892475185       64.93902320354114
H           56.86766638073266       27.72838346923450       65.72876545451675
C           55.79560189159086       27.15620471786493       64.03730989945538
H           55.61179504332766       26.43567098304956       63.25943045604219
H           55.13767171734901       28.00880575797971       64.06289419088633
C           57.13389242583369       26.79231498688634       70.22826786193892
H           56.26487011067837       26.66731839288102       69.58394615853898
H           57.53394516663110       27.79450490007674       70.06515628117688
H           56.81318350184156       26.71554491991520       71.26505852799023
C           59.01502387584183       25.16281101084101       72.25754147527046
H           59.20224308906095       24.23584412002235       72.78649716746121
C           58.87942539035021       26.28718240970566       72.95236793739164
H           58.73863534258321       27.24195574043911       72.47631169940111
H           58.93102227238629       26.29372272870331       74.02833397001926
C           62.47026558694942       21.17857558335318       71.85564338692105
H           61.55740862824282       20.96128080341302       72.41056329120744
H           62.88148731201324       22.11474006130555       72.23390517848200
H           63.18699504010077       20.38527630494354       72.05221159138277
C           63.57379943875772       19.35718718375526       69.39939652453712
H           63.88938667282896       19.13975335952346       70.41664455740582
H           64.46141531404474       19.56182634971389       68.80026020447640
H           63.08877914253227       18.46950732039964       68.99337111924918
O           61.83902562220013       24.64856330483553       67.12174311748512
H           62.48347162836692       24.20343024091989       67.68424009493189
H           61.46003317743221       25.36781171484436       67.64021635888213
C           57.82003327900452       21.10344516693605       65.78990761018052
H           56.82818688097033       20.66829758048792       65.86463144647746
H           58.53969665438493       20.34741086355971       65.49368430473505
H           57.83941497302241       21.92595848524952       65.08307716095538
S           58.33765299450918       21.69877971043934       67.43801192385388
H           57.36831049951479       22.61487603691752       67.54474278808091
