72
 energy: -105.980135467151 gnorm: 0.000143309295 xtb: 6.7.1 (edcfbbe)
Fe         -13.70809609394040      -11.48307417668896       25.12584530072520
N          -13.60927488629421      -12.48133275616125       23.40570091366682
N          -14.05461635828155       -9.78366803528471       24.13110098210202
N          -13.69288162120517      -10.46102880215426       26.86003192297946
N          -13.32953426983217      -13.17408575473657       26.13056266603362
C          -13.42808769648957      -13.81649652638714       23.24530873159388
C          -13.38874174942854      -14.16311970442751       21.84052562768950
C          -13.53726209592079      -12.99838698923638       21.15661884461714
C          -13.68009311952472      -11.95880727845665       22.15326375541416
C          -14.09094683712541       -9.62536072808728       22.78113911614851
C          -14.39272757209379       -8.26137241423430       22.43540871166753
C          -14.57041699850148       -7.59242403140802       23.61602046941538
C          -14.31690199195559       -8.56090210574263       24.66438209108034
C          -13.92116977087025       -9.12631176917712       27.02171723670199
C          -13.80656236565993       -8.75316361596864       28.40669622968601
C          -13.51264894777502       -9.90284944118090       29.09258120291072
C          -13.44962818260356      -10.95653484296241       28.10133100151954
C          -13.20418180154645      -13.31650208205067       27.47724932382394
C          -13.02780498047097      -14.70820779759665       27.82852513154883
C          -13.06115944700270      -15.40385004706541       26.66076084629390
C          -13.24704934635658      -14.42712290173363       25.61102272157028
C          -13.28982059685655      -14.73761490861982       24.26619639396852
H          -13.18786976500159      -15.77574587341707       23.99107804276004
C          -13.89540895760184      -10.63057803075369       21.84965379199044
H          -13.92906173452021      -10.35430144502813       20.80725863295278
C          -14.23378742596484       -8.24103406180263       26.00544911658350
H          -14.39650527947475       -7.21000317190644       26.27550230913646
C          -13.23225088248676      -12.28904616772634       28.39970081976976
H          -13.10146597548187      -12.55206691022403       29.43749928851799
C          -13.56418851419142      -12.76065784724815       19.68631008138782
H          -14.52012739070324      -12.33235778720880       19.38324411312029
H          -13.41770803473530      -13.69004648801224       19.14180717444563
H          -12.77546714741680      -12.06591091230174       19.39803826365738
C          -13.20704716387962      -15.54794020646879       21.32234901065608
H          -13.99931847654041      -16.20155730160157       21.68791309536624
H          -12.25199584714522      -15.95731621565440       21.65194158261671
H          -13.22775227225083      -15.55962326764939       20.23551730248705
C          -14.53186756560792       -7.74320677340406       21.04645621038014
H          -15.37090185604259       -8.22066503254541       20.53851594456385
H          -13.62925065938038       -7.94703479491033       20.47031182872610
H          -14.70607615350582       -6.67027951974398       21.05453472014468
C          -14.93706846871525       -6.20094500546652       23.78268652287068
H          -14.49777788063707       -5.51743631591404       23.06428936277536
C          -15.77772345099689       -5.72623358478257       24.69464153109065
H          -16.00936851217639       -4.67589203211445       24.75458320163083
H          -16.28293709661422       -6.36709653209182       25.39762540897628
C          -13.92387934698732       -7.36534260314615       28.93106255026527
H          -14.96953996395667       -7.09718768146241       29.09027061402884
H          -13.49620576558839       -6.65005336724814       28.23023558086572
H          -13.39995152025868       -7.28025537296100       29.88095034171113
C          -13.27335714484291      -10.09049262955820       30.50667311402536
H          -12.55408958915744      -10.86049228327635       30.76098496663100
C          -13.86245543316520       -9.41055082681678       31.48449377369749
H          -14.61879907614283       -8.66986074264841       31.29275725136628
H          -13.62611620143862       -9.59471218790995       32.51925585169325
C          -12.85768150552392      -15.20652391546955       29.22188604034931
H          -13.72126260325130      -14.93859284674050       29.83055742607743
H          -11.97096029346916      -14.76892382479352       29.68148107958201
H          -12.75091869795950      -16.28822388637496       29.23496290441543
C          -12.93270227873155      -16.86963144904884       26.42900830836094
H          -13.81918121289320      -17.25541881310502       25.92577175565608
H          -12.81415862561447      -17.40089189507152       27.36994556001219
H          -12.06704471822056      -17.08453387642895       25.80187547388235
O          -11.49172977607183      -11.12402186875256       25.08571275929880
H          -11.41481033085722      -10.39394637099179       25.71077129547198
H          -11.17546832919185      -11.91652469862478       25.53474998272730
C          -16.78449893735830      -11.83889246569427       23.73575548572542
H          -17.85671079553407      -11.70481316276420       23.84105728948951
H          -16.56888688119494      -12.80775491355045       23.29758769516719
H          -16.34533692940672      -11.05518340401797       23.12795824665072
S          -16.01425350222103      -11.83389410979782       25.39276497055652
H          -16.35946730015596      -10.57408881638019       25.68257310453698
