72
 energy: -105.876231937614 gnorm: 0.257874938177 xtb: 6.7.1 (edcfbbe)
Fe         -13.97000000000000      -11.43100000000000       25.15200000000000
N          -13.68000000000000      -12.44600000000000       23.40000000000000
N          -13.94000000000000       -9.71100000000000       24.10900000000000
N          -13.84600000000000      -10.39900000000000       26.89200000000000
N          -13.47900000000000      -13.13700000000000       26.18900000000000
C          -13.53400000000000      -13.82700000000000       23.24500000000000
C          -13.60500000000000      -14.16300000000000       21.85200000000000
C          -13.76300000000000      -13.02700000000000       21.19200000000000
C          -13.83400000000000      -11.93300000000000       22.11700000000000
C          -14.08700000000000       -9.56400000000000       22.72700000000000
C          -14.27500000000000       -8.17500000000000       22.42500000000000
C          -14.29100000000000       -7.48400000000000       23.57900000000000
C          -14.08000000000000       -8.43000000000000       24.63500000000000
C          -13.98900000000000       -9.02200000000000       27.04500000000000
C          -14.06700000000000       -8.69000000000000       28.44600000000000
C          -13.89900000000000       -9.85400000000000       29.10200000000000
C          -13.73100000000000      -10.92300000000000       28.15700000000000
C          -13.28400000000000      -13.25900000000000       27.54200000000000
C          -12.87800000000000      -14.62100000000000       27.81500000000000
C          -12.82400000000000      -15.30200000000000       26.65700000000000
C          -13.21000000000000      -14.37100000000000       25.61700000000000
C          -13.33900000000000      -14.69600000000000       24.27200000000000
H          -13.27800000000000      -15.75300000000000       24.01500000000000
C          -14.03400000000000      -10.58800000000000       21.81400000000000
H          -14.15900000000000      -10.32700000000000       20.76300000000000
C          -14.08000000000000       -8.13700000000000       25.99800000000000
H          -14.16200000000000       -7.08300000000000       26.26400000000000
C          -13.49900000000000      -12.25400000000000       28.45100000000000
H          -13.48600000000000      -12.53100000000000       29.50500000000000
C          -13.88000000000000      -12.85300000000000       19.67400000000000
H          -14.91800000000000      -12.55600000000000       19.41400000000000
H          -13.64200000000000      -13.81200000000000       19.16700000000000
H          -13.18200000000000      -12.06000000000000       19.33200000000000
C          -13.54400000000000      -15.61000000000000       21.28100000000000
H          -13.97100000000000      -16.31900000000000       22.02200000000000
H          -12.48800000000000      -15.89000000000000       21.08100000000000
H          -14.13600000000000      -15.66900000000000       20.34300000000000
C          -14.49600000000000       -7.61700000000000       21.00800000000000
H          -15.01100000000000       -8.37900000000000       20.38500000000000
H          -13.51700000000000       -7.37500000000000       20.54300000000000
H          -15.12900000000000       -6.70500000000000       21.05800000000000
C          -14.47500000000000       -5.95800000000000       23.72900000000000
H          -14.55700000000000       -5.35300000000000       22.81500000000000
C          -14.54500000000000       -5.29200000000000       24.88400000000000
H          -14.19300000000000       -4.25200000000000       24.95100000000000
H          -14.95500000000000       -5.77500000000000       25.78300000000000
C          -14.31700000000000       -7.27200000000000       28.99500000000000
H          -15.40900000000000       -7.10700000000000       29.11100000000000
H          -13.91200000000000       -6.51800000000000       28.28600000000000
H          -13.82800000000000       -7.16200000000000       29.98700000000000
C          -13.87800000000000      -10.17700000000000       30.60400000000000
H          -13.54800000000000      -11.16900000000000       30.94700000000000
C          -14.24800000000000       -9.29400000000000       31.52300000000000
H          -14.58600000000000       -8.28900000000000       31.22800000000000
H          -14.22200000000000       -9.55600000000000       32.59100000000000
C          -12.53700000000000      -15.10300000000000       29.23200000000000
H          -13.46400000000000      -15.14400000000000       29.84300000000000
H          -11.82400000000000      -14.39600000000000       29.70700000000000
H          -12.09100000000000      -16.11900000000000       29.18600000000000
C          -12.41600000000000      -16.78200000000000       26.45200000000000
H          -13.31600000000000      -17.42900000000000       26.52800000000000
H          -11.68900000000000      -17.08300000000000       27.23600000000000
H          -11.96400000000000      -16.91100000000000       25.44500000000000
O          -11.14600000000000      -11.56500000000000       25.32500000000000
H          -10.82300000000000      -10.71200000000000       25.03500000000000
H          -10.64900000000000      -12.25200000000000       25.59200000000000
C          -16.86600000000000      -12.66200000000000       23.88100000000000
H          -17.97300000000000      -12.69600000000000       23.79200000000000
H          -16.50700000000000      -13.69000000000000       24.09900000000000
H          -16.45300000000000      -12.33300000000000       22.90300000000000
S          -16.35100000000000      -11.53700000000000       25.18100000000000
H          -16.71300000000000      -10.43900000000000       24.53400000000000
72
 energy: -105.932141317474 gnorm: 0.109771249735 xtb: 6.7.1 (edcfbbe)
Fe         -13.83381807942642      -11.42126198002205       25.14766702449255
N          -13.69859047305122      -12.45202270729483       23.39409964577689
N          -13.96726860266232       -9.69598475577046       24.10903644919325
N          -13.84280870886730      -10.40260635046691       26.89448893912859
N          -13.48264559896121      -13.14772854820992       26.17858111928869
C          -13.54928533253106      -13.81713867031176       23.24657028699367
C          -13.61240815358045      -14.17482846605071       21.84959018385527
C          -13.77007835632016      -13.01908134371910       21.16955565047258
C          -13.83541202447408      -11.93864176606706       22.12437235644565
C          -14.08495015460792       -9.55440371986415       22.73821646815864
C          -14.29643661398676       -8.16611177615783       22.41521164852616
C          -14.32650312861748       -7.46448222261344       23.58810578052264
C          -14.09904362469143       -8.43185775013205       24.63944837203942
C          -13.99979224977705       -9.04411842150469       27.04949414127139
C          -14.06271288124986       -8.69607100787357       28.45444380246074
C          -13.90016059472728       -9.86985679402580       29.13220880763893
C          -13.74675088151857      -10.92501991560739       28.15288842249770
C          -13.29771510108031      -13.27085011137819       27.52685355460474
C          -12.87644306320649      -14.62386268837899       27.83148872406666
C          -12.82546758373378      -15.31020666868357       26.66263710909195
C          -13.22292589205768      -14.37587499500322       25.62767768034752
C          -13.34418275888566      -14.69625735946564       24.28338110107204
H          -13.26275216656659      -15.74629956201663       24.02292862104666
C          -14.02578250016190      -10.59392075284278       21.82439860303689
H          -14.15057897592466      -10.33674400886031       20.77681441114047
C          -14.08218461662953       -8.15298074761221       26.00049866177426
H          -14.14329948510169       -7.11196928088192       26.27244645299183
C          -13.50701676826945      -12.25842464277532       28.44315526584054
H          -13.47157110081698      -12.53285072881515       29.49184205975828
C          -13.88187171747299      -12.84853729053869       19.67692169574103
H          -14.90395510474435      -12.55551921047578       19.41080972296140
H          -13.64388863289208      -13.78939983184265       19.17222006451365
H          -13.19194283853918      -12.07240243338364       19.33191408499889
C          -13.54441348704568      -15.58988152197430       21.29399573278266
H          -13.96461799524924      -16.30278409617413       22.01060835460318
H          -12.50728118910820      -15.87913178655505       21.08703696943642
H          -14.12050334944969      -15.66204304714277       20.36532474268278
C          -14.49670898187206       -7.62454659298783       21.01829080345482
H          -15.00294310759134       -8.36507826318423       20.39128575046948
H          -13.53360653967198       -7.37867466023754       20.55471018218750
H          -15.11381556871434       -6.72166229936475       21.05339652732913
C          -14.46864603352850       -5.98359449380508       23.73231081736358
H          -14.47020324732643       -5.39446164637667       22.81059544282392
C          -14.55402131183672       -5.29220997786845       24.87440172108598
H          -14.26969057506432       -4.24349221881830       24.92457077668923
H          -14.91201318080044       -5.74933962588283       25.78754456795600
C          -14.30720950559307       -7.29398990841891       28.97990565335710
H          -15.38431255925497       -7.11652951546750       29.10513298653735
H          -13.91537843384600       -6.53686614219661       28.29348048831940
H          -13.82140121804608       -7.15437751667355       29.95040155358374
C          -13.87866831826192      -10.15717983929084       30.59206498778434
H          -13.55198001205446      -11.14528214487984       30.91261584074524
C          -14.25049856629262       -9.29178896457325       31.52632131226552
H          -14.60331066556245       -8.30668278777006       31.26303393442245
H          -14.22317726704266       -9.55096852633668       32.57900759441826
C          -12.54181503277388      -15.10020817775458       29.22342930217659
H          -13.45062889135152      -15.14384771159807       29.83486523195368
H          -11.83633731103936      -14.41042748621087       29.69949397446543
H          -12.09911930514659      -16.10021445944678       29.19033264799106
C          -12.42517999340021      -16.75961310459262       26.45259379921717
H          -13.30358142815394      -17.41287526536926       26.52662078556173
H          -11.70559907932808      -17.07158940586336       27.21723707114105
H          -11.97213228250002      -16.90336251283848       25.46613184616218
O          -11.20487055883091      -11.54258556908750       25.31262976110614
H          -10.82647394567290      -10.71119803624021       25.03525940951731
H          -10.66248835326138      -12.25887035682573       25.59449876911697
C          -16.86892948673006      -12.66482795019238       23.86683164204764
H          -17.96360649572998      -12.68895687933899       23.80096180533074
H          -16.50589854900970      -13.67065258446978       24.09820289431962
H          -16.45213566486999      -12.34314461163077       22.90776758175637
S          -16.31590114619985      -11.54771853242348       25.17759723482583
H          -16.70265759765402      -10.44202527149132       24.53954259126238
72
 energy: -105.953890886292 gnorm: 0.030470102565 xtb: 6.7.1 (edcfbbe)
Fe         -13.74647646846465      -11.42621381550309       25.14647062562909
N          -13.68927217401086      -12.45315049290642       23.39630463905643
N          -13.96304714386006       -9.68902087101541       24.11157532869333
N          -13.82750496852019      -10.41335019421512       26.89587078917209
N          -13.47440485902221      -13.15097738172119       26.16740665455293
C          -13.55812291914774      -13.80277083461869       23.25243440168467
C          -13.62259089934914      -14.17575351139450       21.85400589544172
C          -13.77637885918513      -13.00995919555718       21.16094734759411
C          -13.83137422353492      -11.94125105962919       22.14042707356953
C          -14.08354084262371       -9.55068667487098       22.75642737888116
C          -14.31171178599488       -8.16481672393774       22.41571141962532
C          -14.34458787898481       -7.45570638816604       23.60004034198489
C          -14.11583450567099       -8.44415452934046       24.64613221838957
C          -13.99335330542318       -9.07138212286416       27.04961452229622
C          -14.05858045014463       -8.70855347024932       28.45270949346977
C          -13.90711942517859       -9.88611652371396       29.15107975698385
C          -13.75045532895698      -10.93128361059128       28.14765654797310
C          -13.30340637848354      -13.27588111894943       27.51078482281694
C          -12.88322001729300      -14.62353637626652       27.84098658218581
C          -12.83411403033260      -15.31404996069260       26.66576745227885
C          -13.22857033137797      -14.37567838146495       25.63263412892103
C          -13.34474861936270      -14.69451775731947       24.29017862127053
H          -13.24418617139626      -15.73791185629163       24.02462157571113
C          -14.02105285301500      -10.59927727177810       21.84130656468514
H          -14.13715281661637      -10.34431850048932       20.79579562600342
C          -14.07703042914209       -8.17210498875409       26.00350054098112
H          -14.12428475263879       -7.14074379081084       26.28530464034630
C          -13.50602474165117      -12.26392658663444       28.43615931118880
H          -13.45335391042565      -12.54052943315921       29.47897939681249
C          -13.88373214244893      -12.84154344922668       19.68504374551383
H          -14.89516857178608      -12.54859510410339       19.40679229933526
H          -13.64569518421188      -13.77199444832247       19.17906931541121
H          -13.19768869833337      -12.07576805755857       19.33334952341287
C          -13.54816848436627      -15.56487359331865       21.30893160821048
H          -13.96233550767410      -16.28343137515164       22.01106330838449
H          -12.51920400197277      -15.85787269778604       21.09941905930360
H          -14.11123616055496      -15.64574187047938       20.38168823993495
C          -14.49902865965105       -7.63267052023463       21.03435682359753
H          -14.99785134147045       -8.35962909954516       20.39974332416779
H          -13.54115175776265       -7.38866295987885       20.57373843663857
H          -15.10264485736371       -6.72984529972851       21.05333416487346
C          -14.44682623719472       -6.01850464772788       23.73631536076556
H          -14.36556970410113       -5.45248035621621       22.80394522562977
C          -14.56747207856626       -5.29209071009354       24.85465744288934
H          -14.36982933068319       -4.22583864576460       24.87279162616214
H          -14.87172008651006       -5.71769044003816       25.79234892367217
C          -14.29314415401219       -7.32121591901031       28.96296130147385
H          -15.36213722352776       -7.13729515142954       29.09505119092492
H          -13.91110668138742       -6.56603925714160       28.28155526596110
H          -13.80694061736256       -7.16574921314431       29.92197048521939
C          -13.88906814280908      -10.13952160664295       30.57180326309431
H          -13.55068155678764      -11.12197041011026       30.87542431761880
C          -14.26140575759809       -9.29031997710834       31.52610983018926
H          -14.62636708777091       -8.31160426562341       31.29653859082523
H          -14.21937522181988       -9.55252129110052       32.56842237575314
C          -12.55103686140345      -15.09547262067903       29.21429536643269
H          -13.44799362609724      -15.14114513653682       29.82956829291507
H          -11.84751207594829      -14.41762807480217       29.69358808744688
H          -12.10995515575857      -16.08731489443016       29.18697569981119
C          -12.43769632642241      -16.73828167840557       26.45408591731159
H          -13.30450812259659      -17.39592776736831       26.52387208234892
H          -11.72221183994791      -17.05555685570815       27.20970598742593
H          -11.98197662709211      -16.88586071801846       25.47875329528760
O          -11.29812184245024      -11.51473074593336       25.28614148254061
H          -10.82674590227363      -10.71111531250491       25.03944555805969
H          -10.73588125826458      -12.23479952279998       25.58699148134837
C          -16.86684493445335      -12.67138867021089       23.85290902137258
H          -17.95255684892485      -12.67562008162719       23.80916627497432
H          -16.50398121865469      -13.66319334657877       24.09602903022216
H          -16.44591315743769      -12.34879525546319       22.90875122862936
S          -16.30829690237448      -11.56237718246187       25.18759584334453
H          -16.67371696236317      -10.43969834707966       24.55486660336478
72
 energy: -105.961506043271 gnorm: 0.031745848411 xtb: 6.7.1 (edcfbbe)
Fe         -13.71646885949504      -11.43768079950319       25.15181285615442
N          -13.68269670326564      -12.45212648626947       23.40505399080839
N          -13.96024955898039       -9.69695525666174       24.11781514732837
N          -13.80770216213052      -10.42996476791782       26.89865034974866
N          -13.46842593591673      -13.15113844886718       26.16462586855734
C          -13.55671850603732      -13.79634523741500       23.25898838479320
C          -13.63096009399271      -14.16711147966312       21.86136672453678
C          -13.78112184253306      -13.00163418753176       21.16710585885678
C          -13.82387315098303      -11.93803847987061       22.15244175004814
C          -14.08065517962868       -9.55546987183449       22.76812947626907
C          -14.31405745818162       -8.17390618432944       22.42591843716771
C          -14.33583037927047       -7.46539627300931       23.61130757679675
C          -14.11273207352996       -8.45823880562187       24.65469161262204
C          -13.97898393655107       -9.09190182970613       27.04699909492702
C          -14.05327657638902       -8.72363293651507       28.44329477670538
C          -13.91266960072679       -9.89672830594572       29.15142674350691
C          -13.74499412626082      -10.94345814081342       28.14965692779842
C          -13.30340153371383      -13.27761461834120       27.50641715428340
C          -12.89373406150099      -14.62398891358772       27.84134241530899
C          -12.84482554095297      -15.31411890062425       26.66674121921924
C          -13.22808014587071      -14.37601066462411       25.63185480316460
C          -13.33824917199469      -14.69523485498030       24.29044010820536
H          -13.22456097475334      -15.73504461616925       24.02076911296459
C          -14.01169211080681      -10.59993283116181       21.85107644027451
H          -14.12258835250380      -10.34586147434782       20.80655802758477
C          -14.06587582054814       -8.18618099836745       26.00820829096587
H          -14.10819790649597       -7.15725985516404       26.29863036662164
C          -13.50006810656541      -12.27302465796409       28.43841425833960
H          -13.43456881178421      -12.55462556451678       29.47783670013849
C          -13.88602106415525      -12.82951000774412       19.69179516230966
H          -14.89533738892804      -12.53268598180612       19.40505170131718
H          -13.64796390953012      -13.76050343078787       19.18463514873343
H          -13.19617463400611      -12.06586801126346       19.33864208978135
C          -13.55235317591113      -15.55212210577199       21.31877103925688
H          -13.96686567397258      -16.27255421358220       22.01971929311482
H          -12.51937635941536      -15.83781131035614       21.11461713726141
H          -14.10978326039490      -15.63108157769077       20.38752166746654
C          -14.49788414573669       -7.64057697497107       21.04667676008685
H          -14.99748072437664       -8.36404814202414       20.40697829015548
H          -13.53472915105586       -7.40236214713897       20.59168529572252
H          -15.09526565561067       -6.73211843519847       21.06012403766160
C          -14.41193280770325       -6.03146571795709       23.73307431971232
H          -14.26943876289567       -5.49335570159430       22.78894219364692
C          -14.58288344878660       -5.27411751638063       24.82534216481129
H          -14.47270170615293       -4.18725524707911       24.79967803646787
H          -14.84910159693313       -5.67841186142420       25.78707333361950
C          -14.27532675396552       -7.33732679602221       28.94376164177215
H          -15.34299105877622       -7.15404297563619       29.08841880549187
H          -13.90031853858771       -6.59115449936727       28.24795981044756
H          -13.77169274437141       -7.17602126683151       29.89351106699337
C          -13.89579378062889      -10.13383504131148       30.56964760192102
H          -13.54458952871896      -11.11367777877366       30.86660039580144
C          -14.27144305969306       -9.29574873571834       31.53531545059183
H          -14.67868933724414       -8.32352250961786       31.32983359500299
H          -14.21253620525468       -9.56941953457665       32.57393273988143
C          -12.56305147181808      -15.09458725340423       29.21332251445028
H          -13.45878674410630      -15.13914930658037       29.83177011496913
H          -11.85656433506621      -14.41830053306713       29.69269990509941
H          -12.12250152379763      -16.08737721128143       29.18408277385979
C          -12.44991097484149      -16.73354514539903       26.45347670153186
H          -13.31763504928040      -17.39112629091218       26.51775655345554
H          -11.73641468470588      -17.04905887124368       27.21215849814513
H          -11.98948613083124      -16.87340600164080       25.47875595125623
O          -11.39102830058940      -11.47385530813972       25.23300438724900
H          -10.84703433640418      -10.68897557520875       25.04135322101067
H          -10.84760811203178      -12.19285813485600       25.57862192843650
C          -16.86089626095678      -12.67344514207833       23.84834238675782
H          -17.94596560010790      -12.66270447652186       23.80947339140112
H          -16.50325751581654      -13.66658622563371       24.09186758586480
H          -16.43228225641749      -12.34742583855641       22.90856800721988
S          -16.30214312565962      -11.57835216773769       25.20218569694012
H          -16.63150042339589      -10.44002355578750       24.57567712962417
72
 energy: -105.965855662757 gnorm: 0.023143054039 xtb: 6.7.1 (edcfbbe)
Fe         -13.73144505163217      -11.45124478381196       25.15798191722384
N          -13.68146110964809      -12.44924218943579       23.41813601352925
N          -13.95948433010136       -9.70814167314193       24.12655003077908
N          -13.79104445527944      -10.44864952569259       26.89988752699944
N          -13.46128555625145      -13.14713904744839       26.16129969733514
C          -13.55484112154134      -13.79080206224532       23.26668163159396
C          -13.63705363110371      -14.15638562995380       21.86965762556414
C          -13.78421245109008      -12.99251781178101       21.17709565745016
C          -13.81989539531354      -11.93389604503497       22.16569729485681
C          -14.07879255672651       -9.56172214306785       22.77957888299391
C          -14.30319494394845       -8.18289163354049       22.43750597225570
C          -14.30639514586851       -7.47493708346792       23.62083358703201
C          -14.09677066132230       -8.46946630760385       24.66256768256723
C          -13.96097017732179       -9.11027012611625       27.04319698464043
C          -14.04561659394449       -8.74047187040010       28.43375524940383
C          -13.91727765219210       -9.90763807245396       29.14862449472999
C          -13.73814991524265      -10.95688654083161       28.15299984443316
C          -13.30180459019549      -13.27845169980489       27.50314236208810
C          -12.90473454183558      -14.62522193877684       27.83982217008907
C          -12.85546865243798      -15.31378741702440       26.66667520308143
C          -13.22585743836030      -14.37515447874143       25.63014432783824
C          -13.32985246129343      -14.69552583359251       24.29008768547860
H          -13.20210246803420      -15.73190417555525       24.01666202343706
C          -14.00552093281219      -10.59996518623888       21.86044725612117
H          -14.10533665721986      -10.34623041111581       20.81591708766443
C          -14.04902371791411       -8.19611857781164       26.01261468934457
H          -14.09552699178570       -7.16805746313794       26.30829944427569
C          -13.49216925217926      -12.28318833981628       28.44284394401062
H          -13.41576253171135      -12.57168322377155       29.47893483099640
C          -13.88783430327441      -12.81365068804228       19.70139635966876
H          -14.89535030233087      -12.51147115892961       19.41037827763821
H          -13.65127293640489      -13.74446698594739       19.19122601329047
H          -13.19353851975554      -12.05104097283153       19.35133183922919
C          -13.55569045230976      -15.54105439033442       21.32814416605068
H          -13.97395097597090      -16.26120916435963       22.02758752654189
H          -12.51862288148864      -15.82049056405494       21.13331149518642
H          -14.10618790259990      -15.61833653166317       20.39258027028689
C          -14.49077730599228       -7.64992448392778       21.05895282169372
H          -14.99639434305279       -8.37105159111826       20.42016483520625
H          -13.52446353012462       -7.41945003360848       20.60511843325291
H          -15.08266359130119       -6.73714446202032       21.07242657589887
C          -14.37748888041332       -6.03795301198248       23.72297802300704
H          -14.19044736442049       -5.53201998825628       22.77327219276899
C          -14.60900355811362       -5.25512929994879       24.78418198058118
H          -14.52997821336028       -4.18067503533117       24.72728915484611
H          -14.85990429270747       -5.62910205006565       25.76047629665969
C          -14.25435439223872       -7.35480175640170       28.93144883489533
H          -15.31913691589446       -7.16767420838603       29.08916065123622
H          -13.88503231290443       -6.61675312171453       28.22273540234006
H          -13.73515228208701       -7.19898418903610       29.87415189311939
C          -13.90667949280999      -10.13268357753985       30.56964701043819
H          -13.52733479464336      -11.10294636556683       30.86711257853085
C          -14.29845770157500       -9.30482958860982       31.53753484501820
H          -14.71894116120345       -8.33340121513537       31.35026874217018
H          -14.21035022881974       -9.58281510298541       32.57486448196899
C          -12.57895136943806      -15.09620565189565       29.21346318736295
H          -13.47507516868327      -15.13744328956935       29.83261556009433
H          -11.86948576952169      -14.42153650275601       29.69265909282528
H          -12.14100931539183      -16.09086350791012       29.18415000711488
C          -12.46432744603934      -16.73328933275078       26.45167245466256
H          -13.33431154106387      -17.38889333060908       26.50752898266810
H          -11.75573575893563      -17.05035422234217       27.21463972053472
H          -11.99757373395611      -16.86651137110819       25.47854492830055
O          -11.46928337149060      -11.42957243964316       25.16831950634296
H          -10.91188453479580      -10.65449239332691       25.02871539797264
H          -10.92090002385207      -12.11980361362974       25.57333825981273
C          -16.85492969904843      -12.67465858371432       23.84750132324249
H          -17.93875465261484      -12.65102296420554       23.79975348113153
H          -16.50632821010879      -13.67270964383295       24.08575599107724
H          -16.41143601319970      -12.34177615940593       22.91579848021343
S          -16.30884010342413      -11.59983792739264       25.22715663929995
H          -16.58311366832486      -10.44437823669241       24.60300516800095
72
 energy: -105.967824361530 gnorm: 0.028215265543 xtb: 6.7.1 (edcfbbe)
Fe         -13.74797741502168      -11.45878201296093       25.16278248527635
N          -13.69460693907607      -12.44933404795056       23.42961320739619
N          -13.96558587759507       -9.71913880855722       24.13384748516297
N          -13.78811335752734      -10.46090381094729       26.90137244081053
N          -13.46070130966629      -13.14606047244225       26.16127909805696
C          -13.55822823796042      -13.79104758848118       23.27257502239054
C          -13.63957157458053      -14.15028887564586       21.87533239825363
C          -13.78625633357610      -12.98827388743697       21.18684720420624
C          -13.82663131201852      -11.93317513830246       22.17503153988751
C          -14.08207454257083       -9.56920874394637       22.78588654548437
C          -14.28485083741453       -8.19023141721879       22.44492671136401
C          -14.26808527791550       -7.48321521028985       23.62435988050632
C          -14.07862988329287       -8.47508802937798       24.66703061723149
C          -13.95042324167151       -9.11859560136189       27.04126544109427
C          -14.03806637183791       -8.75124279467681       28.42972266543181
C          -13.91779623772202       -9.91415950335895       29.14587764431522
C          -13.73713709964110      -10.96653340254698       28.15794449040623
C          -13.30228755704848      -13.28076934906661       27.50403578788985
C          -12.91355200033421      -14.62958729992346       27.83815293418483