78
 energy: -116.057379461027 gnorm: 0.000075966842 xtb: 6.7.1 (edcfbbe)
Fe          38.57255426071005       39.89502476836576       69.84803588466103
N           37.07178558076397       38.58356992709042       70.14695109184734
N           38.43807274803697       40.48037057781410       71.74861529301744
N           40.08491176883634       41.15798064532661       69.54487162461480
N           38.74980067381447       39.23164807437818       67.95571691929204
C           36.52275079793423       37.74096541261668       69.23055413947966
C           35.42175150181666       37.00463511628475       69.80889038602808
C           35.31257631874630       37.42785656206976       71.09750978985396
C           36.34980737401688       38.41549776777926       71.28949296183652
C           37.55735169973394       40.03388720573540       72.68441492149746
C           37.77485380222070       40.69228893677046       73.94660455868367
C           38.83302756518141       41.53924549733167       73.76244074364131
C           39.21472333597087       41.40374590330321       72.36938296742920
C           40.58139962048418       42.05421137756111       70.43915569420879
C           41.62088842318524       42.85454652709246       69.84145537019000
C           41.75202424364869       42.41302616721797       68.55199287381153
C           40.78012890437911       41.34689725500831       68.39555507983594
C           39.63028058029037       39.67339191780101       67.01703422820441
C           39.43357840297259       38.97871509973373       65.76489733354599
C           38.40482857542806       38.11143800280577       65.96661871149725
C           37.98625599841815       38.28900784069094       67.33873089934086
C           36.94754373238430       37.58929578692068       67.92339192661885
H           36.41943879734859       36.87690975815671       67.30850752793974
C           36.57238179426122       39.08225028449719       72.47843693390035
H           35.93071120408371       38.84202724064964       73.31268167702845
C           40.17770650313160       42.17924448472920       71.75561552268611
H           40.64817510633753       42.94417725433913       72.35337478780488
C           40.57897303625548       40.65962419324911       67.21202486835362
H           41.19853646622102       40.92282382501209       66.36833666780808
C           34.35078292217563       37.00275157219313       72.15384254438487
H           33.66877398695139       36.24584923418185       71.77439288524209
H           33.76144202944920       37.85155306582170       72.50210774889796
H           34.88170115869026       36.58720889316455       73.01066033818159
C           34.60843372891571       35.99383847149524       69.07543216240245
H           35.23741258578394       35.17433439337500       68.72652485245972
H           34.12969501658300       36.44510075001806       68.20607436736614
H           33.83393376546548       35.58070498144057       69.71698170857456
C           37.00966197148908       40.42351243786810       75.19659493626970
H           37.15444809165955       39.39242760541597       75.52072592427163
H           35.94193420040087       40.57939392232718       75.03777637929208
H           37.34221720629130       41.08046786519748       75.99624746474109
C           39.45436421245562       42.38502618119401       74.76149450723560
H           38.77159430221207       42.85381444570205       75.46263481041389
C           40.75995018692916       42.58369006583703       74.90057827867963
H           41.48061770486960       42.09597503172334       74.26649112113360
H           41.15466969887123       43.22147894252462       75.67425717643151
C           42.42346169195586       43.88753025929245       70.55182630346748
H           42.63521684374151       43.57561641886170       71.57314108162960
H           41.88578374761272       44.83620170024068       70.59468321379214
H           43.36665091298946       44.04938954726903       70.03388154324392
C           42.66683235203717       42.85218074954793       67.52174798883694
H           43.01092013165101       42.08164688027558       66.84126876396189
C           43.09689546978873       44.09833677585588       67.35163510392924
H           42.75325876234118       44.91165944357534       67.96662069808467
H           43.79300802184332       44.35237712632131       66.56939488283420
C           40.24070625079977       39.21828796996712       64.53529316208092
H           41.29671026758908       39.02527306252077       64.72596432064798
H           40.14106839132997       40.25312425485485       64.20665088541546
H           39.91501385706803       38.56957059433511       63.72586658292904
C           37.78193294546746       37.14789700011548       65.01547985451602
H           38.27482781615659       37.18684554998683       64.04720948366959
H           36.72617953447934       37.37954094274922       64.87243231005600
H           37.85520267545600       36.12901553050043       65.39684645907485
O           40.00139720207406       38.18980032371213       70.41186606664245
H           39.35861970491887       37.53294188488928       70.70090499512918
H           40.30052459364216       37.92710713286627       69.53447794458573
C           35.84782159573223       43.94552307413735       67.15584144935727
H           35.72272290141996       44.90536460626745       67.65677532970302
H           34.90488274628176       43.68703961834414       66.67400606058968
H           36.61222228928285       44.04863801089429       66.39215569918119
N           35.48250078776208       42.55312413809495       69.20522493928391
H           34.59663961617608       42.96391300493683       69.45033892030236
C           36.25155217749293       42.89442307120090       68.12365063042941
C           36.13004607339039       41.57357498737372       69.87564030915590
H           35.76056360483872       41.11051614002612       70.76727058213231
N           37.26117585193063       41.27401608453725       69.28444579961838
C           37.35074402793637       42.08743790712447       68.19310827498133
H           38.19346556899767       42.03865493952457       67.53524177008819
