77
 energy: -118.995433659864 gnorm: 0.000068298671 xtb: 6.7.1 (edcfbbe)
Fe          35.41835256671702        4.32200246452298       10.42592710757030
N           37.25457382444954        3.86236561702993        9.71237125081908
N           35.06040434851622        5.46126458890681        8.79265094829564
N           33.50905086405405        4.60911736606738       11.01994247346769
N           35.71305292109741        3.01225375943272       11.93509705792712
C           38.18619010109563        3.06671768360201       10.29871911257747
C           39.40135267904566        3.05372456960932        9.51414837521107
C           39.17811043067033        3.86844855201188        8.44709520856217
C           37.82749966334178        4.36737528803592        8.58977671311087
C           35.94096728844988        5.73477320512820        7.79550110911448
C           35.35565820873529        6.64305091305366        6.84091416170277
C           34.09262776709240        6.91927070435678        7.29419386110301
C           33.92986257750807        6.16059045792592        8.51942889372615
C           32.59276769881077        5.43936019884092       10.45542951613690
C           31.38095752440301        5.45781577307868       11.23707182382446
C           31.59680748342663        4.62375095480771       12.30216232964537
C           32.94121585708833        4.10298689796054       12.14045517856810
C           34.83497572159075        2.74588766824102       12.93442874672105
C           35.43443900443727        1.85552130948291       13.90570919290964
C           36.69613639388824        1.60026902175308       13.46533864299187
C           36.85539202281316        2.34252861694560       12.23297931448484
C           38.01187131434370        2.35359236407369       11.47295222960015
H           38.84803280747335        1.77130868259376       11.83003733127954
C           37.22649851077616        5.23011183366832        7.69382696979269
H           37.81779193241296        5.55202363992740        6.85014401982819
C           32.78244693000589        6.16844554402035        9.29268002244851
H           31.97169340182688        6.80424912361863        8.97020879843339
C           33.54748039374520        3.23829070334720       13.03381375137605
H           32.97734795095518        2.94616209826418       13.90239560621368
C           40.09057500749287        4.22382631378457        7.32425512475565
H           41.04671012184435        3.71725732120469        7.42755186878152
H           40.27178019326642        5.29821097058047        7.30760295834817
H           39.65195824570561        3.93916650695799        6.36768467515282
C           40.62508073132511        2.28443687874458        9.87559857284968
H           40.40367372718445        1.21949452627338        9.94985287818132
H           41.01139143890529        2.61738459789050       10.83862116979314
H           41.40293818079154        2.42170999875037        9.12898115159861
C           36.01024520112100        7.10703673724512        5.58725686254999
H           36.58392724454492        6.30193188346359        5.13086797404899
H           36.69149880100426        7.93422689364371        5.79068580209911
H           35.25906662008639        7.44683762441590        4.87731526094533
C           33.07379153297570        7.76278403544609        6.70603566828386
H           32.05174898016642        7.42965585282791        6.84442014953352
C           33.30084134485523        8.88858726244170        6.03823326153608
H           34.29082024176192        9.29133883075341        5.91602280480812
H           32.49443251888619        9.46524860449004        5.61684164149151
C           30.14519960600053        6.20709801286541       10.88254604367931
H           29.97494975168645        6.18725221765763        9.80712432577622
H           30.22583835181781        7.24983151150460       11.19201849633114
H           29.28482713844868        5.76562762735399       11.38128611939251
C           30.70054405003603        4.26897428374452       13.38170074108858
H           30.79316302178833        3.25485127220984       13.75265120752177
C           29.80719301751008        5.08093256248009       13.93643817274096
H           29.71005721531817        6.11105185020209       13.64236023189973
H           29.16260330817772        4.74814621157233       14.73286409022663
C           34.74451182073161        1.36402541703793       15.13062259714753
H           33.83522462864732        0.82228081523571       14.86931428579948
H           34.46847380366712        2.20239064735447       15.76941787484147
H           35.38997992442854        0.69841432611071       15.69810073944311
C           37.75976539740356        0.75722165876330       14.07959923863405
H           38.08512849998016       -0.01939186381276       13.38691471428555
H           37.39862225021598        0.27917295004080       14.98643000322261
H           38.62578535541958        1.36735736697456       14.33510370832843
C           32.36979801531566        0.67742217974750        6.96453304844892
H           31.87247869873120       -0.17062688857018        7.43520583527643
H           32.82574283427214        0.33271746590471        6.03650937260859
H           31.62422329889794        1.42994166035294        6.72752644357030
N           34.46457176407817        0.53683531455490        8.33062672733617
H           34.66268906816135       -0.42565315274696        8.10969167675379
C           33.39221198379297        1.25752918069637        7.87049440681387
C           35.19241038773158        1.35075522115883        9.12556701318210
H           36.09214613245005        1.05543144314578        9.62577475854486
N           34.65103941266729        2.53780268136372        9.19767968248010
C           33.53093840475742        2.49894383330537        8.42400717267899
H           32.90505697507541        3.36081500542922        8.31797901846491
O           36.02857266931776        5.64115957506435       11.25609208034175
O           35.66421489279939        5.81929517407900       12.47059260091684
