77
 energy: -118.865117533543 gnorm: 0.317772059779 xtb: 6.7.1 (edcfbbe)
Fe          35.31900000000000        4.15000000000000       10.35900000000000
N           37.16100000000000        3.85400000000000        9.77500000000000
N           35.05000000000000        5.37700000000000        8.78500000000000
N           33.43400000000000        4.48800000000000       10.95900000000000
N           35.64800000000000        2.93200000000000       11.83200000000000
C           38.15000000000000        3.02300000000000       10.33200000000000
C           39.42300000000000        3.05900000000000        9.53900000000000
C           39.16600000000000        3.87900000000000        8.47800000000000
C           37.76899999999999        4.34900000000000        8.61800000000000
C           35.93700000000000        5.72100000000000        7.80000000000000
C           35.38900000000000        6.73100000000000        6.79000000000000
C           34.10400000000000        6.95000000000000        7.24300000000000
C           33.93500000000000        6.12600000000000        8.45800000000000
C           32.57200000000000        5.44300000000000       10.47100000000000
C           31.38600000000000        5.59100000000000       11.31900000000000
C           31.52200000000000        4.68900000000000       12.36700000000000
C           32.80600000000000        3.99100000000000       12.09600000000000
C           34.69900000000000        2.61000000000000       12.86900000000000
C           35.24600000000000        1.65400000000000       13.80300000000000
C           36.54699999999999        1.52100000000000       13.37700000000000
C           36.75600000000000        2.23100000000000       12.17700000000000
C           37.94800000000000        2.22800000000000       11.46500000000000
H           38.75800000000000        1.58100000000000       11.80200000000000
C           37.21999999999999        5.19400000000000        7.73500000000000
H           37.83700000000000        5.49500000000000        6.88800000000000
C           32.78300000000000        6.16900000000000        9.27200000000000
H           31.97600000000000        6.82500000000000        8.94700000000000
C           33.43700000000000        3.14800000000000       12.98900000000000
H           32.87700000000000        2.88000000000000       13.88400000000000
C           40.07200000000000        4.32300000000000        7.32800000000000
H           41.07600000000000        3.86400000000000        7.44900000000000
H           40.17800000000000        5.42900000000000        7.33900000000000
H           39.63900000000000        3.99300000000000        6.36000000000000
C           40.71200000000000        2.23600000000000        9.74300000000000
H           40.72899999999999        1.38900000000000        9.02400000000000
H           40.73900000000000        1.83100000000000       10.77700000000000
H           41.60000000000000        2.87900000000000        9.56300000000000
C           36.01800000000000        7.25400000000000        5.48300000000000
H           36.80300000000000        6.54600000000000        5.14000000000000
H           36.48199999999999        8.24800000000000        5.66100000000000
H           35.23700000000000        7.33500000000000        4.69700000000000
C           33.13600000000000        7.87700000000000        6.72900000000000
H           32.08600000000000        7.55400000000000        6.73400000000000
C           33.37200000000000        9.24400000000000        6.18000000000000
H           34.39000000000000        9.65800000000000        6.13200000000000
H           32.53100000000000        9.85300000000000        5.81700000000000
C           30.24900000000000        6.57400000000000       10.97300000000000
H           29.93700000000000        6.42300000000000        9.91700000000000
H           30.60500000000000        7.61900000000000       11.09800000000000
H           29.37700000000000        6.38800000000000       11.63600000000000
C           30.75200000000000        4.44900000000000       13.52900000000000
H           30.96200000000000        3.52700000000000       14.08800000000000
C           29.71400000000000        5.27200000000000       14.07900000000000
H           29.43200000000000        6.21600000000000       13.59000000000000
H           29.18800000000000        4.96900000000000       14.99600000000000
C           34.60099999999999        1.08600000000000       15.05000000000000
H           33.58300000000000        0.71500000000000       14.80500000000000
H           34.51900000000000        1.87800000000000       15.82400000000000
H           35.20900000000000        0.24000000000000       15.43500000000000
C           37.64299999999999        0.84700000000000       14.17400000000000
H           37.79400000000000       -0.18700000000000       13.79600000000000
H           37.35400000000000        0.80100000000000       15.24600000000000
H           38.59200000000000        1.41400000000000       14.06100000000000
C           32.37500000000000        0.04000000000000        7.55100000000000
H           32.22200000000000       -0.71400000000000        8.35200000000000
H           32.60200000000000       -0.48600000000000        6.60000000000000
H           31.44700000000000        0.64100000000000        7.44000000000000
N           34.93600000000000        0.80200000000000        7.63300000000000
H           35.32200000000000        0.10800000000000        7.02500000000000
C           33.55700000000000        0.96700000000000        7.93200000000000
C           35.59900000000000        1.73600000000000        8.30900000000000
H           36.68100000000000        1.85900000000000        8.30500000000000
N           34.73100000000000        2.44600000000000        8.95100000000000
C           33.37300000000000        2.03200000000000        8.76800000000000
H           32.51600000000000        2.50800000000000        9.21900000000000
O           36.03100000000000        5.57900000000000       11.22900000000000
O           35.47400000000000        5.75900000000000       12.29400000000000
77
 energy: -118.953268056771 gnorm: 0.152211135633 xtb: 6.7.1 (edcfbbe)
Fe          35.34831402540484        4.18193121625727       10.35245844610267
N           37.19821820603197        3.82927915745417        9.75281690865117
N           35.03504582420976        5.40252582305379        8.74403887790077
N           33.42123259486731        4.50167937102412       10.96281887173254
N           35.62429052432991        2.92037361111775       11.84236294761247
C           38.16114787599576        3.01520976340830       10.32344770112460
C           39.41042462027969        3.04884640472306        9.53066018135088
C           39.16311119789507        3.87859757806892        8.48005378243767
C           37.78649831722230        4.35163767191566        8.62282047119982
C           35.93311913456409        5.72848544070732        7.77395316800439
C           35.38227349344250        6.71414976824202        6.80363145858821
C           34.10701227610835        6.97648040036897        7.25732947607591
C           33.91397209075738        6.14008296115234        8.45915727602426
C           32.56643947973863        5.44293190103016       10.45828216436257
C           31.39072447351949        5.59447260158974       11.30476096173483
C           31.52831153586063        4.70580849976318       12.35893925817094
C           32.81537183811703        4.02503941990594       12.10362434530824
C           34.69310600069490        2.60348011125644       12.85287956658452
C           35.26028461491142        1.67685261556391       13.80294308891539
C           36.55795292745372        1.51631768987785       13.39320511436515
C           36.75225070985983        2.23848167174880       12.17852245656642
C           37.94756292250934        2.24114725046791       11.45581198961819
H           38.75082231648592        1.59601122595444       11.79746937885047
C           37.21821157210259        5.20576532219117        7.71887734618440
H           37.83504703530215        5.50496270314274        6.88198905630441
C           32.77910665456824        6.16544173343331        9.27038147149304
H           31.98046421417179        6.82571802949297        8.95460790815249
C           33.43026104600014        3.14637687309040       12.97846117708012
H           32.88027236178604        2.87632164186108       13.87430042043525
C           40.06392201705101        4.31343507634377        7.34512274148415
H           41.05967068006134        3.86809252795726        7.44943980053263
H           40.17396898907792        5.40641714033255        7.34032600154116
H           39.64608075882028        3.99969968016880        6.37869218954760
C           40.68551926819354        2.24740021343646        9.74766220417947
H           40.72350087631242        1.40683558051444        9.03897912847450
H           40.73750101716637        1.84060182965285       10.76309048425039
H           41.57331361112448        2.87006125800507        9.57093600186018
C           36.01299978682275        7.23460403726601        5.51787104811511
H           36.79113501854383        6.55322351312217        5.15115148659604
H           36.47245504247248        8.22265469788228        5.66605724375429
H           35.25007841965461        7.33374615823081        4.73071495353492
C           33.14304265953415        7.91486085663198        6.71776909060868
H           32.10247443752773        7.58183065518397        6.73642217867776
C           33.37114698354154        9.17813495784706        6.19603431463616
H           34.36388401493971        9.62068398320150        6.14738011268252
H           32.55174763443325        9.80342248008144        5.83941781281851
C           30.26524983208707        6.55840223099647       10.97622775727556
H           29.94516686737520        6.42401010158955        9.93439700729801
H           30.60144581749050        7.59699457948742       11.09875383179064
H           29.39652118916937        6.38803088818878       11.62110389803115
C           30.72869416778570        4.46561795814831       13.52696183859616
H           30.95249927906201        3.55106149404518       14.08140775996119
C           29.73886888369194        5.24951863650561       14.05501049515446
H           29.44995701605740        6.19227932877847       13.60195547276242
H           29.21447768966492        4.96476501928199       14.96501924694870
C           34.60596221240679        1.09814374792350       15.03070409651064
H           33.59873950190917        0.72373329993482       14.80522668094959
H           34.51969210870357        1.86581621502964       15.81132398387993
H           35.19709021893681        0.26107366081724       15.42468010791921
C           37.64510972924759        0.83746250073401       14.17034103514383
H           37.80131195633348       -0.18440225251842       13.80384494548942
H           37.36679111287966        0.79839981752121       15.22916410051695
H           38.58002265052396        1.40012191375596       14.06761620447488
C           32.39445181579514        0.03737458687072        7.54092072688270
H           32.23047490298976       -0.70288835103282        8.33511704386444
H           32.59684126087060       -0.48634477998034        6.60305222577100
H           31.47695787252673        0.63019583814020        7.43981915366180
N           34.89554032781836        0.78861067981618        7.63740299148520
H           35.29395259976557        0.09599276941817        7.02493406904444
C           33.54057971356009        0.95032367982634        7.92969616109330
C           35.56380448868543        1.74331337914649        8.31700792418245
H           36.64129978883256        1.85866171178871        8.30428094779587
N           34.72617857178022        2.48062134014858        8.98384154551021
C           33.42125492679437        2.02278553035949        8.76172706213049
H           32.56447007337580        2.49830165281005        9.20899255585896
O           36.01681995741454        5.56788739888982       11.23251160776541
O           35.46848236699739        5.78402231985650       12.33928545802513
77
 energy: -118.980136341046 gnorm: 0.065216971452 xtb: 6.7.1 (edcfbbe)
Fe          35.36578143704318        4.21312093452204       10.35962560345392
N           37.22983693323950        3.82189778886254        9.73128274611655
N           35.02537060792861        5.42866722083517        8.71422296954865
N           33.40443896748796        4.52157067487834       10.96792545903118
N           35.60364301728553        2.90124440961469       11.85440255794524
C           38.16574931358288        3.01043419641987       10.30546474877377
C           39.39779232012908        3.04095349314580        9.52148468579554
C           39.15942164921828        3.88443218602982        8.47830605993386
C           37.79788293517865        4.35749374432162        8.62089052831174
C           35.92793994404092        5.73444715679059        7.74964892299094
C           35.37633105171820        6.69749827661154        6.81512055707523
C           34.11110603880105        6.98744361114150        7.26843467971631
C           33.90538739224052        6.16066609018169        8.46594138190730
C           32.55917107793047        5.44833921056329       10.44557037905033
C           31.38995737464358        5.59622857301131       11.28953108203956
C           31.54364235788942        4.72543149512466       12.34802774313455
C           32.82748362982313        4.05987177776784       12.10937437576044
C           34.69298093379063        2.60237051048779       12.83629760293151
C           35.27467595121576        1.69730490413558       13.80031446291529
C           36.57011270206821        1.51541236265246       13.40799634826370
C           36.75110590741837        2.24535309698798       12.17851521114722
C           37.94110211415095        2.25571654000967       11.44436493782081
H           38.74220447323550        1.61949650777968       11.79722623411732
C           37.21268168583075        5.21349357594860        7.70202359814521
H           37.83406323819838        5.51815454932786        6.87653585811065
C           32.77584441458281        6.16943957968096        9.26915114646859
H           31.98153490174925        6.83293689910485        8.96023240899293
C           33.42609869424914        3.14647004905339       12.96549409968882
H           32.88140888238387        2.86839375284901       13.85793946105893
C           40.06035713946340        4.30397876533069        7.35980089716862
H           41.04848765379416        3.86375776783483        7.45956517997726
H           40.16952607369014        5.38899361408231        7.34769038788638
H           39.64833318167842        3.99927567914669        6.39623496643902
C           40.65741809650708        2.25675801538419        9.75107849425529
H           40.71082356604995        1.41892160297611        9.05024646343237
H           40.71986391957987        1.85512272696169       10.75781811844793
H           41.54031458738244        2.87395277811530        9.57853454742417
C           36.00672347470709        7.21726678778317        5.55236666228104
H           36.77866488362687        6.54772047464739        5.17724342447480
H           36.46337660891760        8.19927623467021        5.69296818087684
H           35.25069858286603        7.32820892342971        4.77008280316446
C           33.14558100777128        7.93642378985876        6.71384658293823
H           32.11410826695382        7.58920976445329        6.74764028584471
C           33.37321506886268        9.12281132381340        6.22817311503706
H           34.35089014855190        9.57810362658171        6.16152946122584
H           32.57409146838671        9.75211399403787        5.85193331623911
C           30.27671717741725        6.54299502118856       10.97563712904494
H           29.95466715977645        6.42169679114190        9.94101268391693
H           30.60516970271909        7.57591134046241       11.10271537061850
H           29.41511395746249        6.37670392126888       11.61382690097270
C           30.72116523435875        4.48165116733141       13.52210143907920
H           30.95318290795140        3.56417925122473       14.05844344484635
C           29.76620574701264        5.23795167437760       14.03219395497298
H           29.46369002862315        6.17985717813215       13.60759891068980
H           29.23577602417543        4.95683364966249       14.93092709581962
C           34.61048514535561        1.11451031653832       15.01170216440041
H           33.61197133127787        0.74004589679001       14.78901498291338
H           34.51990285758282        1.86571576309339       15.79788480671046
H           35.19331256122928        0.28297356558245       15.40680540931307
C           37.64974606128614        0.82804399933320       14.16781235521963
H           37.80925245304180       -0.18595790079789       13.80628349154715
H           37.38073461352823        0.78795769042289       15.21951052142501
H           38.57763914331747        1.38557213550444       14.07208678986739
C           32.41207613095010        0.04049962984154        7.53505287786175
H           32.24129698804258       -0.69959407082909        8.31829449896285
H           32.60696836177029       -0.47942746204908        6.60389698944696
H           31.49838107385782        0.62258489635378        7.43465864400383
N           34.85771226709925        0.77699594798699        7.64793329803455
H           35.26553623160660        0.08745434508763        7.03448146098300
C           33.52487884674965        0.94096795105718        7.93580135176296
C           35.53331955571993        1.74213411264487        8.31839962429498
H           36.60332587806758        1.85099199930429        8.29406478239212
N           34.71984362311464        2.50246314415753        9.00051251633533
C           33.46355893698648        2.02170559050799        8.76740174197410
H           32.60542942531187        2.49283330427138        9.20945508500987
O           35.99502734781800        5.54341345218009       11.22868920624125
O           35.47268955094540        5.80415666128045       12.36770173397973
77
 energy: -118.937242276935 gnorm: 0.289318626189 xtb: 6.7.1 (edcfbbe)
Fe          35.40237141930979        4.29689946022923       10.42282901059390
N           37.25601694621729        3.82875430720654        9.71622574646354
N           35.01539785531221        5.37238748796121        8.65788264259812
N           33.41766704669621        4.59777678542842       11.03395060573075
N           35.59262128130912        2.91961917076208       11.89322626291537
C           38.15925192753350        3.02060410533546       10.29138391138456
C           39.35547175691377        3.02789304114537        9.50088887200957
C           39.14009543282405        3.87368261145458        8.46097305854721
C           37.80509878472837        4.34476620383390        8.61432751418928
C           35.92184476382880        5.65789775228832        7.69934569149518
C           35.39138592658318        6.60972706707790        6.82343052298005
C           34.16144652772326        6.97384613942129        7.30132706930100
C           33.91248583402069        6.12471322154944        8.46576447544967
C           32.56283787538726        5.46789794374229       10.45329720001189
C           31.36425485672186        5.57065468730030       11.25555447601905
C           31.53672536270621        4.72324088794226       12.32435572638314
C           32.85979115003155        4.13763733749812       12.15991912173807
C           34.69967247563586        2.62459880529016       12.83176607340970
C           35.28194115705181        1.69181887573328       13.75892465439823
C           36.57123264850532        1.48484024594461       13.38816221456965
C           36.74903896474654        2.26256671298659       12.17467140745876
C           37.93267781354504        2.28964344866618       11.43596376782457
H           38.73183608491440        1.66086113028143       11.79327409903344
C           37.21631891953222        5.18686810645604        7.67155499386134
H           37.89179413193417        5.59159376556419        6.92654683640800
C           32.79816166991100        6.15743683249170        9.27305197546769
H           32.02503510397023        6.83595695001558        8.95866362177569
C           33.43604903612056        3.17993119307854       12.99013669419602
H           32.87352257384616        2.82791259443944       13.84575339491245
C           40.04693767060746        4.28679363029169        7.37036968079506
H           41.02737834278523        3.85644322337581        7.47926722038099
H           40.14157366460120        5.36419034885741        7.37966732392043
H           39.66096969724628        4.00705470868793        6.39455963760480
C           40.58824498791551        2.28033899159646        9.74324801031534
H           40.65282276952851        1.45429473519234        9.03955197691685
H           40.64076145743255        1.90228283418063       10.74810198050297
H           41.42582086920601        2.94374328145271        9.56821455565524
C           35.99946393593694        7.15899733830203        5.60212715827496
H           36.79168789474129        6.55297832267268        5.16769535024962
H           36.39386941444648        8.14548957586300        5.81763625474925
H           35.20988921420037        7.28032586254968        4.86605844711849
C           33.22875279222495        7.97845334348524        6.75781081403145
H           32.22775654856336        7.56427760668666        6.71598162971037
C           33.40100905418191        9.11031681777932        6.31489345414237
H           34.33583373527808        9.63839437293500        6.09699491392588
H           32.56924666131357        9.64002256453648        5.87182029252435
C           30.27295195073672        6.51650816743846       10.96626270898131
H           29.91653452066246        6.45107390546053        9.94144744257208
H           30.64623270650245        7.52251068416629       11.11467359191802
H           29.42111464126551        6.38613030747730       11.61064848598242
C           30.67440167456305        4.44944647519397       13.48648192343494
H           31.01393576013646        3.59574938401806       14.07883030275911
C           29.74096895549942        5.17479978460176       13.95542947784006
H           29.54039693091356        6.18283473769163       13.62347510325422
H           29.27357732989707        4.96990048572387       14.90581467933352
C           34.62406921647850        1.12947188843031       14.95824331228700
H           33.63058494818976        0.75238838972848       14.75730275535192
H           34.55989288928049        1.91521997420347       15.69910890389483
H           35.21959499449656        0.32323279628256       15.36351061944737
C           37.63935560507302        0.81367052413678       14.14600081155252
H           37.83213574125795       -0.20354565207163       13.82960764450328
H           37.35025770397960        0.81534520456953       15.18357660906811
H           38.54129104950717        1.39443286681246       14.04807446709917
C           32.42195291086276        0.01725660935458        7.53482417605536
H           32.19147086710775       -0.73650594904364        8.28578520750963
H           32.57292631326198       -0.50277431181798        6.60344757445030
H           31.53412672878195        0.62243958951793        7.44252178822030
N           34.82997762026906        0.75737715126348        7.65021747921607
H           35.25043405894345        0.10989173488291        6.99241610847361
C           33.51934072004079        0.89249951840811        7.95513748352264
C           35.50949071146824        1.72530133789350        8.32887632523372
H           36.56824632604741        1.85574386060541        8.25931589025428
N           34.72024311506649        2.49735207652499        9.04295770381375
C           33.51477012144298        1.99939000675036        8.76507170045027
H           32.64214951003277        2.50922215206545        9.12855877707988
O           35.97103140787926        5.57658357459351       11.29872943861572
O           35.48447893258545        5.89062829556798       12.47650116588030
77
 energy: -118.977625059082 gnorm: 0.042931921796 xtb: 6.7.1 (edcfbbe)
Fe          35.38655160503266        4.27451616569662       10.40858563793892
N           37.23144931048531        3.83537254958744        9.71904851172284
N           35.02160840930954        5.37683526973094        8.69065072852829
N           33.42940003949010        4.58481326570743       11.01269248145894
N           35.60506103768556        2.92350151332604       11.86985089244343
C           38.15190012782197        3.02004551783259       10.29216202675891
C           39.36144324590844        3.03060204566780        9.50223195120369
C           39.14348615347789        3.87412435082551        8.46126135757175
C           37.79863402165372        4.35462042248636        8.60828048336121
C           35.92279313245174        5.66979209380449        7.72226029122314
C           35.38169161235444        6.63611856362658        6.82189549627987
C           34.14454316914361        6.96414715947496        7.29990683698458
C           33.91844151123593        6.13287343006933        8.47254426808931
C           32.56539877450872        5.46506383877582       10.45059918889027
C           31.37374227623329        5.57599154395403       11.26346001763381
C           31.54520132302949        4.72444455244024       12.32880742427073
C           32.85678861395656        4.11621539494521       12.14243159138469
C           34.69739814102110        2.62068797039779       12.83143908110177
C           35.28013973771025        1.69490430496114       13.76770670874568
C           36.57101626027548        1.50047095306266       13.38471704802769
C           36.75183273637036        2.26143532163336       12.17215413551373
C           37.93311666226713        2.28303612604775       11.43928366205999
H           38.73732663016918        1.65885713653397       11.79686047785139
C           37.21794145840185        5.19646508631702        7.68004981579139
H           37.87400107462155        5.57853841313502        6.90921146646205
C           32.79059186501208        6.16646758307353        9.27218578297381
H           32.01155998545050        6.84343970405680        8.95925646010566
C           33.43575852409564        3.17308049903524       12.97966101541230
H           32.87301400035105        2.83672541815206       13.84078179224902
C           40.05427996788013        4.29061063818493        7.36489012948716
H           41.03717308938432        3.85048608884316        7.48069975826223
H           40.15217240675149        5.37303528106986        7.37458277219871
H           39.65792452677798        4.00065825395660        6.39279825035779
C           40.60526775345872        2.27177388238658        9.74730383821988
H           40.66533294533473        1.44087975981225        9.04429514858024
H           40.65043915152530        1.89214671122655       10.75924621349590
H           41.45040179319943        2.93236553939021        9.57423943032597
C           36.00101505054348        7.17548255199678        5.59012830001493
H           36.78685533312655        6.54336985490721        5.18129057935070
H           36.41463830296882        8.15812915084021        5.80169664310180
H           35.21492853922584        7.29242516208369        4.84693473503728
C           33.19562727537847        7.92212339350202        6.75976934740486
H           32.18219355919990        7.55066587924185        6.74477792189428
C           33.40344983620513        9.13686047038253        6.25628012292172
H           34.35422892822466        9.62769826061449        6.12942461639037
H           32.56465047948485        9.68249792533683        5.86303001448314
C           30.27059983747566        6.52408286448770       10.96414246705101
H           29.92750699566090        6.44141413345550        9.93354720459113
H           30.63926130282512        7.53693638681479       11.11319472065168
H           29.41750755166521        6.37402667207558       11.61267293779761
C           30.71347725751130        4.45404884401895       13.48841414606224
H           31.00169679494515        3.57637795472202       14.05755666051145
C           29.74876185199131        5.21147685161169       13.98661564531661
H           29.51588832211442        6.18926408131626       13.60936227538634
H           29.25672584705409        4.95811923957322       14.90842987836403
C           34.62034889461957        1.13185889576207       14.97131803338712
H           33.62435595829782        0.75607741011176       14.75367875319333
H           34.54633670747297        1.91256490460631       15.72364521044846
H           35.21555875895027        0.31657635122739       15.37076736978289
C           37.64397811662810        0.81563756407996       14.14903519253911
H           37.82846846323918       -0.20531549201561       13.81937378599724
H           37.36283579979748        0.80071438120788       15.19594599982239
H           38.55995937747698        1.38742098020060       14.05333699310038
C           32.41342199577279        0.02050307313858        7.53259676228605
H           32.20625422144572       -0.73481911929561        8.29167661068496
H           32.59248274746207       -0.49427071791914        6.59527785686439
H           31.51871713171850        0.62405018489326        7.43451823444281
N           34.84268559510893        0.75990497855595        7.65448262125727
H           35.24558276094972        0.09705104520813        7.00922526772940
C           33.51952957408194        0.91232334221079        7.95793236519632
C           35.52365155053729        1.72449458285680        8.32172730391182