87
 energy: -128.467842360063 gnorm: 0.000035949219 xtb: 6.7.1 (edcfbbe)
Fe          20.90521426468761      -36.44329399277724        6.01290863133547
N           19.21342747495508      -35.56132244380330        5.39821987846060
N           20.17024804413702      -38.23268202264672        5.48087735421133
N           22.59546521410273      -37.32137815947650        6.64617647739667
N           21.64375889012452      -34.65187747486191        6.52788777053453
C           18.91984757811671      -34.23593194060870        5.43360203748420
C           17.59209763972945      -33.99088079878600        4.91372750562788
C           17.09147914363832      -35.20506744812509        4.56206855278679
C           18.12131095847626      -36.17389220027913        4.87096359962909
C           18.95569425345725      -38.48242416108047        4.92341239095652
C           18.78467252158886      -39.89088774140696        4.67558433037846
C           19.93479440924021      -40.50050211938031        5.10412756168962
C           20.78802534712677      -39.43581862892167        5.59752917751117
C           22.87680635012505      -38.65307577004242        6.63306867617337
C           24.18348298723885      -38.90687912739270        7.18287655160772
C           24.69794908778153      -37.68451110230354        7.52846087690836
C           23.67753708924233      -36.71124959730495        7.18851212154433
C           22.86598083505892      -34.39899678561226        7.06213021522322
C           23.04571914948871      -32.97961009480230        7.27854426791761
C           21.89697004081724      -32.38179428901761        6.86357250242531
C           21.03372431065752      -33.44477577923080        6.39741922823961
C           19.76201596378645      -33.23807400174317        5.89279333450680
H           19.39829926183228      -32.22178918512352        5.85640448137112
C           17.99156939542798      -37.52887042269307        4.64263223971267
H           17.06115309899888      -37.87252432747733        4.21624979091307
C           22.04041985138841      -39.64447609423127        6.14523999461003
H           22.40023836372808      -40.66168281013391        6.19044785671604
C           23.82082427103174      -35.34825189615869        7.37189436005654
H           24.75113041038565      -34.99531502140641        7.79062987563184
C           15.76497939698997      -35.54435888063746        3.97268017747235
H           15.16010446111822      -34.65067236663998        3.83834010300314
H           15.22190087283078      -36.23165427646499        4.62179568837803
H           15.88817751977040      -36.02411984477096        3.00119478740491
C           16.96176256823219      -32.64312941648875        4.81491066472176
H           17.55690913157986      -31.98464267285061        4.18116265983384
H           16.88410846526381      -32.18227566863490        5.80014659406222
H           15.96289498859837      -32.71315883256146        4.39104516284071
C           17.60354211791540      -40.50926873147733        4.01179916186117
H           17.22913645741399      -39.86671926274590        3.21628573306212
H           16.79344678298063      -40.66878123672195        4.72575756813365
H           17.87702469963965      -41.47126903329338        3.58269461488609
C           20.29692155763895      -41.89950273745688        5.07154245119733
H           21.35016291206927      -42.10724555747827        4.91898382609023
C           19.45833685124753      -42.92065238755571        5.21989127559246
H           18.41106302409038      -42.77782156547607        5.42134457246009
H           19.79910442027520      -43.94168871405343        5.16879727296853
C           24.78497704097688      -40.25485815400953        7.38403835934352
H           25.25439873244581      -40.61416991162275        6.46642710573137
H           24.02535829953993      -40.97806762593748        7.67821558825379
H           25.54429498659375      -40.21208333928857        8.16249932567566
C           25.96933736158400      -37.36805435675856        8.13907020302497
H           25.96711795362578      -36.51416309806132        8.80702851446589
C           27.10894678520541      -38.02327536837269        7.94006476112925
H           27.18432532902784      -38.84704982925290        7.25204297710651
H           28.01836749661809      -37.73749043579352        8.44266075753517
C           24.27619821838174      -32.36400241512275        7.85193187629604
H           25.14674092453540      -32.60796453530708        7.24252250600080
H           24.45600656263960      -32.73615796528303        8.86096628750050
H           24.18302724103190      -31.28149941520235        7.89869765506971
C           21.53041287773060      -30.93636026931010        6.86065389396332
H           22.34421689822421      -30.33012197543154        7.25111578364176
H           20.64803382824525      -30.76257428955822        7.47743088316642
H           21.30587988850460      -30.59730472022613        5.84869879557081
C           18.34318709473458      -35.67088427442769       10.92998221664487
H           18.95289840651744      -35.69843734415122       11.83319325562050
H           17.42457903975857      -36.22547248947468       11.12206713867613
H           18.08746238233766      -34.63818181627489       10.71435038622839
N           19.52906003411459      -37.54611624117386        9.76813773954398
H           19.41341704260666      -38.21559748875990       10.51108851751775
C           19.07931855405900      -36.25126859129973        9.77820789927695
C           20.15151928714260      -37.75350170062399        8.58590035150872
H           20.60247309033360      -38.68175519931561        8.30117005231084
N           20.12333713568899      -36.67127623458816        7.84824350736083
C           19.45990161098970      -35.72833751790933        8.57587759499895
H           19.30228862725901      -34.74364944371060        8.18793570859074
C           23.54555624159597      -37.19962770665099        1.13677955526694
H           24.45285614851391      -36.62290017238437        0.95640928000504
H           22.95206821791169      -37.19632286178778        0.22242273967150
H           23.82429403165792      -38.22317742824796        1.36691466620021
N           22.27949711541144      -35.35008419115162        2.25475133366304
H           22.38417063450503      -34.68751005825850        1.50404718334044
C           22.77361976012973      -36.62868282821502        2.26956274713421
C           21.63422815870408      -35.14772167627409        3.42573815455821
H           21.14686471683598      -34.23259554699109        3.69195630804935
N           21.68945459306234      -36.21771585608331        4.17929803947700
C           22.39462388231811      -37.14740232540839        3.47413226983258
H           22.58125133487917      -38.12078668022787        3.87743412552674
