87
 energy: -124.720522088675 gnorm: 0.000029038483 xtb: 6.7.1 (edcfbbe)
Fe          15.13771063487829        1.12107112518510        0.13525173935763
N           15.33946610738105        2.76570519750841       -0.97917102984451
N           14.46628372674460        0.12122255928953       -1.46557909562170
N           14.93322836956150       -0.53775244798643        1.24980211293028
N           15.88623564099348        2.09463437662742        1.71970976407262
C           15.79198419008492        3.97787150646144       -0.56697756286482
C           15.74529794748728        4.93685301159228       -1.65025262501881
C           15.25675267700104        4.26978698337413       -2.72840739978144
C           15.01241016815805        2.91313924857044       -2.28809295044628
C           14.30479593505793        0.60717902417363       -2.72429858581803
C           13.83191924189290       -0.42864038601614       -3.61589728930461
C           13.71095438851101       -1.55422870590559       -2.86201910509935
C           14.11276627962722       -1.18940046620028       -1.52192627652107
C           14.49131427959433       -1.75204499220141        0.83574617066937
C           14.46408560560748       -2.69157332761021        1.93961741514936
C           14.94057206597742       -2.00915496048325        3.02785656816128
C           15.23621677869572       -0.67590320080071        2.57060147867142
C           16.09564428426457        1.59193126284906        2.96363674564810
C           16.66564389126442        2.60156323198821        3.83478691581256
C           16.80466977243208        3.72623628207225        3.06522305593420
C           16.31083260263460        3.38496213783951        1.75585894693907
C           16.25582864458144        4.27512659606295        0.69742075285772
H           16.59731997860151        5.28298069339854        0.87694026960312
C           14.53837380187700        1.91276539093192       -3.11549252845563
H           14.33801986256600        2.16802789868017       -4.14501269457423
C           14.10515909862020       -2.06648201472965       -0.45426127551050
H           13.77205247895285       -3.07510140141411       -0.64477536964678
C           15.77448381177770        0.31321776332900        3.37667446904350
H           15.95904895866918        0.06315234349541        4.41026523013880
C           16.16658262061225        6.36120212624940       -1.53123741087146
H           17.21733258922333        6.42859466013558       -1.24756748934540
H           15.57726302896508        6.87097661724411       -0.76903437729934
H           16.03271561895337        6.88481479113119       -2.47468664502614
C           14.99632887020784        4.76517349247271       -4.10979922132042
H           13.94504826778322        4.63861149321455       -4.36867384604818
H           15.59221781265673        4.21234725668989       -4.83699873201319
H           15.24543234499088        5.81994607074043       -4.19564649810830
C           17.40536384520945        5.03578063638869        3.44023689481531
H           16.62991413795481        5.76747531402188        3.67342771042032
H           18.00659893501889        5.43119144206094        2.62291403146049
H           18.04091378880155        4.91822214018117        4.31569345662322
C           17.01974851881326        2.39006615202240        5.22066217201075
H           17.36213588543863        1.39211511849497        5.47020199743987
C           16.94845735566668        3.30383647422339        6.18326920457296
H           16.57122033234100        4.29561049396862        6.00491000886121
H           17.24272361922216        3.08014727103721        7.19530757826129
C           15.19284305488502       -2.52121113704857        4.40303477202752
H           14.38840610249653       -2.23176368849884        5.08167876792250
H           16.12559053454025       -2.12200067834180        4.79909961753386
H           15.25749188379715       -3.60731519768136        4.39031023300128
C           14.03608667162738       -4.06924196175904        1.84072121950230
H           14.24436626473444       -4.55815192303104        0.89594917108909
C           13.41468983974492       -4.75341654278169        2.79584064561001
H           13.13947553549567       -4.30609103625351        3.73511624215577
H           13.13478846307930       -5.78481302832608        2.65892538907457
C           13.25909053775783       -2.91612431003622       -3.26366335404442
H           12.37043877265654       -3.20596794190639       -2.70218246624931
H           14.03824550313983       -3.65287348050300       -3.06640870736156
H           13.01867046441929       -2.94732949174323       -4.32358749317821
C           13.54527629119534       -0.22491902131879       -5.06427474934913
H           13.20935710749295       -1.15027766128177       -5.52567688672409
H           14.43782438669986        0.11612088610084       -5.58973393319513
H           12.76701791479074        0.52693860279829       -5.19855158212351
C           20.38833359671430       -0.77027169191360        0.16549288120175
H           21.18856402303994       -0.05506859757605       -0.02474157502346
H           20.60656005557694       -1.68188685636161       -0.39077209999616
H           20.37556308570387       -1.00408682178788        1.22539656184639
N           18.79725714214045        0.17688047673192       -1.52108005163108
H           19.43215066596049        0.12372837844942       -2.30064046160480
C           19.07336452353564       -0.20944603128282       -0.23554388267200
C           17.52671820991157        0.63778200407986       -1.54654171912372
H           17.03942485324223        1.00893261042581       -2.42423752296302
N           16.98225365225570        0.56672221691833       -0.35670784838951
C           17.93139856141139        0.04195420713446        0.46936422979488
H           17.73222552508568       -0.11884119321700        1.50823996737425
C           11.11508228201084        0.82773665521397       -1.09931528990747
H           10.40443242366538        0.04177008615514       -1.34721534857106
H           11.90389849373801        0.83181408709442       -1.84565182498575
H           10.60486405856719        1.78749514872693       -1.13166364079434
C           11.69721398981204        0.58586976723621        0.27972283907131
H           12.20345127909601       -0.37657558605161        0.33205932100781
H           10.91901539849450        0.63704712059052        1.04129018292967
S           12.92404329110999        1.89429086240876        0.68848753660524
C           12.77520267656925        1.81613379784771        2.49972442642319
H           13.01540184070802        0.81609173103180        2.84628585433035
H           11.76441679073854        2.09637892846420        2.78455844896854
H           13.48643545702191        2.52573003087215        2.90768544945735
