87
 energy: -124.445473528007 gnorm: 0.333127480686 xtb: 6.7.1 (edcfbbe)
Fe          15.15700000000000        1.05300000000000        0.17700000000000
N           15.39600000000000        2.68200000000000       -1.00500000000000
N           14.50600000000000        0.10000000000000       -1.49200000000000
N           14.86300000000000       -0.56500000000000        1.22900000000000
N           15.91300000000000        2.07100000000000        1.73900000000000
C           15.97200000000000        3.88900000000000       -0.61600000000000
C           15.84500000000000        4.86800000000000       -1.67200000000000
C           15.20600000000000        4.26400000000000       -2.70500000000000
C           14.93200000000000        2.90400000000000       -2.29300000000000
C           14.19400000000000        0.61200000000000       -2.74100000000000
C           13.69200000000000       -0.44700000000000       -3.63100000000000
C           13.66100000000000       -1.57500000000000       -2.88700000000000
C           14.14500000000000       -1.25500000000000       -1.57100000000000
C           14.54500000000000       -1.83500000000000        0.79100000000000
C           14.53000000000000       -2.77000000000000        1.90600000000000
C           14.84200000000000       -2.03500000000000        3.02000000000000
C           15.07700000000000       -0.69400000000000        2.58400000000000
C           15.98600000000000        1.56000000000000        2.98800000000000
C           16.66700000000000        2.54700000000000        3.84200000000000
C           17.00900000000000        3.55300000000000        3.01100000000000
C           16.52300000000000        3.25300000000000        1.70700000000000
C           16.53900000000000        4.11700000000000        0.61000000000000
H           17.05400000000000        5.06800000000000        0.74300000000000
C           14.38000000000000        1.93300000000000       -3.12500000000000
H           14.07800000000000        2.22600000000000       -4.13100000000000
C           14.23500000000000       -2.14400000000000       -0.50600000000000
H           14.03900000000000       -3.19300000000000       -0.72600000000000
C           15.54000000000000        0.32800000000000        3.41600000000000
H           15.54900000000000        0.13600000000000        4.48900000000000
C           16.33500000000000        6.30000000000000       -1.57000000000000
H           17.39100000000000        6.05300000000000       -1.33100000000000
H           15.80100000000000        6.54800000000000       -0.62800000000000
H           16.31600000000000        7.17200000000000       -2.25800000000000
C           14.90400000000000        4.84100000000000       -4.05900000000000
H           13.82700000000000        4.57000000000000       -4.03000000000000
H           15.44900000000000        4.08900000000000       -4.66900000000000
H           15.01000000000000        5.84800000000000       -4.51600000000000
C           17.84800000000000        4.79900000000000        3.29500000000000
H           17.08700000000000        5.08200000000000        4.05300000000000
H           18.28100000000000        5.72400000000000        2.85700000000000
H           18.64500000000000        4.20400000000000        3.78900000000000
C           16.79200000000000        2.44100000000000        5.30700000000000
H           17.75700000000000        2.10800000000000        5.71500000000000
C           16.09000000000000        3.46800000000000        6.06800000000000
H           15.11900000000000        3.85200000000000        5.72300000000000
H           16.52400000000000        3.87000000000000        6.99500000000000
C           15.05700000000000       -2.57500000000000        4.42300000000000
H           14.26900000000000       -1.97100000000000        4.92100000000000
H           16.03800000000000       -2.07300000000000        4.56300000000000
H           15.07900000000000       -3.58700000000000        4.88100000000000
C           14.40800000000000       -4.25900000000000        1.75600000000000
H           14.78500000000000       -4.60700000000000        0.80300000000000
C           13.48100000000000       -4.96000000000000        2.69800000000000
H           13.17800000000000       -4.48300000000000        3.64200000000000
H           13.09200000000000       -5.96100000000000        2.45800000000000
C           13.15000000000000       -2.94900000000000       -3.30500000000000
H           12.19700000000000       -2.51300000000000       -3.67300000000000
H           12.95500000000000       -3.97600000000000       -2.92800000000000
H           13.87700000000000       -2.98400000000000       -4.14400000000000
C           13.16900000000000       -0.26100000000000       -5.03500000000000
H           12.19600000000000       -0.73900000000000       -4.79100000000000
H           13.85400000000000       -1.03100000000000       -5.45000000000000
H           12.99900000000000        0.54000000000000       -5.78600000000000
C           20.58900000000000       -0.26900000000000        0.29300000000000
H           21.24400000000000        0.59700000000000        0.05600000000000
H           20.97100000000000       -1.16600000000000       -0.23900000000000
H           20.60500000000000       -0.44300000000000        1.39000000000000
N           18.86100000000000        0.29100000000000       -1.44900000000000
H           19.50100000000000        0.27800000000000       -2.21700000000000
C           19.18400000000000        0.02700000000000       -0.15400000000000
C           17.56100000000000        0.56500000000000       -1.50300000000000
H           17.04400000000000        0.80500000000000       -2.43200000000000
N           16.99500000000000        0.50600000000000       -0.29600000000000
C           18.03500000000000        0.18300000000000        0.53900000000000
H           17.85500000000000        0.08900000000000        1.60300000000000
C           11.16200000000000        0.21000000000000       -0.82500000000000
H           10.41800000000000       -0.60900000000000       -0.72600000000000
H           11.92800000000000       -0.09500000000000       -1.56900000000000
H           10.63800000000000        1.12300000000000       -1.18000000000000
C           11.83300000000000        0.48500000000000        0.53700000000000
H           12.34300000000000       -0.44200000000000        0.87300000000000
H           11.04300000000000        0.73600000000000        1.27600000000000
S           13.02600000000000        1.82900000000000        0.45400000000000
C           12.89100000000000        2.53400000000000        2.06400000000000
H           13.14300000000000        1.79200000000000        2.85200000000000
H           11.85300000000000        2.88500000000000        2.24300000000000
H           13.58800000000000        3.39300000000000        2.16600000000000
87
 energy: -124.581990548518 gnorm: 0.182476347699 xtb: 6.7.1 (edcfbbe)
Fe          15.15485899138609        1.05054305050547        0.14626275161092
N           15.39439546595360        2.69873059084080       -1.01413966442456
N           14.49518303873231        0.09356606705144       -1.49366014111923
N           14.87310792377710       -0.57487447228003        1.23731196746945
N           15.90212714451356        2.04340158427010        1.71936293185927
C           15.96393410987584        3.88966658910485       -0.62227995026022
C           15.84660420473337        4.87323360047816       -1.67943455816936
C           15.21553903376800        4.27159837007019       -2.70489584143040
C           14.94074532964543        2.90752977953592       -2.29296227290669
C           14.20469012711213        0.61363100517058       -2.72828894061315
C           13.69221721973527       -0.42255585909520       -3.60289580324120
C           13.66838361322969       -1.56809224640443       -2.85885668074566
C           14.16000880356604       -1.24434018153740       -1.55794620665505
C           14.55674252206234       -1.83661540935139        0.79525072602942
C           14.54331784925127       -2.78708347247910        1.89975223660876
C           14.84543629222457       -2.05771977606736        3.01227899603755
C           15.07388411230548       -0.69918372308689        2.58785727343970
C           15.97730052278048        1.56288755008222        2.98514690496998
C           16.64928065653125        2.54955367436819        3.83419664249900
C           17.01378990808564        3.55251170142977        2.98343709972488
C           16.51478098494925        3.23932273565405        1.68715778850791
C           16.54138187802345        4.11286076319654        0.60507978862890
H           17.04895246429056        5.06223270833547        0.74894605357140
C           14.38496072512398        1.93414317280458       -3.11333436308591
H           14.08202472222852        2.21981377574626       -4.11812783680694
C           14.24123542733372       -2.14361920202736       -0.50756586688712
H           14.03125633672474       -3.18563946958037       -0.72956838202204
C           15.53063530387054        0.32736008120663        3.41684714359198
H           15.55812375262619        0.13576358791770        4.48476689642618
C           16.34912717288387        6.28476640509003       -1.53316467704107
H           17.40586725547341        6.09139900732517       -1.31384986216408
H           15.82325610910143        6.58379277906519       -0.61833122350011
H           16.29308429625156        7.11052148785349       -2.26287558546663
C           14.88246849005179        4.80288193899099       -4.06568507322926
H           13.81112115160694        4.57298252268766       -4.08028466914094
H           15.43034887547455        4.09806172946315       -4.70441870675987
H           15.02634507379253        5.82370848898226       -4.45848538280704
C           17.83643997815993        4.77779526308130        3.34937391625826
H           17.12162147184393        5.12684320959258        4.10320886623912
H           18.24110517389850        5.66239925703860        2.82268738049339
H           18.66856212136861        4.24496441167436        3.82482648090695
C           16.80459188439524        2.52415591765445        5.30223798553034
H           17.73450660211443        2.11149149149861        5.71571534938332
C           16.11198647424775        3.44926569646312        6.05104290027180
H           15.15241433731757        3.84440333338111        5.71612238596755
H           16.50404490994966        3.83064574126038        6.99343908037158
C           15.06110568847802       -2.53102683294955        4.42857167221994
H           14.28092441688079       -1.97134778101852        4.95999214626837
H           16.04194110767797       -2.07662790475962        4.61287145250923
H           15.07047134398639       -3.56372457808664        4.81781573532516
C           14.33556602835858       -4.24375436146076        1.77515992355156
H           14.75378845223665       -4.62656515796439        0.84256887186865
C           13.51315530305081       -4.93678713738057        2.65913649388484
H           13.19036488155234       -4.48115934493397        3.59682189152493
H           13.13221769580933       -5.94028748872392        2.45674042024431
C           13.14980785088327       -2.91281051285487       -3.34551353347808
H           12.17834818512697       -2.55428734697330       -3.71192389945390
H           12.98708780948660       -3.90916468072651       -2.89265015757469
H           13.85116468234561       -3.02379471660916       -4.18262322392795
C           13.16829023422488       -0.30547676600907       -5.01763671943799
H           12.17933319632032       -0.75254708893740       -4.84236098722785
H           13.82819678955280       -1.04336619211379       -5.49469932172315
H           13.03081799210209        0.54033681499731       -5.71550233806787
C           20.58677428510552       -0.26764146038770        0.29160566623366
H           21.24018993645776        0.58514476402769        0.06003465845556
H           20.96985336347943       -1.15565453763149       -0.22950817996900
H           20.60548637162094       -0.44238525527288        1.37332017610205
N           18.86455938160695        0.28879170494841       -1.44939350617671
H           19.50512605285304        0.27632425914496       -2.22211961384179
C           19.19070591425633        0.03153146157117       -0.14737141256637
C           17.55439302389935        0.56537089757914       -1.50312000391742
H           17.04016799005519        0.80347614222131       -2.42060845846614
N           17.00493068226330        0.50886483482237       -0.30219167717526
C           18.02960582523856        0.18143714623445        0.54488565983733
H           17.85166789238184        0.08631760110152        1.60058792735370
C           11.16272538454690        0.21290214794094       -0.82050940105269
H           10.42839738976399       -0.59813237748939       -0.72569950865977
H           11.91438642035011       -0.08657026137513       -1.55845976738021
H           10.64632637374834        1.11267529434223       -1.17748621547788
C           11.82313729395652        0.47436156879964        0.53785406441036
H           12.33972520476136       -0.43538290265846        0.87343684932868
H           11.05007252795675        0.73739734800288        1.27375185632309
S           13.02098703041343        1.83536340232882        0.44182135145868
C           12.88333362081413        2.53246301790778        2.07851884392423
H           13.14326937115128        1.79579601867889        2.84898914053844
H           11.85817622146853        2.88689315237197        2.24491837954615
H           13.57763094140488        3.37934185233377        2.15971688674480
87
 energy: -124.654088603993 gnorm: 0.092982233314 xtb: 6.7.1 (edcfbbe)
Fe          15.15336416383794        1.05282224853950        0.12321071958404
N           15.39612084622021        2.71195097491717       -1.02252138710869
N           14.49230649078569        0.08692254675492       -1.49383735015973
N           14.88190202680768       -0.58824722156392        1.24537332417134
N           15.89438065213005        2.02113422685833        1.70362778659175
C           15.95673234878324        3.88738027821538       -0.62818664968232
C           15.84870117255610        4.88115331718926       -1.68528343888261
C           15.22323705966152        4.27908389455437       -2.71045285724261
C           14.95041223400023        2.90977469943363       -2.29279470568622
C           14.20942040591561        0.61125475399244       -2.71877301680962
C           13.68825155055035       -0.40687234778529       -3.58530545922848
C           13.67081883105692       -1.56830825456465       -2.84361744410234
C           14.17071013254500       -1.23507979332320       -1.54925393292451
C           14.56835216294194       -1.83945790063704        0.80046959570232
C           14.55720063991967       -2.79838542369898        1.90102596971344
C           14.84969098183829       -2.07324399171018        3.01374197540911
C           15.07648547696974       -0.70270964176914        2.58985236489786
C           15.96774738527143        1.56735248752036        2.98346818459733
C           16.62972084999425        2.54872995394722        3.82276439166225
C           17.01642847415563        3.55446324030039        2.96436594257339
C           16.51157993902574        3.22784960102801        1.67148869588610
C           16.54554144099093        4.10812532437061        0.60015904260253
H           17.04374914335076        5.05575543677614        0.75477841319028
C           14.38893713180414        1.93504183377305       -3.10076353258814
H           14.08657953450742        2.21215674399880       -4.10396296557095
C           14.24708979946907       -2.14544034192645       -0.50686361290509
H           14.02311857623294       -3.17932213727312       -0.73187586914426
C           15.52286845736022        0.32618607907556        3.41607795106193
H           15.56772739399683        0.13516111850242        4.48024448998643
C           16.36312556102000        6.27026201415935       -1.49682964421879
H           17.42334249753716        6.13253652975468       -1.29339088856143
H           15.84775953114070        6.62177336304000       -0.60472592588992
H           16.26484169120192        7.04117136483625       -2.27595302370682
C           14.86235867769259        4.76497170999591       -4.07397856523648
H           13.79429002374954        4.57485813660955       -4.13303043817292
H           15.40851138695474        4.10401209569283       -4.74586370936342
H           15.04652320441599        5.80277164814463       -4.39014393505668
C           17.82009703863325        4.74970072266920        3.40361936869537
H           17.15740645976676        5.16979696993195        4.15624990022747
H           18.18839742940600        5.58589951557691        2.77546823171129
H           18.68898402485764        4.28341763604438        3.86604902548440
C           16.81853137718053        2.59611118053160        5.29065626313977
H           17.72025341162930        2.12138778123105        5.69908443662367
C           16.13226373478953        3.43523039857320        6.03286670455388
H           15.18887283210415        3.85663374084136        5.70114740527436
H           16.47543811333251        3.77850001502591        7.00486477397136
C           15.06572253174087       -2.48793766482226        4.43455723406001
H           14.29333802406871       -1.96883889022559        4.99995338930742
H           16.04651395471805       -2.07705560924799        4.66581854804600
H           15.05899501851404       -3.54464359349314        4.74338662930970
C           14.28762438981902       -4.23244775776142        1.78979516389340
H           14.71266317606788       -4.64706245424216        0.86870651045943
C           13.53689167652944       -4.90636243769561        2.62073127450066
H           13.18660560611170       -4.47305814823765        3.55448706390663
H           13.18255069075447       -5.92251364757926        2.45653634639869
C           13.15039521021138       -2.87432938785905       -3.38657565706727
H           12.16238891031760       -2.59158559556773       -3.75270952648680
H           13.02778397059904       -3.82998313450986       -2.84058147574005
H           13.82543540266774       -3.05934286244015       -4.22248138242730
C           13.16725994616479       -0.35055533531553       -4.99839380361848
H           12.16449373016479       -0.76927492608722       -4.89038948186524
H           13.80516351192655       -1.05628664674417       -5.53280101498252
H           13.07096590598127        0.55191034462929       -5.62787019359216
C           20.58391050174473       -0.26623047162855        0.29036056059303
H           21.23831294349504        0.57669850094644        0.06251433741858
H           20.96764714069934       -1.14870399005123       -0.22342884670801
H           20.60445780312292       -0.44237775555993        1.36221720560131
N           18.86902951364161        0.28683519913440       -1.45011173341569
H           19.50955843563350        0.27487034501771       -2.22589136333054
C           19.19453738264131        0.03651059375313       -0.14260574340397
C           17.54948350572209        0.56531643834448       -1.50382266588600
H           17.03592424112461        0.80248366268639       -2.41237101985843
N           17.01295704100843        0.50834308714653       -0.30927218164803
C           18.02436219961279        0.18106169433957        0.54757945632476
H           17.84862294347363        0.08332393935502        1.59811966473154
C           11.16077069170257        0.21324913918398       -0.81611908371626
H           10.43277349921490       -0.59226531274297       -0.72550231370713
H           11.90509112587592       -0.07955192759821       -1.54953435628198
H           10.65264541535681        1.10726618746096       -1.17197758707955
C           11.81180358640325        0.46385679922809        0.53787991593483
H           12.33869217610141       -0.42906915670225        0.87382832604502
H           11.05535852079217        0.74079890573741        1.27296860680758
S           13.01512842349196        1.84285959897443        0.42972979393886
C           12.87646788784497        2.53322761466432        2.09463246802672
H           13.14297210598990        1.79476640536620        2.84504770462675
H           11.85989397645358        2.88749944518089        2.24729139891120
H           13.57063498440330        3.36933227680825        2.15405122690379
87
 energy: -124.686982513485 gnorm: 0.049604019814 xtb: 6.7.1 (edcfbbe)
Fe          15.15244137283886        1.05707167945057        0.11079570638499
N           15.39989569360545        2.71381076651401       -1.02526104364025
N           14.49300030047600        0.08414056028948       -1.49178804035153
N           14.89385993812037       -0.59121776915350        1.24575021627062
N           15.89076111659091        2.01260675594927        1.69281643461180
C           15.95617420199921        3.88287829036266       -0.63096133316170
C           15.85303812370253        4.88093854090084       -1.68521395577429
C           15.22770100572361        4.27573917055436       -2.71620907477386
C           14.95908110359248        2.90704392948358       -2.29281926884305
C           14.21018111287507        0.60876139813015       -2.71511733316764
C           13.68232065104881       -0.40674513576893       -3.57852724493403
C           13.66975722540243       -1.56950368335232       -2.84321145153581
C           14.17736078964344       -1.23465659062320       -1.54725509167648
C           14.58301233167279       -1.83590561287648        0.79992029740535
C           14.57007153926240       -2.78743637024886        1.90114416571753
C           14.86067179310486       -2.06758767965054        3.01853627104340
C           15.08361422580692       -0.69817511902947        2.58786221233452
C           15.95703758482421        1.57155500567521        2.97866109886720
C           16.61897356950013        2.54801427852302        3.80748680813095
C           17.01143513109117        3.55650905894003        2.95985516993844
C           16.51203007024634        3.22161556413635        1.66299001192416
C           16.54918556235052        4.10303363547404        0.59557556190445
H           17.03909995251495        5.05098429256388        0.75922880395014
C           14.39384095781117        1.93283234169711       -3.09287984590844
H           14.09068313746135        2.20480170101898       -4.09380862508983
C           14.25580892095979       -2.14623041501226       -0.50554181091561
H           14.01333164978966       -3.17440983315923       -0.73062331339122
C           15.51726798678872        0.32929181276377        3.41420430592220
H           15.57960082657767        0.13584340251787        4.47661706688961
C           16.37268127000745        6.25954625238502       -1.47513823290060
H           17.44236086100615        6.17800829151078       -1.27239972474405
H           15.87507141369817        6.66254379684841       -0.59114591087304
H           16.23509887241300        6.97473570858814       -2.29950982381158
C           14.85058836977582        4.74021879067945       -4.07876924994901
H           13.77821713639168        4.57703581356449       -4.18928010857865
H           15.38385456689772        4.11063945412275       -4.79357557133580
H           15.06828138511982        5.79078920484668       -4.32138275925498
C           17.80543052858283        4.72981502815209        3.43637483571182
H           17.19710873012037        5.21150216848765        4.20826819867886
H           18.13473992965344        5.51543382143734        2.72444638902286
H           18.70515377197709        4.32493400933387        3.90899648259822
C           16.84662243641005        2.62487592322067        5.26298950377645
H           17.73134822122324        2.13118966839798        5.66704517930523
C           16.12410631117060        3.42383420811615        6.04235512487605
H           15.21509216831653        3.89200234112298        5.68133664416431
H           16.43214290216781        3.71238247416435        7.04437964875570
C           15.06956971909956       -2.45880044983768        4.43922559973956
H           14.30663555251634       -1.96590217827862        5.04384257272662
H           16.05132057100958       -2.07661206366235        4.72744369482988
H           15.04469304505410       -3.53505823569782        4.66858216953579
C           14.26594070637602       -4.20477329883833        1.76361915019058
H           14.67616035853300       -4.65217804270499        0.85678278905602
C           13.54671199953053       -4.91694523546868        2.63457557743171
H           13.15317770665901       -4.46539620814356        3.53782529918951
H           13.23055965219464       -5.93869331751482        2.47014714558529
C           13.15298660272965       -2.84976232706081       -3.41087742767631
H           12.14907798039322       -2.63451574238434       -3.79415876928681
H           13.07138575432742       -3.75734837877571       -2.77956015915494
H           13.79586660971919       -3.09640291467770       -4.26261158439938
C           13.16821570996546       -0.37624193493944       -4.98312432642785
H           12.15106788061561       -0.78378869288962       -4.94318127912038
H           13.78121000241544       -1.06722447598077       -5.56999498597079
H           13.11537295217395        0.57755208501660       -5.53909091000769
C           20.58164531449425       -0.26529524517696        0.28992994541521
H           21.24065228190236        0.57269978550770        0.06440263630737
H           20.96544212411883       -1.14739055192717       -0.22087459417745
H           20.60229993846154       -0.44372434844055        1.35950945540117
N           18.87270365297044        0.28609238682947       -1.45154185319847
H           19.51353544283119        0.27276185509782       -2.22781545835412
C           19.19471617178245        0.04061962570381       -0.14173577853587
C           17.54981163415995        0.56409571194110       -1.50576049125151
H           17.03190689387212        0.80073641910811       -2.41045706952478
N           17.01613861443841        0.50854080850031       -0.31311615213625
C           18.02211768217940        0.18146785534405        0.54681908470353
H           17.84492746992631        0.07862481054767        1.59649576930278
C           11.15636895524536        0.21409114631279       -0.81050428161283
H           10.42978557388731       -0.59057838740960       -0.72505402386337
H           11.89988883097013       -0.07371140477263       -1.54401316693204
H           10.65306570812928        1.10898930241246       -1.16556403855636
C           11.80487462490059        0.46055145654898        0.54015169721611
H           12.34028324017974       -0.42455219841804        0.87705316797889
H           11.05682975265527        0.74617182506628        1.27739186152786
S           13.00714364627900        1.84992929290935        0.42176054331605
C           12.86923859029888        2.53224448270818        2.10223063588718
H           13.14205168164968        1.78816372598803        2.84194876647350
H           11.85541078857928        2.88851046811958        2.25324090868025
H           13.56607183246194        3.36296165828843        2.14984055611916
87
 energy: -124.698791198889 gnorm: 0.045643162618 xtb: 6.7.1 (edcfbbe)
Fe          15.15477525511002        1.05961399072250        0.10399911716793
N           15.40769443975875        2.70639552994731       -1.02421827707802
N           14.49486460229490        0.07723899584774       -1.49143994674552
N           14.90724851244526       -0.59241921197318        1.24149827573320
N           15.89082894515156        2.01451045896138        1.68760686649809
C           15.96141197879711        3.87508413495278       -0.63212036417434
C           15.85975529963813        4.87400279750459       -1.68380297287358
C           15.23355330166974        4.26497406534010       -2.72043453666783
C           14.96871095306761        2.89888207000174       -2.29126557082100
C           14.20820190722889        0.60323594192162       -2.71466142564924
C           13.67667698191718       -0.41424553120073       -3.57766477407045
C           13.66820534527805       -1.57579999649476       -2.84860159943131
C           14.18043031173277       -1.24312983159438       -1.54744834884244
C           14.59837909922543       -1.83641778149968        0.80043053838395
C           14.57506911189096       -2.77995229842107        1.90829778635658
C           14.86641193856512       -2.05422834369495        3.02681193446947
C           15.09403934738895       -0.69269097073473        2.58282869704209
C           15.94904551959153        1.57667867754431        2.97525519876895
C           16.60349744644729        2.55102621756759        3.80430261623703
C           17.00642757132613        3.56073017154372        2.96828530831391
C           16.51441947885371        3.22355758293029        1.66311523305841
C           16.55384078531798        4.10034062274289        0.59367270460907
H           17.03640477945920        5.05000600144269        0.76102029180074
C           14.39794311151809        1.92618553510571       -3.08714606666615
H           14.09470215230361        2.19726656672347       -4.08658129504388
C           14.26402248425592       -2.15117980227474       -0.50295345001965
H           14.00428727015334       -3.17499775872214       -0.72512147327976
C           15.51689733375489        0.33354677086217        3.41118867851349
H           15.59080557507757        0.13822327184702        4.47196723246856
C           16.37576072574489        6.25197525377669       -1.47347729425540
H           17.45091506458703        6.21570253120839       -1.27233891890296