72
 energy: -105.923582567626 gnorm: 0.206404058379 xtb: 6.7.1 (edcfbbe)
Fe          45.80900000000000       19.77800000000000       98.16099999999999
N           44.68000000000000       21.09100000000000       97.22600000000000
N           46.77699999999999       19.35500000000000       96.49200000000000
N           46.91000000000000       18.42100000000000       99.09799999999998
N           44.97000000000000       20.26400000000000       99.88599999999998
C           43.67800000000000       21.92299999999999       97.75099999999999
C           43.10200000000000       22.75100000000000       96.71399999999998
C           43.70900000000000       22.42100000000000       95.56300000000000
C           44.70300000000000       21.41500000000000       95.87099999999998
C           46.56600000000000       19.90400000000000       95.25400000000000
C           47.54800000000000       19.39600000000000       94.28600000000000
C           48.34099999999999       18.50400000000000       94.92999999999999
C           47.83600000000000       18.47700000000000       96.28199999999998
C           47.89800000000000       17.60600000000000       98.57200000000000
C           48.47800000000000       16.73000000000000       99.56799999999998
C           47.81099999999999       16.97700000000000      100.73199999999999
C           46.87199999999999       18.05900000000000      100.42700000000001
C           45.24700000000000       19.76100000000000      101.12600000000000
C           44.52099999999999       20.44700000000000      102.16400000000000
C           43.76600000000000       21.39600000000000      101.55500000000001
C           44.01400000000000       21.25500000000000      100.13199999999999
C           43.35600000000000       21.98600000000000       99.12400000000000
H           42.54200000000000       22.64600000000000       99.42500000000000
C           45.58700000000000       20.86200000000000       94.97100000000000
H           45.51700000000000       21.20400000000000       93.93800000000000
C           48.35699999999999       17.66400000000000       97.26600000000001
H           49.19300000000000       17.01800000000000       96.99599999999998
C           46.11100000000000       18.72400000000000      101.36700000000000
H           46.20600000000000       18.39300000000000      102.40100000000000
C           43.38900000000000       22.94300000000000       94.17599999999999
H           44.21400000000000       23.60100000000000       93.82800000000000
H           42.44700000000000       23.53100000000000       94.20399999999999
H           43.28500000000000       22.09200000000000       93.47000000000000
C           42.02100000000000       23.79300000000000       96.92100000000001
H           42.10599999999999       24.21800000000000       97.94399999999999
H           41.02100000000000       23.32300000000000       96.80799999999999
H           42.14200000000000       24.61200000000000       96.17999999999999
C           47.68599999999999       19.86800000000000       92.84800000000000
H           48.52800000000000       20.58900000000000       92.77400000000000
H           46.75000000000000       20.37300000000000       92.52700000000000
H           47.89500000000000       19.00000000000000       92.18700000000000
C           49.38900000000000       17.69700000000000       94.43299999999999
H           49.59799999999999       16.77200000000000       94.98600000000000
C           50.17499999999999       17.89600000000000       93.37400000000000
H           50.05199999999999       18.79200000000000       92.74800000000000
H           50.95600000000000       17.16600000000000       93.11299999999999
C           49.68700000000000       15.77900000000000       99.38099999999999
H           50.62500000000000       16.31800000000000       99.63299999999998
H           49.73799999999999       15.44100000000000       98.32400000000000
H           49.58299999999999       14.90300000000000      100.05600000000000
C           48.09800000000000       16.31600000000000      101.94699999999999
H           49.15300000000000       16.10100000000000      102.16799999999999
C           47.23299999999999       15.91800000000000      102.86700000000000
H           46.15500000000000       16.09100000000000      102.73199999999999
H           47.58100000000000       15.41000000000000      103.77800000000001
C           44.58000000000000       20.12400000000000      103.66400000000000
H           45.64100000000000       20.06300000000000      103.98899999999999
H           44.08700000000000       19.14700000000000      103.85700000000000
H           44.07200000000000       20.92600000000000      104.24099999999999
C           42.69000000000000       22.27100000000000      102.20999999999999
H           43.03299999999999       22.58800000000000      103.21800000000000
H           41.74799999999999       21.69200000000000      102.31500000000000
H           42.51200000000000       23.17500000000000      101.58900000000000
O           44.18700000000000       17.96800000000000       97.66400000000000
H           44.62100000000000       17.15000000000000       97.90799999999999
H           43.36800000000000       18.04900000000000       97.32800000000000
C           47.13699999999999       22.86500000000000       98.12899999999999
H           48.05200000000000       23.49500000000000       98.10899999999999
H           46.44599999999999       23.28800000000000       98.88900000000000
H           46.65700000000000       22.92500000000000       97.12899999999999
S           47.53400000000000       21.13400000000000       98.53399999999999
H           48.14200000000000       20.88300000000000       97.38400000000000
72
 energy: -105.958305886928 gnorm: 0.079732412761 xtb: 6.7.1 (edcfbbe)
Fe          45.81285170736601       19.76100979898573       98.16180014985166
N           44.67399366408483       21.09884919228259       97.22674180686039
N           46.75573440952238       19.31800409397161       96.46016752574245
N           46.91170185576333       18.38148308080889       99.10169714720237
N           44.95034868816479       20.26806015626559       99.89294822688088
C           43.69545736917417       21.91724790564873       97.76312332014734
C           43.10095155220624       22.73881992258436       96.73012314403339
C           43.70951617463927       22.40709957658146       95.56429462104950
C           44.70041269740954       21.40173431789948       95.88005632341118
C           46.56547729447796       19.90906798270359       95.24211713520741
C           47.53589988686694       19.42002810118018       94.27806836506856
C           48.32410832345364       18.50950676761974       94.92884784896687
C           47.82026834882176       18.46352584899806       96.28206364142292
C           47.91097528537290       17.60331018201228       98.57073648202298
C           48.49307019946162       16.74057131283979       99.56341094837202
C           47.82075219001170       16.98931210344277      100.72895934456336
C           46.86431712816507       18.04385178498011      100.42658622262098
C           45.24788664437788       19.76414842339943      101.12611227851322
C           44.51065369438943       20.44283088426101      102.16396839350726
C           43.73780166727505       21.37555748770878      101.54218795039904
C           44.00782783835379       21.24984111000191      100.12199376565783
C           43.37648229291122       21.97810026553915       99.11833426070677
H           42.57091270504269       22.64072301057516       99.41569545458567
C           45.58677031626736       20.85835803188665       94.97038919462931
H           45.51563988250727       21.20816992555980       93.94702148747757
C           48.35454045078973       17.66065286465235       97.26516151617001
H           49.18761084495551       17.02441172961709       96.99675413511221
C           46.11049141705648       18.71358167658599      101.37033729848663
H           46.21344913806296       18.39221804772355      102.39969340344125
C           43.40306081947337       22.93587838424004       94.19025190507274
H           44.20654082065078       23.58889309726051       93.82948674484176
H           42.47325193983306       23.51218057013605       94.20325825916672
H           43.28822805302679       22.10970216097695       93.48157642389123
C           42.03230816627409       23.77711688591770       96.93038138299239
H           42.10104563381003       24.21348768145591       97.93051042381228
H           41.03707463736448       23.33324405446794       96.81432798620763
H           42.13827700083167       24.58582733256856       96.19952975384625
C           47.67198011867856       19.87229974484440       92.85546550005456
H           48.50487087216469       20.58065752571128       92.77083334446993
H           46.76029276404144       20.36777756930622       92.51611359164369
H           47.88121159600378       19.01834271301659       92.20233632554158
C           49.39023224042872       17.69033080913031       94.43248942720000
H           49.59267977289581       16.77847240307650       94.99435673469793
C           50.17008410866729       17.89747253584167       93.37174758144594
H           50.07180841620767       18.78111630675760       92.75584380106687
H           50.94155092886804       17.18542704150791       93.10621738304332
C           49.66251406252656       15.79530883291084       99.37640999056531
H           50.59654488944122       16.31340935005227       99.62434232288317
H           49.73077153245816       15.44354276871121       98.34402562002697
H           49.57105054423800       14.92796970655364      100.03675602763197
C           48.10281174169761       16.33208120995622      101.97073776314060
H           49.15125333029656       16.09844327540551      102.15958541212541
C           47.22541422601674       15.92809770985729      102.88217208570869
H           46.16124541613701       16.07833637514551      102.74434727503069
H           47.55382632174273       15.41231629363705      103.77539702222506
C           44.58491177774025       20.12864004157786      103.63947965533298
H           45.62473178051614       20.06540773037029      103.97757399669158
H           44.09887565885535       19.16931450391510      103.84886792785514
H           44.08052971878391       20.90501847585978      104.22117738918185
C           42.70582764906646       22.26566174182645      102.19180957303756
H           43.03285461779137       22.58046464599223      103.18850969371053
H           41.76834848518568       21.71008021966657      102.30613644855711
H           42.51475372986035       23.16112619700113      101.59525718637639
O           44.23448689188930       18.00118118310332       97.68670699131084
H           44.62575280143399       17.15846985469316       97.90922397389365
H           43.36683998920542       18.06481414921172       97.32681835662177
C           47.13639879626329       22.89083939475540       98.11866755133725
H           48.05098505857961       23.49101289791679       98.11169354275168
H           46.45241984657790       23.27566187889050       98.87870229000306
H           46.65420863341741       22.92557386341627       97.13871151860793
S           47.53738161483408       21.17275919072935       98.55660995412646
H           48.16385932927308       20.91016610631238       97.40816247016041
72
 energy: -105.968169753402 gnorm: 0.024245656240 xtb: 6.7.1 (edcfbbe)
Fe          45.80990803587922       19.74335113666982       98.16226852259584
N           44.66841657956816       21.10049891112223       97.22297370323457
N           46.75148309160728       19.30293089763966       96.44022866135296
N           46.91551489791401       18.35477231289959       99.10774625709757
N           44.93474377038633       20.25861291713632       99.90138466673721
C           43.71050624109478       21.90610254101720       97.76724887505688
C           43.10379968017522       22.72849898373250       96.74151594729388
C           43.70959068179991       22.39413932237082       95.56703789076681
C           44.69699243933479       21.38818786041122       95.88764534804385
C           46.56282686595075       19.90867798468668       95.23264152305597
C           47.52686267878484       19.43731353466264       94.27103583163863
C           48.30677742904063       18.51160997142421       94.92297992340971
C           47.79793629382710       18.44731407633669       96.27572839227787
C           47.91401976934610       17.59709581099788       98.57092606053550
C           48.50544875805575       16.74890146340178       99.56535447953418
C           47.82797873635646       16.99509396277007      100.73048166166812
C           46.86032173958447       18.03090406967114      100.42755728656979
C           45.24450011299207       19.75366931451110      101.12609023796102
C           44.50225859968543       20.43463688412352      102.16198817659040
C           43.71742034682678       21.35340155635611      101.53120012089893
C           44.00003156283629       21.22839928460882      100.11446823173861
C           43.39307361903566       21.96466105569707       99.11292438143521
H           42.60689289929359       22.64580230456383       99.40857026215070
C           45.58174721284374       20.85162880948856       94.96913800860889
H           45.51162510354881       21.21615758427421       93.95509332394096
C           48.34110494477641       17.64962911299506       97.25984839419277
H           49.18144655698965       17.02927073672376       96.99488688053091
C           46.10750120513685       18.69908488942946      101.37391698922644
H           46.22207225211464       18.38901865761382      102.40090966294892
C           43.41482355921434       22.92516419075796       94.20295597993413
H           44.21466360254003       23.57224465284200       93.84483575386322
H           42.49283231460505       23.49916843543420       94.21188125549129
H           43.29726708118734       22.11010659813603       93.49241083466511
C           42.04217782934126       23.75979115878166       96.94210844190495
H           42.10488121377958       24.20079250399113       97.93186902646833
H           41.04972676577875       23.32538926080570       96.82522955768039
H           42.14484409020477       24.55889751015794       96.21151551891639
C           47.65701680584729       19.87932940338501       92.85822103655074
H           48.48380010136533       20.58370378936377       92.76260003494552
H           46.75449550699774       20.36640542078710       92.50756600696415
H           47.86680842162019       19.02697285667738       92.21570924303199
C           49.38619794540951       17.68742761795061       94.42992800823053
H           49.57633730411078       16.78452728241794       94.99919587417848
C           50.16403536919755       17.90579762524038       93.37166847105260
H           50.08320841649108       18.78181744844528       92.75883386839531
H           50.92949279738090       17.20214189123155       93.09919010827100
C           49.64576081834871       15.80982792457664       99.37428619482168
H           50.58238829484569       16.31432823326822       99.61555771515550
H           49.71054999748394       15.45247507031456       98.35194848045484
H           49.55014699545144       14.94840780093207      100.02926803144523
C           48.10159208934733       16.33477272572348      101.98786561853599
H           49.14783384250846       16.10916976002628      102.16226408077281
C           47.21227970055320       15.93178104904228      102.88929781195866
H           46.15743628567761       16.08643173027340      102.75767249976113
H           47.52468070201972       15.42392229660138      103.78306990589951
C           44.58494823629285       20.13087101365350      103.61871580539935
H           45.61862661715944       20.06930016437214      103.95063926874023
H           44.10476218297907       19.17763898188596      103.83607784536943
H           44.08321877015425       20.89847832193508      104.20016278069650
C           42.71456638372899       22.25663855656023      102.16907880115049
H           43.04750871185502       22.56868383845786      103.15646754409657
H           41.77016039226589       21.72533837193624      102.29312497230924
H           42.52940968852745       23.14720912964192      101.57854405166437
O           44.28174615362087       18.06069805014008       97.73501016286659
H           44.62816722679359       17.17992688079183       97.90163521401932
H           43.41052468710950       18.09766179447407       97.33345482825909
C           47.13238802386601       22.91145325706634       98.11423748305002
H           48.04291855495671       23.49955260370916       98.11053918593778
H           46.45109952677232       23.27887363505104       98.87169657558168
H           46.65017236977837       22.93005664961176       97.14530622514394
S           47.54710316561793       21.19673103279322       98.57023767745281
H           48.21359935242837       20.93472753341949       97.43633251781975
72
 energy: -105.971038394523 gnorm: 0.025464931433 xtb: 6.7.1 (edcfbbe)
Fe          45.82395993756321       19.74651985032204       98.16538618851686
N           44.66920403719966       21.09156879289399       97.21916657351376
N           46.73946256647555       19.28613100497217       96.42814604554387
N           46.91409512668214       18.34338663479150       99.11078700175912
N           44.92808888528849       20.23899748916590       99.90226016181650
C           43.71976916958054       21.89473674950292       97.76622871129261
C           43.10763517129204       22.71865444400019       96.74595373130160
C           43.70868674268646       22.38239004808999       95.56977441075729
C           44.69434812938626       21.37547462148088       95.88922201154817
C           46.55555757089961       19.90114694137115       95.22555886946024
C           47.51904089479554       19.43659422666638       94.26426180584286
C           48.29395653786757       18.50459839025329       94.91365144608839
C           47.78262828349728       18.43400210548519       96.26728966765582
C           47.91206316755002       17.59308092417276       98.57166824812093
C           48.50865181213059       16.75098533148350       99.57037213141304
C           47.83225093507179       16.99750297989513      100.73614330297310
C           46.85933468086308       18.02410993385399      100.42902774296468
C           45.23649702280121       19.73485467546914      101.12386381716989
C           44.49018677904500       20.41841595430242      102.15610051589356
C           43.70441019509445       21.33168495656767      101.52197472323252
C           43.99534663125202       21.20453339744235      100.10873340303513
C           43.40392645137694       21.95587876836910       99.11062453418444
H           42.63333660030504       22.65350647599567       99.40645064286294
C           45.57690101621767       20.84597238395784       94.96583527799137
H           45.50732031732897       21.22249166962443       93.95674477042451
C           48.33121414898761       17.64188332954352       97.25567049310932
H           49.17468954991454       17.02619559136366       96.99113523974525
C           46.10437272502715       18.68740456186512      101.37645222193657
H           46.22736383838892       18.38375139895765      102.40386648601496
C           43.42410809089849       22.91617408006481       94.20812957285898
H           44.23206404446653       23.55816288348469       93.85789593874327
H           42.50546837004656       23.49568101383963       94.21465947044624
H           43.30658447603167       22.10284204484472       93.49483583872365
C           42.04688564043273       23.74548559549945       96.95307821558112
H           42.11270108831462       24.18795784784653       97.94247500011461
H           41.05445285642296       23.30849552635119       96.84164889709402
H           42.14661495877982       24.54219858942010       96.21939433422394
C           47.64235034518058       19.88139550909366       92.85244037920050
H           48.46355549404930       20.59205567919420       92.74994982988882
H           46.73553593966080       20.36233429413216       92.50040996651623
H           47.85514926538608       19.02746245517230       92.21258870849100
C           49.37748831896401       17.68320232707662       94.42159664986023
H           49.56035744762272       16.78168767645714       94.99277242894148
C           50.15615136536898       17.91217025572461       93.36714303522980
H           50.08689360202709       18.79589027225316       92.76267626070819
H           50.92652828963372       17.21328877778377       93.09191323609309
C           49.64042951173501       15.80814743455467       99.37303378968063
H           50.58388756432892       16.30580252602259       99.60496326682029
H           49.69284110275136       15.44929518062285       98.34964412675221
H           49.54067775122653       14.94910807418757      100.03121889308493
C           48.09918141640856       16.34156422973876      102.00166283465002
H           49.14463584105681       16.11293258419006      102.17217784011811
C           47.20087458210389       15.95142892455281      102.89916200660076
H           46.14526885248434       16.09608130230029      102.75602247545875
H           47.49918116567172       15.43512182119671      103.79484670343420
C           44.58313986595965       20.12648818447114      103.61086744210274
H           45.62087501574465       20.07075622704580      103.93241671953778
H           44.10804888115663       19.17203915843286      103.83732115330717
H           44.08228884205597       20.89657292515970      104.19058365376226
C           42.71644658945331       22.25375794725336      102.14979594343734
H           43.05911913297946       22.56589275524432      103.13409136172140
H           41.75919554719810       21.74416530597766      102.27818405087105
H           42.54938785766292       23.14307651739038      101.55052569067740
O           44.30060395207708       18.12239356345468       97.82892627418160
H           44.64888601761006       17.21241387854561       97.87427596052981
H           43.47049171450784       18.13990966459444       97.31940232658856
C           47.12844791918766       22.93289124779193       98.11451515999183
H           48.03344472145913       23.52871932171303       98.10610302368445
H           46.44095084071027       23.29517524543819       98.86899354680138
H           46.64514983843295       22.93027373319501       97.14489433580154
S           47.56475591815572       21.22586843248269       98.59793257557087
H           48.27360104002528       20.97118535434389       97.48448090594806
72
 energy: -105.972236496038 gnorm: 0.014338205793 xtb: 6.7.1 (edcfbbe)
Fe          45.83109244483911       19.74453311915539       98.16991694760463
N           44.67597676071679       21.08218052493846       97.21852383590671
N           46.73689463739888       19.28312235781097       96.42622653309492
N           46.91765860039516       18.34354876399559       99.11448545287728
N           44.93354448276188       20.22623763690418       99.90234609763060
C           43.72913887813195       21.88667647152186       97.76605051163988
C           43.11318286191852       22.71037573799024       96.74898953849538
C           43.70932816118081       22.37294401164699       95.57278221380405
C           44.69563452461440       21.36655176592773       95.88988394759815
C           46.55310278383598       19.89736913806258       95.22351953370075
C           47.51468252778739       19.43207184868982       94.26039046331871
C           48.28703871877921       18.49778226004011       94.90652865915061
C           47.77670236631656       18.42797065854664       96.26240268016274
C           47.91269980390422       17.59237541797248       98.57297125547272
C           48.51077668384943       16.75052751208577       99.57396925756342
C           47.83617465027051       16.99649174564596      100.74030321502630
C           46.86347600400318       18.02216595392910      100.43152968356785
C           45.23214515771730       19.71917238494195      101.12308690737684
C           44.47850371334218       20.40130418875835      102.15141328830114
C           43.69662064694342       21.31379632560305      101.51536178592634
C           43.99743965134209       21.18789190825053      100.10515487664293
C           43.41408381631948       21.95005366795088       99.11078610942506
H           42.65250452912156       22.65613042005957       99.40680529838136
C           45.57531052579903       20.84220914916775       94.96315545267525
H           45.50488203025608       21.22519537701437       93.95647000443856
C           48.32556386808132       17.63691438274783       97.25319142192690
H           49.16778161693377       17.01935232990060       96.98665831864565
C           46.10396847684005       18.67877699480706      101.37961916748966
H           46.22915110737205       18.37511878417409      102.40692771778377
C           43.43391298354506       22.90874557445727       94.21022394408629
H           44.25184923629453       23.54515779529824       93.86782344862247
H           42.51891220943785       23.49628544576635       94.21245558725919
H           43.31622222428422       22.09587881488264       93.49425823343888
C           42.04944636519017       23.73198811141227       96.96416864591349
H           42.12211568664608       24.17539761735153       97.95447858413637
H           41.05756906416256       23.28808750177575       96.86264931405385
H           42.14094289019996       24.52880995739349       96.22777201998524
C           47.62712269226681       19.87941267825522       92.84581058358420
H           48.43990791995592       20.60086071846038       92.73708442714661
H           46.71142112872267       20.35187337507628       92.49829838117395
H           47.84470198098318       19.02610792571487       92.20440853494384
C           49.37037538659452       17.68034884696284       94.41313963721279
H           49.54522227041150       16.77328881550563       94.97840884107424
C           50.15199397409233       17.92124559855989       93.36390892056575
H           50.08433554830994       18.81233213964706       92.76687899810079
H           50.92430240403172       17.22391310298817       93.08146044766279
C           49.63795558650846       15.79910857393418       99.37024013178092
H           50.58822087213441       16.29129625689314       99.59148469688181
H           49.67543935150947       15.43844242899797       98.34483339002198
H           49.53574758606533       14.94228668752736      100.03316380940944
C           48.09360766212109       16.34142856741463      102.00836120340743
H           49.13842658668748       16.11563413305193      102.18785702951945
C           47.18543774119427       15.96285652762829      102.90043760367210
H           46.13043919253855       16.11845564469810      102.75150039445701
H           47.47100992887437       15.45864903559324      103.80997681381410
C           44.57820273003819       20.11658312628722      103.60844048373943
H           45.62079897514683       20.06900398337861      103.92109805065743
H           44.10958414944367       19.15952714320750      103.84351965067421
H           44.07698831197583       20.89017778528011      104.18573211882460
C           42.71614690088656       22.25286260307715      102.13166628614950
H           43.06232484583789       22.56605039347247      103.11559683371210
H           41.74697829086542       21.76290764387909      102.25732090020681
H           42.57150762871336       23.14153520676766      101.52142909721211
O           44.33168816014869       18.16521596527153       97.83175036925891
H           44.66678302837299       17.27241849528408       97.89992188859935
H           43.50865638666773       18.15924472029535       97.32740782373249
C           47.12161053318814       22.95111400266926       98.11628394704839
H           48.01971288776561       23.56037238977397       98.10294565844102
H           46.42639073793716       23.31465649955527       98.86538684069535
H           46.64014972347383       22.93169838523535       97.14387585641100
S           47.57255138953754       21.24972035262777       98.61842747564063
H           48.32722681646551       21.00417859044979       97.53066292144329
72
 energy: -105.972588201348 gnorm: 0.033707301655 xtb: 6.7.1 (edcfbbe)
Fe          45.84242004019872       19.75026788838731       98.17711581612129
N           44.68879037174153       21.07943627946228       97.22119142922418
N           46.74841755349981       19.29505003565345       96.43229520816682
N           46.92657467002878       18.35184439288802       99.11832961793193
N           44.94626872243359       20.22206354780502       99.90311502767160
C           43.73888588264645       21.88278565378191       97.76751926545876
C           43.11902270775305       22.70412657664802       96.75156221870024
C           43.71115466516314       22.36589546030100       95.57535141844723
C           44.70114343404979       21.36257069618462       95.89108716295324
C           46.55724204213882       19.89872406437268       95.22594448147670
C           47.51231639618374       19.42557461849966       94.25867984077333
C           48.28409924790100       18.49113192995129       94.90193874863984
C           47.78049605794450       18.42936869769877       96.26204127555336
C           47.91680827613269       17.59447580021473       98.57441111776586
C           48.51189733752270       16.74728788548905       99.57481587127698
C           47.84004677326109       16.99444121765791      100.74190706532038
C           46.87173884626676       18.02492347246313      100.43418459449377
C           45.23296855447314       19.71041584472477      101.12460085256488
C           44.47036389407132       20.38799140907567      102.14994016159706