78
 energy: -115.966880604454 gnorm: 0.316105799633 xtb: 6.7.1 (edcfbbe)
Fe         -11.66100000000000       -2.53500000000000       -1.42800000000000
N          -12.21500000000000       -0.77900000000000       -2.34300000000000
N           -9.87300000000000       -2.47300000000000       -2.50100000000000
N          -10.96800000000000       -4.08300000000000       -0.30900000000000
N          -13.30900000000000       -2.42400000000000       -0.19600000000000
C          -13.37700000000000       -0.12800000000000       -2.15000000000000
C          -13.40800000000000        1.00500000000000       -2.94900000000000
C          -12.22600000000000        1.02400000000000       -3.68300000000000
C          -11.53200000000000       -0.10200000000000       -3.28800000000000
C           -9.53900000000000       -1.62700000000000       -3.47300000000000
C           -8.42500000000000       -2.08200000000000       -4.18300000000000
C           -8.04900000000000       -3.27200000000000       -3.56700000000000
C           -9.00700000000000       -3.49500000000000       -2.57100000000000
C           -9.84800000000000       -4.79400000000000       -0.54700000000000
C           -9.68600000000000       -5.81200000000000        0.39300000000000
C          -10.76600000000000       -5.68100000000000        1.28000000000000
C          -11.56400000000000       -4.67700000000000        0.76000000000000
C          -13.67900000000000       -3.30900000000000        0.74700000000000
C          -14.98800000000000       -3.09800000000000        1.18100000000000
C          -15.45900000000000       -2.02300000000000        0.43800000000000
C          -14.37300000000000       -1.60500000000000       -0.35300000000000
C          -14.41800000000000       -0.57200000000000       -1.29400000000000
H          -15.36700000000000       -0.04400000000000       -1.38100000000000
C          -10.31100000000000       -0.50300000000000       -3.85300000000000
H           -9.91900000000000        0.11100000000000       -4.66400000000000
C           -8.99100000000000       -4.52200000000000       -1.63000000000000
H           -8.17800000000000       -5.23500000000000       -1.75300000000000
C          -12.82700000000000       -4.29800000000000        1.23800000000000
H          -13.19000000000000       -4.84800000000000        2.10600000000000
C          -11.76500000000000        2.03300000000000       -4.70700000000000
H          -12.53600000000000        2.82500000000000       -4.82100000000000
H          -11.61600000000000        1.53200000000000       -5.68700000000000
H          -10.81500000000000        2.50100000000000       -4.37200000000000
C          -14.51100000000000        2.08000000000000       -2.91400000000000
H          -14.93700000000000        2.14100000000000       -1.89000000000000
H          -15.32100000000000        1.81000000000000       -3.62500000000000
H          -14.08100000000000        3.06800000000000       -3.18500000000000
C           -7.71900000000000       -1.28600000000000       -5.27000000000000
H           -7.81900000000000       -0.20000000000000       -5.05900000000000
H           -8.18100000000000       -1.50500000000000       -6.25600000000000
H           -6.64000000000000       -1.55100000000000       -5.28900000000000
C           -6.94900000000000       -4.10600000000000       -3.85700000000000
H           -6.53600000000000       -4.70900000000000       -3.03600000000000
C           -6.29600000000000       -4.25800000000000       -5.13100000000000
H           -6.64400000000000       -3.69200000000000       -6.00800000000000
H           -5.44100000000000       -4.94200000000000       -5.24200000000000
C           -8.42500000000000       -6.67500000000000        0.54900000000000
H           -7.52300000000000       -6.03900000000000        0.42300000000000
H           -8.41700000000000       -7.47100000000000       -0.22600000000000
H           -8.40500000000000       -7.13100000000000        1.56200000000000
C          -11.01200000000000       -6.36000000000000        2.49700000000000
H          -11.40200000000000       -5.77700000000000        3.34300000000000
C          -10.79800000000000       -7.76700000000000        2.74400000000000
H          -10.40900000000000       -8.42100000000000        1.94900000000000
H          -11.02100000000000       -8.20100000000000        3.73000000000000
C          -15.78400000000000       -3.96800000000000        2.13300000000000
H          -15.36300000000000       -3.87900000000000        3.15700000000000
H          -15.72500000000000       -5.02900000000000        1.81000000000000
H          -16.84400000000000       -3.63500000000000        2.14900000000000
C          -16.85400000000000       -1.36700000000000        0.52600000000000
H          -17.24700000000000       -1.46800000000000        1.56000000000000
H          -17.55200000000000       -1.87300000000000       -0.17500000000000
H          -16.77800000000000       -0.28800000000000        0.27300000000000
O          -10.66700000000000       -1.16700000000000       -0.12200000000000
H          -10.86000000000000       -0.29200000000000       -0.46000000000000
H          -10.17300000000000       -1.35800000000000        0.59200000000000
C          -14.97400000000000       -6.36800000000000       -3.96100000000000
H          -14.51000000000000       -7.34700000000000       -4.20600000000000
H          -15.56500000000000       -6.02000000000000       -4.83500000000000
H          -15.63900000000000       -6.49400000000000       -3.08000000000000
N          -12.91100000000000       -5.00400000000000       -4.53700000000000
H          -12.82000000000000       -5.37000000000000       -5.46300000000000
C          -13.89500000000000       -5.36600000000000       -3.64500000000000
C          -12.11700000000000       -4.10100000000000       -3.96600000000000
H          -11.24900000000000       -3.65400000000000       -4.44900000000000
N          -12.56000000000000       -3.85100000000000       -2.74000000000000
C          -13.65800000000000       -4.64000000000000       -2.52300000000000
H          -14.18000000000000       -4.61300000000000       -1.57500000000000
78
 energy: -116.030377190623 gnorm: 0.124518566250 xtb: 6.7.1 (edcfbbe)
Fe         -11.65428598314559       -2.53202815270607       -1.41120758169545
N          -12.22182464126655       -0.81211888584327       -2.34776997124269
N           -9.90960293817551       -2.49289923567405       -2.51137351323277
N          -10.98298363620941       -4.08735199921236       -0.32803618201757
N          -13.30709026141673       -2.42835754360785       -0.21278886260550
C          -13.38420073804700       -0.14003304872794       -2.14682025198518
C          -13.41524496671383        1.02753135214821       -2.95281172252655
C          -12.24455254987097        1.03944735621101       -3.68349650693979
C          -11.52986673641308       -0.11763319937723       -3.28958023593623
C           -9.56595678134745       -1.62787798568534       -3.48738286188130
C           -8.41040863037568       -2.07331421471659       -4.18535527019683
C           -8.03704584186540       -3.27088751889006       -3.58839627389961
C           -8.99846373410098       -3.49419337266515       -2.54674131959669
C           -9.84589722308842       -4.79057902822946       -0.56160880229405
C           -9.67023649231368       -5.81204845676619        0.40935569093733
C          -10.75036211234309       -5.70429950681283        1.28264948633061
C          -11.56359748338883       -4.65642761680853        0.76550015377258
C          -13.66707899433216       -3.31518810842462        0.74564166893720
C          -15.00722397168581       -3.09600955001197        1.17432372442017
C          -15.46858693182235       -2.01861735098989        0.44894366781947
C          -14.37947838279503       -1.61233075427855       -0.38634313546290
C          -14.41799299043837       -0.56686303546783       -1.30093775515982
H          -15.35684025120850       -0.03183406021600       -1.37768845806591
C          -10.31314809514642       -0.50234522603441       -3.84701225914255
H           -9.92486661761246        0.10920262828916       -4.65286968888909
C           -8.97836190092985       -4.53331867802759       -1.62730045226899
H           -8.17120077137064       -5.24446588589683       -1.74951851334623
C          -12.82115054592531       -4.29870722743855        1.24757332278191
H          -13.19020845682954       -4.85819850669102        2.10031074369350
C          -11.77597204793239        2.03556254734974       -4.69986825890467
H          -12.52527364194771        2.82212609227855       -4.82535659341269
H          -11.61845094922983        1.54575437467255       -5.66941330444145
H          -10.83085886010394        2.49453169565109       -4.38202533793543
C          -14.50344908874538        2.07542494058148       -2.91758692119986
H          -14.92823238777344        2.14123370978960       -1.90968372583335
H          -15.30845351886013        1.81849168131273       -3.61674414137645
H          -14.09254073615538        3.05384010699302       -3.18531168964562
C           -7.71785310072917       -1.29101741775985       -5.26336540231696
H           -7.81429642705683       -0.21735262472616       -5.06524663072303
H           -8.16723226786773       -1.50180590453891       -6.24261122922059
H           -6.65415350981173       -1.54857478892750       -5.29243505334177
C           -6.92551898516029       -4.11354305069983       -3.89207505230822
H           -6.53578516536661       -4.71200848368961       -3.06719211235054
C           -6.30842792440871       -4.24898089187640       -5.09926380337331
H           -6.64726496066035       -3.70985143078464       -5.97721934010029
H           -5.46628771979767       -4.92209222022823       -5.22407828540230
C           -8.43635027683275       -6.66896068413930        0.55065593539778
H           -7.53918376074464       -6.05061000947478        0.42403714592577
H           -8.41890220105103       -7.45944462800342       -0.21023285224825
H           -8.40906321289944       -7.12640246893982        1.54496772597359
C          -11.00378832473171       -6.40616187738302        2.50616968695430
H          -11.40471717464995       -5.81050901350602        3.32950254618149
C          -10.79389232555063       -7.73103283275198        2.73854837332670
H          -10.42390947571797       -8.39144203370334        1.96117665214903
H          -11.01500876993039       -8.17367442986379        3.70476199847717
C          -15.78000041076247       -3.95866225437963        2.13011039450925
H          -15.36942068936987       -3.88202676856982        3.14479901447930
H          -15.72880201891691       -5.00943461798005        1.81849248769816
H          -16.82815218983018       -3.64498632228772        2.15179841696676
C          -16.83719392784586       -1.37399958373151        0.52925704455726
H          -17.23964078318440       -1.46586723147986        1.54384115207125
H          -17.53522184318018       -1.86254458394121       -0.16330243986749
H          -16.77899226471830       -0.31001604610621        0.27676242477091
O          -10.67746681893985       -1.15973216430318       -0.12310552297785
H          -10.84736667844746       -0.27541721994721       -0.44455978141825
H          -10.14698711077108       -1.34508181183430        0.62833919751512
C          -14.96553927157395       -6.36500407864127       -3.96248462982941
H          -14.52008403157992       -7.33729621785459       -4.20495990811849
H          -15.55956445400757       -6.02959485124087       -4.82128989091284
H          -15.62486094412658       -6.48842291426480       -3.09818017460633
N          -12.91903397571006       -5.01207160494783       -4.53870073160910
H          -12.82380417242130       -5.37920126333211       -5.46934720653813
C          -13.89823713466891       -5.36801749447562       -3.64586246473682
C          -12.12616506136964       -4.09687533737744       -3.95666672891538
H          -11.26711144672335       -3.65551720421760       -4.43503763951547
N          -12.55219636260284       -3.83911583535250       -2.73514494330285
C          -13.64923593940456       -4.62970350592390       -2.52623767125210
H          -14.16929699595022       -4.60716463289108       -1.58588956952563
78
 energy: -116.044695648828 gnorm: 0.041710712597 xtb: 6.7.1 (edcfbbe)
Fe         -11.64825423272723       -2.52755011839045       -1.40395856653348
N          -12.23618291727251       -0.84627639670590       -2.35994221953494
N           -9.94587547707196       -2.52123839044124       -2.52344170583480
N          -10.98952395790777       -4.08209061725177       -0.34389496388463
N          -13.30917171803800       -2.44554545298798       -0.24346217446495
C          -13.39386798801738       -0.15899596845618       -2.15066914289320
C          -13.41916056085086        1.03785075766696       -2.95351202942508
C          -12.26145674223420        1.04390565121242       -3.67880822755013
C          -11.53837392908865       -0.14056612568308       -3.29600901538423
C           -9.59864772110373       -1.64215582174632       -3.50032082847431
C           -8.40466082846708       -2.07252993426335       -4.17766070463238
C           -8.03381588692091       -3.26428384869661       -3.59182628393261
C           -9.00183711218136       -3.50123327884558       -2.53291313810907
C           -9.84471739796220       -4.78204009404172       -0.57631353989228
C           -9.66088982348658       -5.80070198490493        0.42304138723891
C          -10.73477300144392       -5.70451434282474        1.27880134331327
C          -11.56282611985514       -4.63690943880144        0.75936102902196
C          -13.65590666758097       -3.32519404405090        0.73345680994906
C          -15.01464072159612       -3.09421949185197        1.16318901149484
C          -15.46950298921509       -2.02226030554657        0.44962650315572
C          -14.38299602336110       -1.62862124908816       -0.42314352096881
C          -14.42071593449705       -0.56659005174918       -1.31048988878876
H          -15.34452566554418       -0.00669193652371       -1.36109602863760
C          -10.32483739608419       -0.51255910836885       -3.84609665420839
H           -9.92928224174760        0.11032980265415       -4.63520382646581
C           -8.96785141505476       -4.54849337846413       -1.62948013184245
H           -8.15624099925904       -5.25297331280824       -1.74044118906385
C          -12.81712547212112       -4.30304702324045        1.24728125085034
H          -13.18884590814462       -4.87042413584443        2.08998626674148
C          -11.78752467882456        2.03518477010480       -4.68848026598129
H          -12.52146391854493        2.82347533517527       -4.82388089559828
H          -11.62585167592559        1.55171738704702       -5.65251942931344
H          -10.84370924013214        2.48693202916787       -4.38087666759879
C          -14.49641590010522        2.06900977252906       -2.92067984413985
H          -14.92252848325527        2.14101172215955       -1.92243115406547
H          -15.29921533385506        1.81973430992460       -3.61453547620893
H          -14.09968992398021        3.04390195571479       -3.19210262607775
C           -7.71924398623774       -1.29926970063054       -5.25184688570730
H           -7.81174194805853       -0.23045078142708       -5.06712828005634
H           -8.15771067437152       -1.50705781315992       -6.22963458625687
H           -6.66292373317990       -1.55188494007505       -5.28882519694027
C           -6.91231505692817       -4.11568041803391       -3.90456988316289
H           -6.54277399605940       -4.71301993381008       -3.07652746529512
C           -6.32348957623611       -4.24611800390094       -5.07769453798149
H           -6.65317258152254       -3.72191320149038       -5.95782455773046
H           -5.48093313327388       -4.90423311081208       -5.21285604211299
C           -8.44963524086894       -6.66056081718695        0.55240418226088
H           -7.55010010002481       -6.05875788429138        0.42322004383111
H           -8.43350370158042       -7.44900839687965       -0.20067834689829
H           -8.41828478033335       -7.12227017462160        1.53571370144269
C          -11.00179839346432       -6.42728097293801        2.50579781699014
H          -11.41276220016391       -5.82176739262108        3.31070952915858
C          -10.79670399705229       -7.70752200887654        2.72517991053006
H          -10.42513916436207       -8.37200983861688        1.96371052779068
H          -11.00352909725612       -8.15725573789920        3.68311131904102
C          -15.77143006783982       -3.94664921142006        2.12758525536646
H          -15.36225533041765       -3.87477337409450        3.13517397144928
H          -15.72508160452672       -4.99246833798073        1.82332508497858
H          -16.81538937014676       -3.64717153543866        2.15701859371161
C          -16.81706342325064       -1.38163876072144        0.52880862225983
H          -17.22557990301165       -1.46935037569351        1.53350794286800
H          -17.51552535218839       -1.85957511781171       -0.16045045844192
H          -16.76746614031669       -0.32536848312104        0.27659606676673
O          -10.69197867946331       -1.15075029673707       -0.09308553168291
H          -10.80685834053659       -0.24943656109712       -0.40149205482943
H          -10.11997806986497       -1.31866475724775        0.65369136969818
C          -14.95759607011628       -6.36106759411744       -3.96010352678768
H          -14.52083020669732       -7.32893177192927       -4.20283619051396
H          -15.55242970442525       -6.03291456340446       -4.81187792800873
H          -15.61385076200668       -6.48190705455714       -3.10485280207629
N          -12.92430069794944       -5.01631875090038       -4.53957070061557
H          -12.82460255131164       -5.38556685711678       -5.47147206281502
C          -13.89908330652057       -5.36687834599752       -3.64324929703174
C          -12.13572478688078       -4.08994227027235       -3.95212854514967
H          -11.28402631778698       -3.65013905317325       -4.42767373399550
N          -12.54994633444058       -3.82646529477546       -2.73591642693132
C          -13.64331382269218       -4.61837823439178       -2.52823361190408
H          -14.16402179317661       -4.59892991250779       -1.59357874747812
78
 energy: -116.048588941892 gnorm: 0.024116293224 xtb: 6.7.1 (edcfbbe)
Fe         -11.64691214678284       -2.52135095370279       -1.40330813163703
N          -12.25283632999567       -0.86699480558326       -2.37443333771761
N           -9.96666691545967       -2.54187133726757       -2.53052561188418
N          -10.98957857566539       -4.07651345286417       -0.35551913265557
N          -13.31584448816347       -2.46342621874214       -0.27306872389975
C          -13.40456710171397       -0.17274495650435       -2.15943065665240
C          -13.42559340368095        1.03533338514316       -2.95637088532512
C          -12.27266275894985        1.03865733899078       -3.67949737554758
C          -11.55272593623881       -0.15847661680621       -3.30548818177892
C           -9.61976202882011       -1.65905912199033       -3.50716350385281
C           -8.40995683471411       -2.07944686540512       -4.17163076276476
C           -8.03785239005850       -3.26402824158955       -3.58499171200651
C           -9.01137388267924       -3.51126419903622       -2.53087570461852
C           -9.84196614759888       -4.77448905643133       -0.58124602015435
C           -9.65680205489100       -5.78830849812985        0.42937424158746
C          -10.72920232317308       -5.69195186481047        1.27505690858779
C          -11.56309367109953       -4.62703497075685        0.74717867723544
C          -13.65542419945106       -3.33763428746005        0.71152021047153
C          -15.01429428265913       -3.09886279751236        1.15018005890055
C          -15.46852445782413       -2.03128437848732        0.43872301500004
C          -14.38729907951626       -1.64421722909306       -0.44794615084011
C          -14.42758473848191       -0.56889932978874       -1.31679343362308
H          -15.33691954772361        0.01879092801830       -1.33735446878393
C          -10.33796772031609       -0.52577382053979       -3.84942277533425
H           -9.93179290691893        0.10970520897696       -4.62247293354338
C           -8.96090861120230       -4.55670917560210       -1.62907634347162
H           -8.14193484232373       -5.25491319567264       -1.72805311701488
C          -12.81851499225321       -4.30862069914985        1.23447371010856
H          -13.18963138236950       -4.88133718375678        2.07297889749279
C          -11.79501176350039        2.03430679795995       -4.68092853507630
H          -12.52375719474616        2.82758339900864       -4.81604861739164
H          -11.63406404812060        1.55438673690252       -5.64568556337191
H          -10.85027492953409        2.48023438336513       -4.37087714106683
C          -14.49992978794744        2.06555206564853       -2.92560221773135
H          -14.92523677469596        2.14480343512993       -1.92836254580025
H          -15.30293848850631        1.81427476079759       -3.61809178149210
H          -14.10555679365694        3.03916188287112       -3.20497747651143
C           -7.72087384603645       -1.30759310015850       -5.24225452267096
H           -7.81222970578286       -0.23825444760860       -5.06306502457311
H           -8.15355614630545       -1.51839532554780       -6.22137835434817
H           -6.66493967982622       -1.56121547854281       -5.27570315983215
C           -6.91070347917551       -4.11572522770528       -3.89215638076238
H           -6.54537398550495       -4.71182635020866       -3.06370400429515
C           -6.32102578961520       -4.24230314958326       -5.07444559934980
H           -6.66255504591682       -3.73034008845237       -5.95627589275719
H           -5.48096271096787       -4.90114416959118       -5.21490980585935
C           -8.45533306732216       -6.65688856096397        0.55405356186561
H           -7.54927311374408       -6.06653265208565        0.42158355752451
H           -8.45311956731553       -7.44492553813334       -0.19877829394756
H           -8.42687972199497       -7.12067596865038        1.53595866515735
C          -11.00479922117832       -6.41778364309755        2.50173882243358
H          -11.43169963065585       -5.81495973597253        3.29791841140185
C          -10.78146008978699       -7.70642113959558        2.71868226955609
H          -10.41403199252594       -8.36759337071985        1.95364091356314
H          -11.00012170670838       -8.16465380335399        3.66906869660773
C          -15.75999231640273       -3.93945415293613        2.13067296359880
H          -15.34000973298151       -3.85969547283498        3.13231333528556
H          -15.71734863228581       -4.98673879272788        1.83353150024884
H          -16.80398568828959       -3.64198816409296        2.16936779848040
C          -16.80777497044557       -1.38517220641605        0.52309724206462
H          -17.21448923521833       -1.47463824374940        1.52773212290776
H          -17.50712313418136       -1.85787318706075       -0.16780624835392
H          -16.75307334888886       -0.32949173356938        0.27343515787450
O          -10.72805364444150       -1.13447971809137       -0.02659738449067
H          -10.73729413569392       -0.22259829201056       -0.36226113834366
H          -10.07550241160734       -1.30043704168814        0.66837516368846
C          -14.95111925662110       -6.35786687890162       -3.95449704476219
H          -14.51412570004542       -7.32510048344371       -4.19695018709042
H          -15.54734286889788       -6.03314606817606       -4.80604014214487
H          -15.60675324213595       -6.47737213904422       -3.09972633096242
N          -12.92561439379646       -5.01242341115553       -4.54051635655009
H          -12.82395824809503       -5.38607081334462       -5.47069601133274
C          -13.89677556898430       -5.36121404107323       -3.63990842927424
C          -12.14166510533958       -4.07828724795526       -3.95602337948803
H          -11.29518105753597       -3.63415831687686       -4.43384268192783
N          -12.55118289388525       -3.81318179926222       -2.74063259650550
C          -13.64143177259168       -4.60639972595089       -2.52915092004417
H          -14.16330060983814       -4.58655738579632       -1.59609317042835
78
 energy: -116.049289225889 gnorm: 0.056550742722 xtb: 6.7.1 (edcfbbe)
Fe         -11.65357045401382       -2.52182650825207       -1.41218430146519
N          -12.26427689935295       -0.87971353009216       -2.37907196831251
N           -9.97768298795819       -2.55258876287161       -2.52384280743388
N          -10.98630396545574       -4.06838603086062       -0.36461639209294
N          -13.32184782914880       -2.48248642772194       -0.30516716303760
C          -13.41214637550569       -0.18354005939292       -2.16329620598358
C          -13.43211744622472        1.02965938590520       -2.95812842191845
C          -12.28220756672023        1.03094024109994       -3.68004844098131
C          -11.56493162284850       -0.17280960463195       -3.30913961781497
C           -9.63476276779686       -1.67184551690995       -3.50554074267908
C           -8.42011739347150       -2.08730309191261       -4.16466929314567
C           -8.04488932824249       -3.26482157020280       -3.57507739661446
C           -9.01955449544365       -3.51638885502153       -2.52429301689505
C           -9.83617196987749       -4.76424754580116       -0.58091373960939
C           -9.65350296021149       -5.77652016291206        0.43453027092322
C          -10.72836255973743       -5.68036213302223        1.27023699543668
C          -11.56319896899675       -4.61822061966838        0.73335896402423
C          -13.65624012576686       -3.35198390260744        0.68403519756688
C          -15.01145284860838       -3.10655763462629        1.13462228052672
C          -15.46594926928711       -2.04202194328577        0.42431292304995
C          -14.38939406116973       -1.65921131251453       -0.46913377808079
C          -14.43275326103102       -0.56939588462019       -1.31753103106737
H          -15.32761050933416        0.03962617658973       -1.31163858586157
C          -10.34874507490182       -0.53705673951733       -3.84825735963919
H           -9.93572831696073        0.10488613406539       -4.61155035963569
C           -8.95011622697521       -4.56003560402758       -1.62311284036770
H           -8.12657999849678       -5.25340539103499       -1.71289004859427
C          -12.82224462446902       -4.31682687895809        1.21614030312788
H          -13.19219659208970       -4.89442168015250        2.05067130249340
C          -11.80037984046302        2.03095812698071       -4.67448884432199
H          -12.52682699631003        2.82895297893532       -4.80465093016925
H          -11.64075701161590        1.55601816309105       -5.64236782592268
H          -10.85517203752381        2.47238495999099       -4.35781297711621
C          -14.50821170990227        2.05936761271690       -2.93249193191205
H          -14.93042613326436        2.15154561963722       -1.93421720000433
H          -15.31352456122849        1.79931128630098       -3.62089040278305
H          -14.11488237882884        3.03102989049257       -3.22584871751446
C           -7.72544822141712       -1.31730336379011       -5.23294463870726
H           -7.81433159200512       -0.24647623437156       -5.05708033578016
H           -8.15348666521528       -1.53182138154710       -6.21393806339811
H           -6.66903246157024       -1.57584602952525       -5.25794798088715
C           -6.91700291770406       -4.11923959417811       -3.87662686870073
H           -6.54175284655916       -4.70462437127268       -3.04751988834392
C           -6.33251190281748       -4.24982411592518       -5.06741818697960
H           -6.67599129538946       -3.73191820053888       -5.94406321230282
H           -5.48171106827946       -4.89611275644432       -5.20526827198220
C           -8.45951267299833       -6.65576278535558        0.55463832713076
H           -7.54481448036426       -6.07865540145266        0.41789903378592
H           -8.47626854485294       -7.44397618339715       -0.19925161814079
H           -8.43498538206337       -7.12013372102286        1.53747824989250
C          -11.01749158032638       -6.40906852086467        2.49173202126094
H          -11.45602529511879       -5.81513937506873        3.28480304129055
C          -10.78405588264516       -7.70258594261399        2.70116874942438
H          -10.38226784845743       -8.34719670725647        1.93921236499643
H          -10.99256474938282       -8.16367109521552        3.65233502120027
C          -15.74279994449422       -3.93346838006055        2.13706338319383
H          -15.30422828335813       -3.83796285926488        3.13033101983134
H          -15.70550478609561       -4.98530812853224        1.85256419196084
H          -16.78682941934268       -3.63383705606065        2.18987932696246
C          -16.80069589237963       -1.38787954534777        0.51329734209259
H          -17.20648240275010       -1.48315855426262        1.51847959893566
H          -17.50240189178233       -1.85124721425928       -0.18261794489238
H          -16.73697742473636       -0.33012547951769        0.27182662285673
O          -10.78833615654535       -1.11335591835061        0.05958895940633
H          -10.65652228039080       -0.20599554072200       -0.32470312275748
H           -9.99890704704726       -1.27460657972315        0.65195309327111
C          -14.94622400600960       -6.35662420675760       -3.94812205432782