78
 energy: -116.058077846877 gnorm: 0.000036023642 xtb: 6.7.1 (edcfbbe)
Fe         -11.66057377905181       -2.51736885464912       -1.36603733556743
N          -12.27514164959205       -0.87422677733432       -2.35426925192344
N           -9.96956440573517       -2.52776069242578       -2.46466959270123
N          -11.01571282919951       -4.10772200305731       -0.35210906351607
N          -13.30983372214515       -2.45740863128896       -0.25155912097134
C          -13.45343022208989       -0.21613929505276       -2.18887408416502
C          -13.55601253989665        0.88931152241589       -3.11383217541487
C          -12.41019481254404        0.88309498792879       -3.84774848524402
C          -11.62474670996180       -0.22938251499543       -3.36351038410648
C           -9.62809619111235       -1.65951876285121       -3.45939045526617
C           -8.36815287357025       -2.02633984308101       -4.04935859325402
C           -7.95184386283988       -3.15792742837191       -3.39662959611143
C           -8.96830732702156       -3.44501928114139       -2.40484901218247
C           -9.86578727229745       -4.80304939494686       -0.56607047121860
C           -9.75687780066126       -5.91035188230489        0.35100811623200
C          -10.87982661002787       -5.87237872765512        1.13287396969713
C          -11.64728804072880       -4.72998337519038        0.67309994756651
C          -13.64029561855613       -3.30471739012075        0.75634110588125
C          -14.92674844002700       -2.95467446207466        1.32073055502431
C          -15.36618137098579       -1.87438529008868        0.62353223045643
C          -14.34094903459892       -1.57920129977305       -0.35516452507905
C          -14.42355345201144       -0.53686791096992       -1.25778511357283
H          -15.31069237680829        0.07709938507396       -1.23243922955833
C          -10.39082709730707       -0.58021152879806       -3.87639046724848
H          -10.00200681373065        0.02080409258542       -4.68419965016014
C           -8.91760482587658       -4.51301638212306       -1.53042498827218
H           -8.07027125974688       -5.17690751975086       -1.60656920600074
C          -12.87524978428259       -4.36796469982697        1.19502484746736
H          -13.27084439245531       -4.96374338996092        2.00351035055554
C          -11.98326485125927        1.80188091901131       -4.94119494837993
H          -12.73683496025212        2.56453302607123       -5.12108896999109
H          -11.82602906561221        1.25032468238156       -5.86870007473353
H          -11.04804843776379        2.29918800131837       -4.68224171811184
C          -14.71985816575579        1.81687575560737       -3.18898269581695
H          -14.86107499730956        2.33225427628487       -2.23865928541249
H          -15.63384554322094        1.26659294231278       -3.41318641296052
H          -14.57072708479826        2.56415919210784       -3.96457045095361
C           -7.65962621278533       -1.25572935034946       -5.10868429005709
H           -7.79473147024661       -0.18486314490866       -4.96335550712661
H           -8.03918913120736       -1.51194609878252       -6.09948741943070
H           -6.59490967575237       -1.47876298144927       -5.08209667432707
C           -6.74315539526216       -3.92845290421841       -3.58613677375281
H           -6.33584398444368       -4.38731352177566       -2.69270910271009
C           -6.11989578867706       -4.11521312119202       -4.74515552893838
H           -6.50263473275243       -3.72512871644713       -5.67207874312617
H           -5.21240256342486       -4.69232274430471       -4.80961416856454
C           -8.59473696004080       -6.83638918451093        0.44362334179763
H           -7.65976891718568       -6.29678390452646        0.29997657853433
H           -8.65533151554151       -7.61538653951385       -0.31831105101295
H           -8.57435028061978       -7.31249998683065        1.42174397585351
C          -11.26533342413988       -6.73889730719008        2.22475733662462
H          -11.80798161551040       -6.26072247802400        3.03197588821503
C          -11.01420255296680       -8.04185894480926        2.30050814907542
H          -10.52115360558975       -8.57714422244347        1.50777117539101
H          -11.31849551277741       -8.62595051986014        3.15327070500210
C          -15.57556907802817       -3.68119102283177        2.44844707165675
H          -14.94456749606598       -3.64823964725368        3.33674904731874
H          -15.73907459658139       -4.72743781623499        2.18858985662461
H          -16.53616911486580       -3.23535288577814        2.69458251272478
C          -16.62850329165393       -1.09772384462129        0.77955266219319
H          -17.24344243083415       -1.51472567411080        1.57324399713020
H          -17.20524243726492       -1.11305963658515       -0.14559001592947
H          -16.41074342679293       -0.05804910419706        1.02511340466715
O          -10.56600949152543       -1.08411098692393        0.05219027930221
H          -10.92418040879416       -0.24707480788072       -0.26294953527855
H           -9.67136865283361       -1.15875003983435       -0.29735023845279
C          -14.58766561236951       -6.51287213326645       -3.92353199581986
H          -14.03650960878277       -7.23973148815508       -4.52010223254594
H          -15.48085470501089       -6.22433392041840       -4.47754917236155
H          -14.89119522628092       -6.98441672136438       -2.99420738042730
N          -13.22348883422918       -4.52836430415675       -4.61048161020868
H          -13.35028283905401       -4.65618992882600       -5.60100775388108
C          -13.74479001596865       -5.32715182807530       -3.62664106971596
C          -12.51149021830562       -3.54924345163079       -4.00876079595553
H          -11.99029437321731       -2.77649207662758       -4.53485414389507
N          -12.55045275797261       -3.67919911402918       -2.70499486621417
C          -13.31427673257588       -4.78069855584167       -2.45166393251977
H          -13.50078709121989       -5.10407678548807       -1.44839774485498
