78
 energy: -115.879944288007 gnorm: 0.396391714815 xtb: 6.7.1 (edcfbbe)
Fe          17.18200000000000        2.27200000000000       21.59000000000000
N           16.23000000000000        2.39000000000000       23.44100000000000
N           17.25600000000000        4.36800000000000       21.50700000000000
N           17.92100000000000        2.11500000000000       19.67300000000000
N           16.87800000000000        0.22400000000000       21.61300000000000
C           15.75300000000000        1.43400000000000       24.20000000000000
C           15.16900000000000        1.83400000000000       25.51700000000000
C           15.29800000000000        3.28300000000000       25.48000000000000
C           15.96200000000000        3.49800000000000       24.16800000000000
C           16.78500000000000        5.23900000000000       22.40500000000000
C           16.94700000000000        6.65400000000000       22.07100000000000
C           17.52500000000000        6.54700000000000       20.74900000000000
C           17.72100000000000        5.11200000000000       20.51800000000000
C           18.42400000000000        3.13300000000000       18.92500000000000
C           18.97700000000000        2.76900000000000       17.62200000000000
C           18.84300000000000        1.32100000000000       17.66600000000000
C           18.22300000000000        1.03900000000000       18.98700000000000
C           17.15400000000000       -0.64900000000000       20.63500000000000
C           16.82900000000000       -2.03900000000000       20.95600000000000
C           16.19300000000000       -1.92600000000000       22.27600000000000
C           16.28700000000000       -0.48300000000000       22.56800000000000
C           15.79400000000000        0.06500000000000       23.82400000000000
H           15.41600000000000       -0.65200000000000       24.55300000000000
C           16.23900000000000        4.84700000000000       23.71300000000000
H           16.02000000000000        5.65300000000000       24.41300000000000
C           18.32100000000000        4.55400000000000       19.30400000000000
H           18.74000000000000        5.27200000000000       18.59900000000000
C           17.88200000000000       -0.31200000000000       19.40700000000000
H           18.19000000000000       -1.13400000000000       18.76100000000000
C           14.86100000000000        4.21800000000000       26.56600000000000
H           15.69900000000000        4.37700000000000       27.27800000000000
H           14.00000000000000        3.78000000000000       27.11400000000000
H           14.57300000000000        5.19600000000000       26.12500000000000
C           14.57800000000000        1.01700000000000       26.64900000000000
H           15.06600000000000        0.01900000000000       26.68000000000000
H           13.48800000000000        0.88000000000000       26.48400000000000
H           14.75300000000000        1.53400000000000       27.61600000000000
C           16.53500000000000        7.84400000000000       22.87300000000000
H           17.41800000000000        8.25400000000000       23.40900000000000
H           15.76700000000000        7.54600000000000       23.61900000000000
H           16.12600000000000        8.62700000000000       22.19900000000000
C           17.94900000000000        7.62700000000000       19.84400000000000
H           18.36100000000000        7.39200000000000       18.85200000000000
C           17.83400000000000        9.05100000000000       20.23999999999999
H           17.58400000000000        9.32400000000000       21.27600000000000
H           17.99800000000000        9.85100000000000       19.50200000000000
C           19.58600000000000        3.72200000000000       16.61400000000000
H           20.63000000000000        3.95900000000000       16.91100000000000
H           18.99800000000000        4.66400000000000       16.58500000000000
H           19.59600000000000        3.24900000000000       15.60900000000000
C           19.28500000000000        0.30600000000000       16.71400000000000
H           19.14500000000000       -0.76500000000000       16.92100000000000
C           19.93000000000000        0.71300000000000       15.45200000000000
H           20.23000000000000        1.75900000000000       15.29000000000000
H           20.11800000000000       -0.02500000000000       14.65800000000000
C           17.05300000000000       -3.27900000000000       20.17100000000000
H           18.14000000000000       -3.50400000000000       20.13600000000000
H           16.68000000000000       -3.13900000000000       19.13400000000000
H           16.52400000000000       -4.12900000000000       20.65300000000000
C           15.59800000000000       -3.01000000000000       23.08700000000000
H           16.37500000000000       -3.44600000000000       23.75100000000000
H           15.20600000000000       -3.80700000000000       22.41900000000000
H           14.77600000000000       -2.60200000000000       23.71400000000000
O           14.94100000000000        2.45800000000000       20.67800000000000
H           14.78000000000000        3.39400000000000       20.56300000000000
H           14.37500000000000        1.80000000000000       20.48600000000000
C           22.88600000000000        2.94500000000000       22.28200000000000
H           23.57300000000000        2.07700000000000       22.19200000000000
H           23.21000000000000        3.57400000000000       23.13900000000000
H           22.92500000000000        3.53500000000000       21.34100000000000
N           21.14699999999999        1.68700000000000       23.60200000000000
H           21.78000000000000        1.42400000000000       24.33000000000000
C           21.48900000000000        2.45500000000000       22.51400000000000
C           19.86900000000000        1.35900000000000       23.53000000000000
H           19.36300000000000        0.69900000000000       24.23400000000000
N           19.32300000000000        1.97200000000000       22.46000000000000
C           20.34100000000000        2.61900000000000       21.80100000000000
H           20.15400000000000        3.14400000000000       20.87300000000000
78
 energy: -115.987036574269 gnorm: 0.180617209407 xtb: 6.7.1 (edcfbbe)
Fe          17.16328597266864        2.26607958439751       21.59042709996567
N           16.22293784254004        2.40599042007529       23.45759740548175
N           17.25068453872523        4.36926258862879       21.50929930726963
N           17.94089279966364        2.12767579627457       19.67383312077512
N           16.86745012289009        0.22540079350736       21.60419996430580
C           15.75573800784450        1.40194043939422       24.21051774813832
C           15.18245220905914        1.85480150848169       25.49710305075888
C           15.30921890635454        3.25302951088072       25.45944918103846
C           15.96296558154543        3.53615780565122       24.16810458957232
C           16.78786763451276        5.23440661388296       22.44143976058662
C           16.95282183824002        6.62543602441434       22.04680510499630
C           17.55062835490466        6.55497678147565       20.75940023354695
C           17.72613099543208        5.11411907796366       20.49206538310265
C           18.40739290486031        3.17371090513527       18.92755073502535
C           18.97330304393549        2.74865936010272       17.65456516571821
C           18.86553533441781        1.32783311362591       17.67514314866140
C           18.21331199209173        1.01637700875719       18.97455643748363
C           17.19084357774266       -0.64857867980991       20.62125606077188
C           16.81842962280946       -2.01322563084791       20.97887570833631
C           16.20827430137179       -1.90573730554502       22.24997521819521
C           16.28109050890203       -0.48434159453163       22.58747456354470
C           15.79813402626054        0.05272558588711       23.81838831872201
H           15.41555358327994       -0.65700145546384       24.54127657686001
C           16.24210461604103        4.84384158720994       23.70828013402764
H           16.01870960493736        5.64530306936575       24.40230135706620
C           18.30925006266411        4.55324999152736       19.31288554918948
H           18.73185741254131        5.26304206179842       18.61023041875965
C           17.87728698674372       -0.29972560801943       19.41332933957882
H           18.17732540895414       -1.12188500120900       18.77207869164717
C           14.87181620370610        4.20296720859335       26.54251882880166
H           15.68712018539690        4.37499249786949       27.26415494100807
H           14.01773558818209        3.78802475851829       27.09804798555329
H           14.57735905412693        5.17901319311728       26.13103340568276
C           14.59220149955919        1.03023847789402       26.62200143087878
H           15.05904049771040        0.03593012045225       26.67622311703459
H           13.50857609376608        0.88437638264109       26.48400249253953
H           14.75034732990395        1.52697334297489       27.59088745554440
C           16.53943235159454        7.81923000646875       22.85809204091336
H           17.40285403317146        8.24466340574430       23.39771164064971
H           15.77967118372494        7.54922131227653       23.60497562431618
H           16.12252971469422        8.60632562014169       22.21349276699424
C           17.93709107118467        7.65635676313243       19.88111348950223
H           18.33259977378592        7.40953107059142       18.88795989260445
C           17.84028917580732        9.00094438059648       20.22554256569697
H           17.59456545787960        9.30793671111095       21.23711550369099
H           18.00865884847503        9.80733294502454       19.51027758494548
C           19.57078391367360        3.70259357395701       16.63966476126367
H           20.61051265998030        3.95230104051009       16.90897857273460
H           19.00440709870080        4.64378156434574       16.58977953523952
H           19.58329982652021        3.26859266039977       15.63220891145266
C           19.29750897915791        0.34861342522096       16.68860768818660
H           19.14199856517844       -0.71726734212275       16.90003920215089
C           19.91218707171248        0.69345047776652       15.49275615836745
H           20.21692666410361        1.71577962856178       15.29702261144589
H           20.11321554412141       -0.02511330202314       14.69915200288880
C           17.04815999038615       -3.25901853441874       20.18272448437952
H           18.12222555102266       -3.50024944478737       20.13627841037809
H           16.68572000674827       -3.14209219475331       19.15015878768191
H           16.53200608037015       -4.11314349289373       20.64314067840316
C           15.60830622492132       -2.99559442790186       23.07521191227760
H           16.36284041498866       -3.44200030452369       23.74268200241310
H           15.21147671011592       -3.79421734005180       22.43182119366671
H           14.78950594403503       -2.61146526386326       23.70139422666651
O           14.97484388185889        2.47094617410261       20.68791914181179
H           14.77317872579446        3.39504788037395       20.56043290184831
H           14.36343583062079        1.78944794969277       20.48177835478108
C           22.88355065925020        2.94248429860283       22.28378986595760
H           23.56963833438459        2.08949857628859       22.19265322561343
H           23.21104504691469        3.56809905179269       23.12515923726209
H           22.92432740897663        3.52724009501155       21.35790440017247
N           21.15435876230128        1.68501740252630       23.59527981779416
H           21.78709624695000        1.41772484454670       24.32941863581931
C           21.49187989805083        2.45841919494034       22.51439535761339
C           19.85449757361815        1.37718672014382       23.51825619192741
H           19.35565260448326        0.72104319380526       24.21748277912630
N           19.31306967867628        1.96043967575856       22.45185600546390
C           20.33229554108536        2.61760845442598       21.81177638096095
H           20.15168270669405        3.14026321440714       20.88771642476829
78
 energy: -116.020976724880 gnorm: 0.056992084432 xtb: 6.7.1 (edcfbbe)
Fe          17.14637030110980        2.26054638498985       21.59056931806919
N           16.22095830163503        2.41458204048734       23.46622122115399
N           17.24609849646819        4.36236943559068       21.51112384947309
N           17.94615530235338        2.13839571090120       19.67764352755625
N           16.86215532810572        0.23679219402631       21.59889902318461
C           15.76282254463572        1.37773894335006       24.21268923567004
C           15.20109823866970        1.87187286618393       25.47486548530480
C           15.32234382812442        3.22771629131788       25.43983591260071
C           15.96803098634497        3.55893946404099       24.16367303012685
C           16.79045737100648        5.22225694999317       22.46800839354145
C           16.96721563938319        6.59569416328439       22.03346413766431
C           17.56687059847218        6.54727877554681       20.77957593896214
C           17.73222617543489        5.10712775253662       20.47846280929742
C           18.39251550038219        3.20349241522232       18.94163326315974
C           18.96886534157802        2.73601415475239       17.68902163374863
C           18.87743155327580        1.34826572199563       17.69685613746292
C           18.21410741603216        1.00472861644574       18.97845815933649
C           17.21600713432835       -0.63568610209964       20.61015443475614
C           16.81645751610550       -1.98675337163487       20.99983217792593
C           16.22561248062948       -1.88556423308710       22.22553990350662
C           16.27731610017943       -0.47779912718797       22.59925276447327
C           15.80407956529842        0.04571254914445       23.80726849718441
H           15.41363367749489       -0.66291204211200       24.52433412259484
C           16.24717169516537        4.83726257487254       23.70129014465437
H           16.01329132971523        5.63949556549053       24.38887610505071
C           18.29577752093740        4.54978774931342       19.32550759161639
H           18.71702471116120        5.25700580860194       18.62129803475080
C           17.87597780473304       -0.28069231703540       19.42573618392489
H           18.15988676258942       -1.10526745042105       18.78147873176655
C           14.88365784721404        4.18800507401624       26.51737589829241
H           15.68661473467449        4.36579128785341       27.24066609425559
H           14.03420405307425        3.78543383935729       27.07354491918081
H           14.58663600929929        5.15776656613646       26.11729870564321
C           14.60941064152558        1.04487055117302       26.59183630276912
H           15.06416203612585        0.05538027222769       26.65549429144785
H           13.53133518927066        0.89772774016699       26.46533028879894
H           14.75603843749694        1.53158200745059       27.55916579676384
C           16.54585286187791        7.79272632022921       22.84377514121420
H           17.39706731291815        8.22708324141897       23.38077072853533
H           15.79306592245917        7.53319911980963       23.58830132489372
H           16.11885749186831        8.57565137909002       22.21522586618022
C           17.92595457754020        7.66692431712810       19.91610650844837
H           18.29076315458099        7.40628028086844       18.91869749472045
C           17.84938058548989        8.94781466056910       20.21988443506014
H           17.59357023405076        9.29561214862312       21.20683316092056
H           18.03460157609474        9.75015216866399       19.51478464507932
C           19.55565269991492        3.68410681805549       16.66758024081910
H           20.59208078079730        3.93671232903663       16.91934738385084
H           18.99832801516425        4.62091580878603       16.61505883603931
H           19.55939194644335        3.27464665779648       15.65998839003981
C           19.30567440282022        0.39152797575938       16.68089228665550
H           19.11502172924664       -0.66485776847778       16.89276078151259
C           19.89407045179691        0.68253368815640       15.53586887767803
H           20.20204283842493        1.68463093829932       15.29305661198212
H           20.11441169912092       -0.03745238254029       14.75839988015683
C           17.04550180229353       -3.23578620809171       20.19428478122265
H           18.11003679980358       -3.48285292474557       20.14255342141031
H           16.68642480925911       -3.12875545908853       19.16826798503394
H           16.53570477221530       -4.08939656671833       20.64209156349229
C           15.62006852797200       -2.97949866681558       23.06040839017693
H           16.36135932408902       -3.42790894100933       23.72892243574237
H           15.22103840843217       -3.77753554849585       22.43276891203695
H           14.80447786858995       -2.60668296555229       23.68174207759838
O           15.01556727886602        2.47473319395540       20.69314677145503
H           14.75523143673802        3.38676265444632       20.55549128621715
H           14.36839907674410        1.80112641487416       20.48504114671791
C           22.87845116877491        2.94055520129610       22.28488555657598
H           23.56463986242650        2.09787032031057       22.19375912755676
H           23.21047471080433        3.56403568667579       23.11532319574136
H           22.92099508450340        3.52248223921448       21.36950512156123
N           21.15635284897255        1.67928911847580       23.58876362658271
H           21.78652783198033        1.40634161561264       24.32677996176403
C           21.49051275055257        2.45960526008922       22.51335660123719
C           19.83826914068144        1.39352161533649       23.50382175640611
H           19.34069114919854        0.74801758943104       24.20260430125730
N           19.30366889587433        1.96323507236676       22.44947276768888
C           20.32423964188271        2.61730661699614       21.81787335608695
H           20.15056035870525        3.14336815727221       20.90052119698185
78
 energy: -116.032285329859 gnorm: 0.030134082580 xtb: 6.7.1 (edcfbbe)
Fe          17.13861869983164        2.26034131930796       21.59434209350460
N           16.23260046802273        2.41061532527354       23.46034360603779
N           17.25012982198756        4.34406637282557       21.52177573377863
N           17.94180375996630        2.14840634291936       19.69821976210296
N           16.86768536847550        0.25569330693217       21.60158111180894
C           15.77703695546240        1.37005485941278       24.20504839260445
C           15.21898219033756        1.86733063872074       25.45713092259069
C           15.33754504046755        3.22149919375297       25.42385850425474
C           15.97969826911676        3.55388918032876       24.15645248970409
C           16.80055812106372        5.20362610907591       22.48012959610014
C           16.97631555120213        6.57064348531174       22.04208786239419
C           17.57458851997804        6.52276164456996       20.80076876558486
C           17.73404914160780        5.09245130490709       20.49167613930060
C           18.38163716609053        3.21326490864645       18.96463809478329
C           18.96275277319468        2.74445572286542       17.72056108734477
C           18.87447567029766        1.36847977352305       17.72722166599782
C           18.21243123468951        1.01695639503379       18.99650013155327
C           17.22862655115689       -0.61454320282879       20.61430575673357
C           16.82776480245512       -1.96350324262339       20.99886470440607
C           16.23572596219836       -1.86778330287055       22.22036333570483
C           16.28273182304498       -0.46499289032198       22.59807030377966
C           15.80918294834859        0.04209924643084       23.80197312841051
H           15.40725456976772       -0.67209016300486       24.50828705607974
C           16.25174298495331        4.83191823552318       23.70432677138416
H           16.00170539996740        5.63669880911982       24.38323992067444
C           18.28626816648737        4.55398475363152       19.33612806758518
H           18.69870697844858        5.26317675034960       18.62986589049557
C           17.87674116842133       -0.26435742475037       19.43234482010057
H           18.14336636779780       -1.08813952296967       18.78075944492088
C           14.89701862083145        4.17942797173357       26.49262675234641
H           15.69977264788679        4.35656025326072       27.21240974443727
H           14.04802526836060        3.77436562796214       27.04249036264837
H           14.59989427905996        5.14257130868070       26.08420896266944
C           14.62479045197699        1.04834153068145       26.56526613736623
H           15.08039910509179        0.06221110120536       26.62507397980858
H           13.54965634232371        0.91059725400867       26.42861224599832
H           14.77062479203894        1.54176880578152       27.52606906163032
C           16.54406978537526        7.76353329062206       22.84038538188679
H           17.39516394793619        8.20844778906998       23.36359746853853
H           15.80074166351997        7.49454860411339       23.58681637930549
H           16.09758828335402        8.52956721533326       22.20828751250807
C           17.91977752640797        7.63081186107911       19.92840500700145
H           18.24599745657343        7.35786097961239       18.92535841717270
C           17.86591473017520        8.93403763530406       20.21588681145093
H           17.60859556632507        9.31163130328010       21.18976742194270
H           18.08708214767301        9.70599411751873       19.49305609613305
C           19.53756411234593        3.68307892711097       16.69844454047233
H           20.57713870995710        3.92218618767063       16.93937835378354
H           18.97940849722479        4.61665069860739       16.66341059823108
H           19.51639668577131        3.27552048870907       15.69261313506775
C           19.28552859343440        0.41334824599202       16.71052766965736
H           19.05651443987415       -0.63038432310145       16.92262926608624
C           19.89995608421041        0.66998304165101       15.55279785833619
H           20.20653920741765        1.66146667109492       15.26637571373659
H           20.12855727020742       -0.08679317142524       14.81700751411359
C           17.04901871082384       -3.20924446098085       20.19508179126683
H           18.11088940301282       -3.45596931727851       20.14571815736768
H           16.68552343975360       -3.09825357010085       19.17396977783088
H           16.53621637657029       -4.05720125512747       20.64567837073444
C           15.63152326077188       -2.96319768913321       23.04823093204996
H           16.37233475578124       -3.40821432810058       23.71580433410834
H           15.23577304677590       -3.75859010546685       22.41876878128967
H           14.81456808465281       -2.58988247560012       23.66271099253086
O           15.04870057543255        2.48171582881311       20.67738752074585
H           14.73919008375560        3.38493890392993       20.55640689044514
H           14.38684197481094        1.81079518155555       20.49839190145071
C           22.87083934690149        2.93728824830969       22.28571757849176
H           23.55905408611291        2.09746843247754       22.19301720362995
H           23.20654649478124        3.56076024935360       23.11372845100049
H           22.91395157218586        3.52192219921033       21.37324064092415
N           21.14361274213698        1.67309480849964       23.58150515140787
H           21.77191790388089        1.38815248887739       24.31707255922987
C           21.48202359847426        2.45925398212397       22.51103075848525
C           19.81733482022224        1.40989397001399       23.49531656412898
H           19.30736425765669        0.78041884825266       24.19675532099502
N           19.29170870843349        1.97910835032215       22.44061130246048
C           20.31720395535294        2.62982052463571       21.81686798692166
H           20.14942011152632        3.16458384076411       20.90561948045401
78
 energy: -116.039999521194 gnorm: 0.024010964884 xtb: 6.7.1 (edcfbbe)
Fe          17.14266661606976        2.26490562025688       21.59967428440439
N           16.25177430598425        2.40357321521324       23.44439255789620
N           17.25674700366520        4.32071671632539       21.53485865810633
N           17.93748920313291        2.15773274798355       19.72694267672915
N           16.87784081215730        0.28344079363162       21.60633159666892
C           15.79538918837808        1.36622502297246       24.19235558401190
C           15.24142387141555        1.85827925579124       25.43724070516929
C           15.35715940476600        3.21529018619851       25.40450580905003
C           15.99623494637315        3.54064917743115       24.14554812247572
C           16.80909325247803        5.18218303786333       22.48878451879527
C           16.98057011288780        6.54555450710311       22.05464987714437
C           17.57240759837888        6.49792858667409       20.81694628135152
C           17.73437570836646        5.07729442672714       20.51079773101825
C           18.37227015180306        3.21820289867495       18.99262164871728
C           18.94762547888752        2.75812810633788       17.75036439216725
C           18.85950861708286        1.38682673868504       17.75279354916789
C           18.20850900664286        1.03334878476451       19.01601644658557
C           17.23732979218946       -0.58671103473427       20.62162694161368
C           16.84273999220258       -1.93571972215639       20.99440080349158
C           16.24643481793876       -1.84609927960594       22.21602918107288
C           16.29274521273164       -0.44799120779206       22.59441177855594
C           15.81439252787135        0.04020327830080       23.79706312186746
H           15.40146631007211       -0.67917441975328       24.49190511245856
C           16.25593403098812        4.82390828355301       23.70808527967715
H           15.99175102332073        5.62750762895255       24.38138097651198
C           18.28061501734017        4.55905157229639       19.35036998409907
H           18.67728160838053        5.27163800999870       18.64049746829476
C           17.87611299973369       -0.24715128630099       19.43758741964591
H           18.12649487563946       -1.07000145921124       18.78043861596471
C           14.91359284984081        4.17142942846605       26.46286980107151
H           15.71679664535150        4.35141587097126       27.17951287613493
H           14.06380190178397        3.76440520608709       27.00791265653097
H           14.61703682261370        5.12824749774390       26.04157621837177
C           14.64283534654021        1.04636571295862       26.53655385895573
H           15.09830608789411        0.06154982206011       26.59289664914979
H           13.56959294022429        0.91758111139198       26.38614238965659
H           14.78696331645338        1.54538061332203       27.49314533895091
C           16.54193587433824        7.73606325910631       22.83794841455929
H           17.39362700333798        8.19575011486634       23.34323282179224
H           15.80982763256410        7.45849484116706       23.59162693727561
H           16.08098231595276        8.48056340391024       22.19146859049092
C           17.91155161937384        7.59115121282857       19.93673614678620
H           18.21420275825697        7.30903851548415       18.93593404859551
C           17.88906350280292        8.89900148033120       20.21386984470127
H           17.64076811296258        9.30150403483687       21.17782729789333
H           18.13066364981898        9.63456293119465       19.46278634172168
C           19.51469732363982        3.68540306366041       16.72889895335544
H           20.56107340294292        3.90459119396819       16.95342208286297
H           18.96392848800818        4.62326177033792       16.71656632784791
H           19.46064238617947        3.27059390731909       15.72761495152758
C           19.26121312871291        0.43263654764468       16.74251618187855
H           19.00876929469621       -0.59785049095909       16.95887192787168
C           19.89382158334055        0.65970955614364       15.58700366160788
H           20.23208466489657        1.63037437583458       15.27042590070513
H           20.11901479638997       -0.14109659519933       14.89766253505691
C           17.05784094115714       -3.17526546608221       20.19060297381633
H           18.11828714689160       -3.42194668672714       20.14166584863394
H           16.68827400856335       -3.05734570127276       19.17357516891937
H           16.54068461324536       -4.01756120862281       20.64595515087282
C           15.64464411281176       -2.94286600312319       23.03454776365682
H           16.38687938941331       -3.38285049744392       23.70223003459423
H           15.25590569003206       -3.73615115476889       22.39894321955346
H           14.82374015693191       -2.56930916150788       23.64199938722589
O           15.09926634065024        2.48803622539719       20.62819407397399
H           14.72031161938533        3.37959533746260       20.57257739118375
H           14.39876100904683        1.82798141343675       20.53195727972209
C           22.85931900912627        2.93204704223983       22.28629450106321