78
 energy: -116.058003325698 gnorm: 0.000067863549 xtb: 6.7.1 (edcfbbe)
Fe          64.08366007849480       53.71737787136244       19.23500428632523
N           64.47957091978226       53.47360769730352       21.19321459985583
N           63.38527409404931       55.54784595481251       19.60104056472150
N           63.64495378497829       53.91485503472553       17.29894502400756
N           64.73902230990684       51.84349678456731       18.89147275531177
C           65.01499092885774       52.37747027917666       21.79731627976775
C           65.18319303221224       52.60573061318318       23.21437268292221
C           64.74487311535451       53.87178844022622       23.45197623622749
C           64.31190434879136       54.39850886941393       22.17761219886891
C           63.35264470890673       56.18865091829094       20.79994894149700
C           62.77860014924587       57.50434751217104       20.66446606316054
C           62.45433013966984       57.64737537382606       19.34240973259776
C           62.85612096911512       56.41034573104712       18.69773740301876
C           63.07682887630401       54.99706115966595       16.70273076496161
C           62.91541084243323       54.77882088585213       15.28699738151896
C           63.40589115678269       53.52605804694917       15.03385643463840
C           63.86299264244635       53.01104929130479       16.31125504950897
C           64.81927552775177       51.21833202025802       17.68575579811656
C           65.38143984460581       49.89537327038618       17.83285304735182
C           65.64420907376855       49.73583445970026       19.15863995737721
C           65.24169260796444       50.96493367702734       19.80265319348977
C           65.36570984947579       51.20059827441320       21.15991377342810
H           65.78179606216024       50.41068194481835       21.76642128281472
C           63.78814775019988       55.66374081023165       22.00409329100163
H           63.70083892723928       56.28684642288508       22.88088781267876
C           62.69570031780168       56.15948717905044       17.34926338491429
H           62.23026374845706       56.92830231560021       16.75154379480721
C           64.40862730724545       51.75232823338902       16.47939197303089
H           64.51688414710640       51.13221335016869       15.60289498063901
C           64.68949986910062       54.62582494601309       24.73609357880171
H           65.28883471579849       55.53434805677969       24.67277308865880
H           65.06875417924034       54.02195367643903       25.55689524671352
H           63.66376693231989       54.91378720496759       24.96747521474843
C           65.73634247385282       51.60246306610613       24.16809919004804
H           66.75425464572194       51.32712492923079       23.89011544798829
H           65.13010729325811       50.69618698939899       24.16706387093371
H           65.75445075089148       52.00007749460007       25.17975798407469
C           62.64907670828580       58.50113699491720       21.76285903050386
H           63.51553467891308       58.46402990281615       22.42161967306088
H           61.75943208620360       58.30491360796789       22.36352766108624
H           62.56906789527818       59.50420084921167       21.34876696683505
C           61.86451041791372       58.77903604510083       18.66210583686684
H           62.19310426148186       58.93611670637146       17.64104879172066
C           60.96745775945598       59.61021359995264       19.18264478019142
H           60.57858741712214       60.44329348403026       18.62076260428060
H           60.56772940973580       59.47478316691949       20.17227801272940
C           62.38255589760945       55.77781564350637       14.32026545581839
H           62.72831048641881       56.77995080201609       14.56998863110388
H           61.29155495866529       55.78536829663655       14.33199355701792
H           62.71428552971319       55.53624126090699       13.31248601487240
C           63.50257954273263       52.81771925382571       13.77662930158269
H           64.36512917367435       52.16982474300647       13.66915726451752
C           62.62939241473085       52.89718243050532       12.77779486071042
H           61.73117805064314       53.48529050663049       12.84818809359842
H           62.77126636627433       52.35024143293486       11.86030487128922
C           65.59916428133076       48.94447137399234       16.70645779948813
H           66.27786576631642       49.37364270798289       15.96903168243249
H           64.65657139164999       48.72005244268254       16.20666983061199
H           66.02770550203959       48.01136901206060       17.06412511775718
C           66.22648430564843       48.56378660130424       19.87232612839694
H           66.43863111318650       47.75489903469963       19.17766380964739
H           65.53523946445716       48.19263885689296       20.62950263585285
H           67.15622544483212       48.83947746939390       20.37115844684177
C           68.49235098363390       56.70107135651826       17.58049869752989
H           69.20590174544570       56.22585005801376       16.90747183483864
H           69.05173312618582       57.25096792176905       18.33727823313684
H           67.89275178109062       57.40453146118428       17.01152353192389
N           68.08941718782016       54.67003691882012       18.98908541254898
H           69.05806916508996       54.50514210496451       19.20835687466577
C           67.60695512659389       55.68916886567904       18.21034046980147
C           67.03269520308920       53.93498303471328       19.40275312695294
H           67.11099689723756       53.07008633372779       20.02831493235744
N           65.91161680291845       54.42627145513664       18.93376243097137
C           66.25243368126836       55.51794145058018       18.19010546416630
H           65.50551599747193       56.10248491242656       17.69392895156577
O           62.04213995308069       52.76862498325686       19.66238576017862
H           62.10831123670489       52.67109707731457       20.61859167132834
H           62.18161266677137       51.89621705433057       19.27830343867804
