78
 energy: -115.973177482408 gnorm: 0.262764353719 xtb: 6.7.1 (edcfbbe)
Fe          35.42500000000000        4.16500000000000       10.22300000000000
N           37.33500000000000        3.93400000000000        9.76300000000000
N           35.25100000000000        5.53500000000000        8.79900000000000
N           33.57300000000000        4.54200000000000       10.79600000000000
N           35.66000000000000        2.96600000000000       11.77700000000000
C           38.21500000000000        3.04200000000000       10.34300000000000
C           39.43400000000000        2.99800000000000        9.56400000000000
C           39.27099999999999        3.83500000000000        8.51000000000000
C           37.93800000000000        4.39500000000000        8.61400000000000
C           36.18500000000000        5.81100000000000        7.82500000000000
C           35.64500000000000        6.77900000000000        6.89600000000000
C           34.36599999999999        7.04700000000000        7.28400000000000
C           34.10700000000000        6.21900000000000        8.45300000000000
C           32.68200000000000        5.39000000000000       10.17900000000000
C           31.40900000000000        5.33100000000000       10.87300000000000
C           31.61499999999999        4.62600000000000       12.02300000000000
C           32.94700000000000        4.04500000000000       11.91700000000000
C           34.72400000000000        2.68600000000000       12.75200000000000
C           35.30799999999999        1.79900000000000       13.73700000000000
C           36.61900000000000        1.65300000000000       13.41300000000000
C           36.82000000000000        2.31200000000000       12.14000000000000
C           38.01500000000000        2.25600000000000       11.45800000000000
H           38.80500000000000        1.58900000000000       11.80000000000000
C           37.44400000000000        5.27500000000000        7.68200000000000
H           38.05400000000000        5.55100000000000        6.82300000000000
C           32.87600000000000        6.18200000000000        9.06800000000000
H           32.05400000000000        6.77900000000000        8.67600000000000
C           33.43600000000000        3.16100000000000       12.85000000000000
H           32.80000000000000        2.83500000000000       13.67200000000000
C           40.25400000000000        4.17400000000000        7.39000000000000
H           41.20000000000000        3.61200000000000        7.54400000000000
H           40.47500000000000        5.26300000000000        7.40200000000000
H           39.81999999999999        3.88500000000000        6.40900000000000
C           40.64600000000000        2.10200000000000        9.86500000000000
H           40.44900000000000        1.07400000000000        9.49300000000000
H           40.82000000000000        2.06100000000000       10.96200000000000
H           41.54600000000000        2.50400000000000        9.35300000000000
C           36.41700000000000        7.35400000000000        5.70500000000000
H           36.86800000000000        6.52400000000000        5.12000000000000
H           37.22800000000000        8.02000000000000        6.07000000000000
H           35.72500000000000        7.92300000000000        5.04800000000000
C           33.32600000000000        7.88500000000000        6.80100000000000
H           32.28300000000000        7.55700000000000        6.92200000000000
C           33.53400000000000        9.14200000000000        6.15900000000000
H           34.55200000000000        9.52900000000000        6.00600000000000
H           32.67900000000000        9.73900000000000        5.81000000000000
C           30.13300000000000        5.97700000000000       10.35100000000000
H           30.06700000000000        5.83300000000000        9.25100000000000
H           30.14600000000000        7.06600000000000       10.57100000000000
H           29.24900000000000        5.50300000000000       10.83000000000000
C           30.86600000000000        4.37700000000000       13.21100000000000
H           31.19000000000000        3.60500000000000       13.92500000000000
C           29.66600000000000        5.13200000000000       13.50500000000000
H           29.31300000000000        5.91200000000000       12.81400000000000
H           29.09300000000000        4.93500000000000       14.42300000000000
C           34.56200000000000        1.19500000000000       14.93000000000000
H           33.61400000000000        0.73300000000000       14.58000000000000
H           34.32400000000000        1.99200000000000       15.66600000000000
H           35.18900000000000        0.41200000000000       15.40800000000000
C           37.73200000000000        0.98900000000000       14.23200000000000
H           37.90899999999999       -0.04000000000000       13.85100000000000
H           37.42900000000000        0.93100000000000       15.29900000000000
H           38.67000000000000        1.57600000000000       14.13500000000000
O           36.02300000000000        5.66000000000000       11.66900000000000
H           35.21500000000000        6.08100000000000       11.96300000000000
H           36.84600000000000        5.85400000000000       11.94300000000000
C           32.51000000000000       -0.11700000000000        7.72300000000000
H           32.81900000000000       -1.13800000000000        8.03300000000000
H           32.43900000000000       -0.08200000000000        6.61500000000000
H           31.52100000000000        0.11300000000000        8.17400000000000
N           34.84000000000000        0.82800000000000        7.80500000000000
H           35.21000000000000        0.14400000000000        7.17700000000000
C           33.52800000000000        0.88000000000000        8.19800000000000
C           35.52500000000000        1.79900000000000        8.37100000000000
H           36.58800000000000        1.98400000000000        8.22500000000000
N           34.68800000000000        2.47600000000000        9.12400000000000
C           33.43700000000000        1.91800000000000        9.04200000000000
H           32.60000000000000        2.32000000000000        9.59800000000000
78
 energy: -116.030122590037 gnorm: 0.096697795563 xtb: 6.7.1 (edcfbbe)
Fe          35.42338066189489        4.16906436507378       10.24278478563130
N           37.33047162293836        3.89861087133963        9.73819537671732
N           35.23663338592127        5.50833391773144        8.77264125409476
N           33.57015584694574        4.55159586887695       10.81186325802973
N           35.66482989297039        2.95383991235244       11.78592338476562
C           38.22049077623618        3.03433754805688       10.32109636548888
C           39.44826460962786        2.98896108088029        9.55602504216662
C           39.28380539542941        3.83000396096166        8.50247476317234
C           37.95278739124820        4.38820998011191        8.62051045345964
C           36.16942600227246        5.81811028787920        7.81799265428416
C           35.64487816872097        6.79159890238280        6.88833318637308
C           34.36175534870993        7.05925607604291        7.27709224003090
C           34.11427072170220        6.21524837181350        8.44268546544675
C           32.66424286301841        5.36277344706400       10.18353589983849
C           31.39945244419991        5.34189937787855       10.88218339544188
C           31.59521820799889        4.61683964739634       12.02928078109365
C           32.94212323288264        4.06065833784222       11.92026932353722
C           34.73827601109834        2.66183784082917       12.74825096853437
C           35.31424965192974        1.79434133354611       13.75309112380335
C           36.62245494450622        1.63777684465856       13.42248812744133
C           36.81583960151048        2.31465320471999       12.15822363861879
C           38.00560213327429        2.27245824679043       11.45555727361302
H           38.79166387231304        1.61078321743726       11.79840862770305
C           37.43720553027887        5.27830247425541        7.69958981329184
H           38.04387779506321        5.55242013643882        6.84541912587417
C           32.88800975144683        6.15904527305906        9.07521277392855
H           32.07248381814043        6.76230416666426        8.69794842383496
C           33.45388466263658        3.15871851961394       12.83270419489410
H           32.83155295513501        2.83267172037903       13.65493480740257
C           40.24980307207881        4.16849562035390        7.39844319698525
H           41.18736940721916        3.62162237937377        7.53739657548052
H           40.46947067611028        5.24280120948212        7.39900919308602
H           39.82924622949278        3.89303147420659        6.42417637943979
C           40.63648962547927        2.10995074404742        9.86448558963544
H           40.45252102906794        1.09080920139301        9.50130128640645
H           40.82068594492263        2.06437360642957       10.94274903144104
H           41.53157871833704        2.49607965361542        9.36727144142541
C           36.40930234246600        7.34788218991057        5.71395434296636
H           36.86137905734425        6.53701887991544        5.13014663083880
H           37.21178302311939        8.01001385339175        6.06191873475516
H           35.73721576659855        7.91178857264226        5.06030159867186
C           33.33528818319965        7.91934674008833        6.76664324534303
H           32.30585976822486        7.58873008189673        6.90271968120884
C           33.53195996131812        9.11545216133389        6.16152918745257
H           34.52809523117315        9.51725608670409        6.02052052365575
H           32.69573833431627        9.71656162080743        5.82201054515200
C           30.14304033985766        5.97821963027362       10.35612157115514
H           30.07179729787757        5.83785837677694        9.27069562865504
H           30.13741956186932        7.05420716829155       10.56829092034944
H           29.26522959347178        5.51334925578108       10.81644465428155
C           30.80235997502572        4.39481932949175       13.20058125418122
H           31.14177794254469        3.64682737905574       13.91443893367873
C           29.68389338039855        5.11176022034786       13.50097487038815
H           29.33238838704685        5.89389040550730       12.84175489185648
H           29.11850770841651        4.93004232714177       14.40741433705585
C           34.56848068235635        1.20405719330430       14.92300983728065
H           33.63229234535045        0.74334049704724       14.58496302989755
H           34.32698816499274        1.97909948028257       15.65961265131302
H           35.17650718433158        0.43034026123511       15.40240632347401
C           37.72118235785568        0.98364553127495       14.22183814495423
H           37.91118392155758       -0.03264033981750       13.85713131120949
H           37.43604726175926        0.93002922936510       15.27746258358499
H           38.64756680476306        1.56309792305851       14.13792884589672
O           36.00826920989950        5.67960120374189       11.65399763276344
H           35.21939529039034        6.10448699438773       11.98627982921918
H           36.87143687465024        5.87864842964915       11.96613004166016
C           32.51451478218591       -0.11798842027412        7.72396345497672
H           32.80850548725027       -1.13015377891841        8.02518926466851
H           32.43309982788789       -0.08784407292159        6.63117690388029
H           31.53986155606405        0.11044860151523        8.16366609285045
N           34.83469169137019        0.80987797411837        7.79162453867954
H           35.20903863695487        0.12310000708415        7.16201002415477
C           33.52842651437138        0.86940944292842        8.19469932636567
C           35.51423503464940        1.80542729149640        8.37221287122663
H           36.56622670634602        1.98711089514932        8.23038413684352
N           34.69908273513619        2.50571808451087        9.12673658637221
C           33.45748988617925        1.93159846507020        9.04083283505375
H           32.62398918667017        2.32674600637565        9.59173295961611
78
 energy: -116.043287883281 gnorm: 0.037102679987 xtb: 6.7.1 (edcfbbe)
Fe          35.41857614334007        4.16208811214951       10.25013915633944
N           37.32770845349175        3.86670254420688        9.71625937212347
N           35.22217125517302        5.48219943433242        8.74652692883689
N           33.56507599896781        4.55477940564593       10.82707129290023
N           35.67051325309975        2.94800136389587       11.79756190618784
C           38.22032710356847        3.01891805873499       10.29836656154092
C           39.45629265958501        2.97797009992071        9.54744277170167
C           39.29173378640721        3.82592698551812        8.49638764395428
C           37.95849273226124        4.37299416491290        8.61868778779265
C           36.15372765317739        5.81252998348484        7.80798655828321
C           35.64051256189603        6.79584104387640        6.88444802902495
C           34.35553000950407        7.05803355856881        7.27654209096871
C           34.11426492459623        6.20015897694392        8.43016913789112
C           32.65164087124806        5.34170494291948       10.19061405012988
C           31.39341889070576        5.34392452294612       10.89016914164694
C           31.58568917094679        4.60513741564255       12.03262586940849
C           32.93748855031422        4.06986182316787       11.92722672482691
C           34.74971676165836        2.64739309927599       12.74962580991118
C           35.31951820064511        1.78862852998955       13.76360352676110
C           36.62698579896867        1.62512295743006       13.42837273902968
C           36.81451055387770        2.31618107405782       12.17145829798050
C           37.99550913775850        2.28536641967311       11.45111269900660
H           38.78618801298953        1.64207750750846       11.80612684720764
C           37.42583838428187        5.27233069939127        7.71328556970956
H           38.04000870580454        5.56589896398352        6.87586271260227
C           32.89768049255653        6.13159836624579        9.08067464450559
H           32.08776612098953        6.74338365660058        8.71692345260045
C           33.46890965536512        3.15929553268008       12.82254055778719
H           32.85466708600134        2.83061700464295       13.64441693263973
C           40.24808523224861        4.16471233410645        7.40437518671216
H           41.18268759557258        3.62654109862917        7.53415643846068
H           40.46298543838309        5.23253290380022        7.39862853379867
H           39.83300163110649        3.89765134915111        6.43321216449062
C           40.63087389376576        2.11554151760375        9.86384960223122
H           40.45550185018671        1.09827288919673        9.51031090421125
H           40.81579913321458        2.07362054873615       10.93381841695487
H           41.52518164994586        2.49357847421743        9.37569572989165
C           36.39921883027777        7.34383246781233        5.72325533129552
H           36.85384676677153        6.54047485491934        5.14458382635693
H           37.19747231560942        8.00523834002232        6.06125923147890
H           35.73790981775382        7.90321118492716        5.06857954189971
C           33.34235354863255        7.94209625417561        6.74749821076459
H           32.32196436606027        7.60135479274023        6.88135641719203
C           33.53845814089234        9.10841881677611        6.16488403668071
H           34.52140211201263        9.52201246118097        6.02670870776229
H           32.71449079928327        9.70599408752991        5.81353409150050
C           30.15087019263909        5.97907497603705       10.36392274879010
H           30.08645538423913        5.84477247655075        9.28491956692280
H           30.13180534728355        7.04874591869292       10.57339324431158
H           29.27350053185657        5.51896107206713       10.80964927647037
C           30.75821992798443        4.40898523186767       13.19481781874050
H           31.09965453321748        3.65639548411969       13.89339355127997
C           29.68198164092571        5.10402837621810       13.49932334177201
H           29.32373172575607        5.89598108918998       12.86883825681929
H           29.12519156485691        4.92648932926758       14.40226062896587
C           34.57576139632804        1.21215597856652       14.92058346114089
H           33.64562532312321        0.75572827113467       14.58440002213866
H           34.33067190383579        1.97806278463480       15.65562059056032
H           35.17291572184310        0.44441274412358       15.40511548058453
C           37.71351910673242        0.97154646176561       14.21309291447346
H           37.91284067630430       -0.03742734530055       13.85467802724433
H           37.43669444915740        0.91712754727215       15.26301030649797
H           38.63241647201742        1.54958595609067       14.13551984964005
O           36.00965744932057        5.74831308194747       11.59686097025104
H           35.24278392183106        6.13523722421247       12.04103385713300
H           36.87302508687350        5.89114426320544       11.99815292902684
C           32.51715114387920       -0.11428459228440        7.73066600000196
H           32.80016599761525       -1.12434916860091        8.02418821217529
H           32.42941231071164       -0.08841264227461        6.64519321802228
H           31.55020164530710        0.11577351307587        8.16348835227879
N           34.83572565760856        0.79630868499895        7.78081365750320
H           35.21146508880141        0.10613695582754        7.15195185154091
C           33.53312988647550        0.86554465732532        8.19488596044834
C           35.51085146107500        1.80985714371208        8.36192385211277
H           36.55523856581563        1.98988033739330        8.22093514507993
N           34.71548998069469        2.52427780748005        9.11827118059017
C           33.48017000008753        1.94609505479135        9.03273246406374
H           32.64797985490556        2.33810070302014        9.57942807843749
78
 energy: -116.045866560619 gnorm: 0.063941140211 xtb: 6.7.1 (edcfbbe)
Fe          35.41564953611217        4.16056295704854       10.25216463055921
N           37.32223094141887        3.84104641536438        9.69780914748580
N           35.20609857910551        5.45311503731827        8.72086350743145
N           33.55899889947371        4.54991994186506       10.83669298534992
N           35.67677641884825        2.95296204216982       11.80754697205239
C           38.21774702278984        3.00436586082470       10.28466429717509
C           39.45621171587355        2.96761219098033        9.53913157596875
C           39.29167883133996        3.81876798798535        8.48978960428890
C           37.95605818426549        4.35815618020657        8.60999869773918
C           36.14237329042760        5.79824216789654        7.79680134574958
C           35.63312410805876        6.79099443828424        6.88218806064051
C           34.34658982515604        7.04664323385173        7.27322448401218
C           34.10356727372334        6.17845184828319        8.41583010161299
C           32.64416435753449        5.32774595421579       10.19504857493854
C           31.38964214007886        5.34090810861805       10.89691232055891
C           31.57694363472798        4.59097535436873       12.03329896592476
C           32.93110362837789        4.06683152343782       11.93552515893232
C           34.75616861939532        2.64540340068723       12.75490566664553
C           35.32517928310707        1.78716806762993       13.76838221362160
C           36.63150412391035        1.61863139805358       13.42978926317541
C           36.81871317643379        2.31944317519217       12.17851535057702
C           37.99454962967913        2.29340456264984       11.45142027409006
H           38.79336313531336        1.66919828327952       11.82041236892981
C           37.41891008637182        5.26690297964234        7.71752847957805
H           38.04499497395246        5.58749684459710        6.89894078434803
C           32.89565408378741        6.10823505804104        9.08037721393368
H           32.08848478745194        6.72859363272410        8.72835352426245
C           33.47550484713241        3.15714822440950       12.82398514530040
H           32.86718361840762        2.82314771806660       13.64692066508346
C           40.24831024086158        4.16310939073410        7.40378640705463
H           41.18489052584001        3.62922596296030        7.53093426169252
H           40.45855505060080        5.23101830926973        7.39891288293157
H           39.83589976199634        3.89949337995752        6.43124633152454
C           40.63162213414104        2.11653664774217        9.86599565856129
H           40.46376157762703        1.09487754974851        9.52300305503105
H           40.81342862993070        2.08534858397061       10.93620206728411
H           41.52697264614421        2.49270255496843        9.37995545865871
C           36.39145395270381        7.34132861552831        5.72731789913746
H           36.85195803452951        6.53880009790559        5.15359141198741
H           37.18519555055619        8.00701672240873        6.06503322619852
H           35.73126049725222        7.89643024334441        5.06929469327804
C           33.34440458207380        7.94232692508096        6.73226227966610
H           32.32408489405121        7.60199168093592        6.85374907479967
C           33.55273321837725        9.11473564552115        6.15319965320591
H           34.53356603393610        9.54091064780434        6.04130369862806
H           32.73383817645876        9.71418974080641        5.79503245677212
C           30.15349622713275        5.98155967271906       10.37067254267157
H           30.09996577975887        5.85735347915787        9.29078909913710
H           30.12931126649754        7.04905966224491       10.58804085152478
H           29.27246484444189        5.51879762840400       10.80410925225983
C           30.72677057723150        4.39714704850720       13.18347643096045
H           31.05826087805339        3.63430645747155       13.87357802067820
C           29.66038655051828        5.11703245632864       13.51066068336941
H           29.30364348714475        5.92891010464655       12.90410439761945
H           29.10767725670740        4.92688453741590       14.41266986527320
C           34.58096552699514        1.21914330896038       14.92463900387406
H           33.65145157439257        0.76446343773838       14.58784547793247
H           34.33412837007672        1.98696907251894       15.65638019583990
H           35.17356349082796        0.45369565341924       15.41647337433202
C           37.71227530602919        0.95236123647186       14.20587786524834
H           37.91291127853932       -0.05366248325477       13.84179468893797
H           37.43660422410382        0.88980395282544       15.25483014897715
H           38.63119436331304        1.52931673774470       14.13433569535778
O           36.02388017418860        5.86422154614580       11.50525005393754
H           35.26713255186676        6.13849463645491       12.11158378340781
H           36.86769711357086        5.88572241880448       12.04802017784142
C           32.51902219533947       -0.10596465095009        7.73984922367523
H           32.79426167946164       -1.11821978963961        8.03166168361072
H           32.42482789863843       -0.08371483388855        6.65524393254550
H           31.55557334196440        0.13060707736731        8.17431258819920
N           34.84231476882473        0.79127955695872        7.77258871469020
H           35.21431147826442        0.09639435740002        7.14530123077021
C           33.54203135752275        0.86948830779418        8.19576979035154
C           35.51999027147011        1.81144967664749        8.34593728611776
H           36.56226850014701        1.98997671656158        8.19893301625595
N           34.73593771861129        2.53419628192669        9.10487857061873
C           33.50074470955158        1.95919358746969        9.02490372900425
H           32.66983097947803        2.35561586124807        9.56864672860232
78
 energy: -116.048603711540 gnorm: 0.027479275287 xtb: 6.7.1 (edcfbbe)
Fe          35.41408771487814        4.15842525655322       10.25314708315874
N           37.31842291401185        3.82418833133405        9.68664779173715
N           35.19336126486393        5.42979301783352        8.70365209917971
N           33.55298736419277        4.54227913582833       10.84441898613605
N           35.68192425223339        2.95908781134243       11.81698838807990
C           38.21526279652874        2.99253834548966       10.27706493172127
C           39.45406030306493        2.95932494622051        9.53307034279408
C           39.28952941423434        3.81241074579234        8.48525326259524
C           37.95204014870163        4.34678955664059        8.60262661189415
C           36.13450099189301        5.78476676406869        7.79013567096677
C           35.62672478046355        6.78569474826526        6.88379352620533
C           34.33910128653773        7.03609332620259        7.27292866106475
C           34.09218661863162        6.15893899800580        8.40573912427224
C           32.63974458869188        5.31880228838051       10.20004284625253
C           31.38698685336381        5.33686916672647       10.90337263408351
C           31.57007570774423        4.58112556222163       12.03601797251182
C           32.92385224368281        4.05967984724768       11.94422454499566
C           34.75952898168565        2.64668381947987       12.76222070303756
C           35.32957435661834        1.78505782685249       13.77114125210590
C           36.63490721238171        1.61288649495041       13.42991551455699
C           36.82364407632907        2.32057823049036       12.18308459288573
C           37.99633174780251        2.29767651796538       11.45331698355285
H           38.80292871503892        1.68949925928894       11.83370073826657
C           37.41428931320383        5.26310395119727        7.72036401304201
H           38.05117560166216        5.60886118893318        6.91838849639034
C           32.89113349311669        6.09034701308097        9.08014106865813
H           32.08559122122954        6.71760035175356        8.73615987046847
C           33.47753063923968        3.15414269563316       12.83034047116283
H           32.87315017646309        2.81498674692276       13.65449569886922
C           40.24869299473058        4.16254938033279        7.40195504112445
H           41.18812827208419        3.63086452246185        7.52880119062770
H           40.45518606326785        5.23232357423316        7.40052544372080
H           39.83767242337914        3.90073514983817        6.42697074831118
C           40.63392573566801        2.11568325811953        9.86844721508103
H           40.47160361282577        1.08859226706648        9.53521720065415
H           40.81220439266122        2.09627467089509       10.94117298678032
H           41.53020397271760        2.49201306298473        9.38152290851004
C           36.38565211392811        7.34080583530461        5.73150732439069
H           36.85265746104510        6.53741722511990        5.16204628610329
H           37.17494156786261        8.01229122931676        6.07132813342279
H           35.72316496902531        7.89157564441465        5.06988943565249
C           33.34655492600048        7.93920858274226        6.72491565975489
H           32.32328377203944        7.60155909167682        6.82786423063843
C           33.56842256483357        9.12328141393589        6.14800199187219
H           34.55075464920930        9.55472378187971        6.05674971877926
H           32.75240319207013        9.72160796016203        5.77742223736448
C           30.15394101893782        5.98431272909186       10.37798406837826
H           30.10987452859652        5.87092471967650        9.29529053557917
H           30.12888414331920        7.05084393199734       10.60591350061340
H           29.26909558058557        5.51768739799500       10.80282358794727
C           30.70544722002168        4.38555443223532       13.17592769158304
H           31.01638935803558        3.60484635089501       13.85640902641043
C           29.63969916751660        5.12730944994284       13.51842133630953
H           29.28977536046593        5.95955132052621       12.93143451787096
H           29.08942410926061        4.92179423658560       14.42033705488576
C           34.58425513080426        1.22255911580984       14.93004403429559
H           33.65378613682977        0.76861271730447       14.59202093572424
H           34.33679780148660        1.99591402830075       15.65775405553461
H           35.17514929473158        0.45840798861740       15.42853793688718
C           37.71266008883332        0.93128957303945       14.19937416617347
H           37.91074704779848       -0.07277568626120       13.82473013646440
H           37.43560630762943        0.85795828081622       15.24859048937244
H           38.63423926319598        1.50670109252689       14.13352839432846
O           36.02372476613320        5.85123119960720       11.55448923251385
H           35.29942525893172        6.21552607286224       12.05432800022201
H           36.85818736431870        5.93907541179899       12.02801638117939
C           32.51971346347194       -0.09569618391874        7.74704939638051