72
 energy: -105.980475555985 gnorm: 0.000042921896 xtb: 6.7.1 (edcfbbe)
Fe          60.27338250603041       20.22791949474320        8.46657085412015
N           60.54217083485981       18.81671410076811        9.84379560281690
N           58.93299196562389       19.05100726585187        7.52547710631567
N           60.05233474446087       21.61466024510666        7.01819212482792
N           61.64292489292541       21.37001574100348        9.34734157690851
C           61.35628310076263       18.88438685183662       10.92603590571757
C           61.28291649431535       17.66376060286087       11.70062627300845
C           60.41085360522754       16.85082330895894       11.04895562454350
C           59.95713348968275       17.59049769652749        9.89048137928010
C           58.55104462807535       17.79416018478006        7.88954094040383
C           57.54952191440675       17.28390472731884        6.99206193579931
C           57.31981578034571       18.27004384980752        6.06795785482483
C           58.20978803494226       19.35870939816320        6.41440077370425
C           59.17025519566973       21.57989383228783        5.97848063718998
C           59.27063136013714       22.77552349532944        5.18391442167858
C           60.23981606166671       23.54690539006982        5.77002941088323
C           60.70992995712755       22.79850998966267        6.91673670766634
C           62.08311700174720       22.58717508512046        8.93728606467138
C           63.06055827340094       23.11743666209627        9.86469521011833
C           63.19044459699585       22.19162125434192       10.85002259747405
C           62.29773700111722       21.10518876505184       10.50555369598729
C           62.16506567872872       19.95451078574993       11.25596654088559
H           62.75429947546107       19.87493214290011       12.15619344238184
C           59.03491235002095       17.10265038652270        8.98726962399240
H           58.64676578864271       16.11102740922031        9.15994742343850
C           58.29706050977998       20.54157581290784        5.70513998760618
H           57.63599620119257       20.66252579641326        4.86148429346687
C           61.66306680063590       23.25801630192294        7.80603651206643
H           62.09494329241375       24.22790173680547        7.61566927844203
C           59.96229663120679       15.47279291030398       11.39451077833296
H           60.44288273102298       15.12800601793954       12.30651182453615
H           60.21059829890573       14.77744535812080       10.59255812982969
H           58.88252074089186       15.44550778456018       11.54433440904563
C           62.05120108620179       17.41686020419600       12.95260585941365
H           61.81513469680392       18.17168422479777       13.70291235053551
H           63.12269914701385       17.45811515299380       12.75676233465815
H           61.81575055126095       16.43869053865491       13.36449398467865
C           56.95901990921664       15.91925835289642        7.05546795940641
H           56.14889770123211       15.87774139307753        7.78560863038434
H           57.71144956571622       15.18735479688894        7.34520556372689
H           56.55839962471070       15.64128444194325        6.08277990224374
C           56.41825473084648       18.26983418840076        4.93688129803135
H           56.75984914283742       18.81393764053593        4.06397015797082
C           55.23163888570934       17.67308266350872        4.90006712405595
H           54.82124643296336       17.15944188524576        5.75188885307509
H           54.61472766140709       17.70181480734516        4.01749142621910
C           58.50620456005203       23.04088250838790        3.93470831707955
H           57.51007292763680       23.42372277839381        4.16234937869077
H           58.39092460196839       22.12911954468862        3.35032219469630
H           59.02764372597331       23.77882385286600        3.32865589585810
C           60.75322950766422       24.83699382900740        5.36419948800537
H           61.80596951319169       25.00405722295881        5.56064063105896
C           60.04194814758905       25.80304020411809        4.79322232329294
H           58.98407482639239       25.71009017960829        4.62008465126903
H           60.49265999336740       26.73779988944400        4.50415297199240
C           63.74265310424710       24.43192760332603        9.70461796394098
H           63.01267562101440       25.24127910790215        9.68488317730358
H           64.30592013970764       24.46076337546375        8.77161696436306
H           64.43184423858460       24.61178774311503       10.52577859831834
C           64.05601577180963       22.21430065455703       12.06198834267145
H           63.45075396538308       22.14003981285659       12.96550116649945
H           64.63057412623465       23.13590050166299       12.10934038519396
H           64.75220953713074       21.37552657414943       12.05043878993933
O           61.84106641187140       19.32209145032002        7.14287277512757
H           61.29644219634231       18.78148809989300        6.55921539440371
H           62.12306769190275       20.09208832655433        6.63606109977135
C           57.62398161708921       20.02759049898006       10.59337621660006
H           56.67008175357376       20.44255968081157       10.90410554193783
H           58.22609738613878       19.78042480163539       11.46144008807393
H           57.48939849342682       19.14564750826550        9.97674126038202
S           58.55150832507510       21.29453916910087        9.65867108859506
H           57.67265274226080       21.36766440639996        8.65310090855723
