72
 energy: -105.900554399863 gnorm: 0.252184238738 xtb: 6.7.1 (edcfbbe)
Fe          42.54300000000000        8.59100000000000       18.51800000000000
N           40.64300000000000        8.39300000000000       19.16700000000000
N           41.84099999999999        8.57100000000000       16.60400000000000
N           44.44199999999999        8.72200000000000       17.83800000000000
N           43.24200000000000        8.50000000000000       20.43200000000000
C           40.24499999999999        8.34600000000000       20.49100000000000
C           38.80700000000000        8.23200000000000       20.54600000000000
C           38.35000000000000        8.21500000000000       19.28500000000000
C           39.49099999999999        8.31200000000000       18.40200000000000
C           40.54600000000000        8.30300000000000       16.20900000000000
C           40.54099999999999        8.10000000000000       14.78400000000000
C           41.79499999999999        8.25000000000000       14.33400000000000
C           42.64600000000000        8.55700000000000       15.48100000000000
C           44.82700000000000        8.96800000000000       16.53700000000000
C           46.24299999999999        9.26200000000000       16.51300000000000
C           46.69799999999999        9.17100000000000       17.78100000000000
C           45.57500000000000        8.81200000000000       18.61400000000000
C           44.57400000000000        8.40200000000000       20.79900000000000
C           44.67500000000000        8.17200000000000       22.21700000000000
C           43.25600000000000        8.11800000000000       22.71300000000000
C           42.43000000000000        8.34100000000000       21.54799999999999
C           41.06200000000000        8.37500000000000       21.58300000000000
H           40.58700000000000        8.43000000000000       22.56300000000000
C           39.43500000000000        8.29200000000000       17.03300000000000
H           38.45200000000000        8.26600000000000       16.56300000000000
C           43.98699999999999        8.86800000000000       15.45600000000000
H           44.42699999999999        9.05400000000000       14.47600000000000
C           45.64800000000000        8.58500000000000       19.97400000000000
H           46.64000000000000        8.54900000000000       20.42500000000000
C           36.87700000000000        8.08200000000000       18.83800000000000
H           36.21100000000000        8.18100000000000       19.72200000000000
H           36.71400000000000        7.08600000000000       18.37400000000000
H           36.63200000000000        8.88500000000000       18.11000000000000
C           38.00099999999999        8.08600000000000       21.84100000000000
H           37.72600000000000        9.09300000000000       22.22200000000000
H           38.61399999999999        7.56600000000000       22.60800000000000
H           37.07200000000000        7.51000000000000       21.64200000000000
C           39.29700000000000        7.75600000000000       13.94100000000000
H           38.81400000000000        8.69400000000000       13.59300000000000
H           38.57200000000000        7.18400000000000       14.55800000000000
H           39.59800000000000        7.15600000000000       13.05600000000000
C           42.24300000000000        8.08900000000000       12.87300000000000
H           41.62500000000000        8.51900000000000       12.07100000000000
C           43.36800000000000        7.44100000000000       12.50600000000000
H           44.02500000000000        6.99100000000000       13.26400000000000
H           43.64200000000000        7.35500000000000       11.44400000000000
C           47.03000000000000        9.59900000000000       15.22500000000000
H           47.00999999999999       10.69700000000000       15.05500000000000
H           46.56200000000000        9.09100000000000       14.35500000000000
H           48.08600000000000        9.27100000000000       15.33300000000000
C           48.11100000000000        9.37100000000000       18.38100000000000
H           48.29599999999999        9.08200000000000       19.42600000000000
C           49.13000000000000        9.87700000000000       17.70300000000000
H           49.00500000000000       10.18400000000000       16.65400000000000
H           50.11399999999999        9.99700000000000       18.18000000000000
C           45.96700000000000        7.99900000000000       23.05000000000000
H           46.59200000000000        8.91300000000000       22.96000000000000
H           46.54400000000000        7.12900000000000       22.67100000000000
H           45.70700000000000        7.84500000000000       24.11900000000000
C           42.78800000000000        7.91200000000000       24.16700000000000
H           42.68899999999999        8.89900000000000       24.66800000000000
H           43.53399999999999        7.30100000000000       24.71900000000000
H           41.80100000000000        7.40300000000000       24.17500000000000
O           42.76700000000000        6.42400000000000       18.51000000000000
H           42.49900000000000        6.13400000000000       17.63800000000000
H           43.04799999999999        5.90400000000000       19.17400000000000
C           41.18600000000000       11.49800000000000       19.39000000000000
H           40.27100000000000       11.47100000000000       18.76000000000000
H           41.34900000000000       12.54800000000000       19.71300000000000
H           41.00500000000000       10.86700000000000       20.28600000000000
S           42.60999999999999       10.90000000000000       18.49200000000000
H           43.40300000000000       10.85200000000000       19.55200000000000
72
 energy: -105.950936296233 gnorm: 0.101325711239 xtb: 6.7.1 (edcfbbe)
Fe          42.54373529074196        8.59112192060120       18.51192421735504
N           40.64189131978910        8.39484678725663       19.16905403965014
N           41.85097380646783        8.53266598082227       16.60088865923940
N           44.44754508080744        8.73419763553099       17.84577757080440
N           43.23705004542955        8.49374313494844       20.42870871628238
C           40.24451370411160        8.35056262554822       20.48246255817013
C           38.80204137450574        8.22997315668419       20.55534847142481
C           38.33994429407335        8.21515068108482       19.28314536216947
C           39.49685808002639        8.31683564437982       18.41326988809771
C           40.56071404506872        8.30570876286700       16.19835765531733
C           40.53421752548695        8.10712594868849       14.76813065685067
C           41.80753786995745        8.25460434764936       14.31220624202544
C           42.63637142975008        8.55197146550229       15.47700630437549
C           44.83281716357912        8.97113858054576       16.55090653841362
C           46.25466343749482        9.26070500430623       16.50900246654427
C           46.71952170121732        9.16385170842324       17.79053424584392
C           45.57553441783116        8.81618604121544       18.61545952535246
C           44.54859713680004        8.40145311239320       20.82092778325361
C           44.63760141881594        8.16709907624230       22.24000922857097
C           43.29994353127592        8.13002299327928       22.71065523923664
C           42.46518017954920        8.34317405561930       21.55344176169402
C           41.07777570636999        8.37628103005899       21.58134062328656
H           40.60192428311964        8.41194417008972       22.55582077768576
C           39.44986013717998        8.29383874696045       17.03389674395177
H           38.47027682473401        8.25385931003394       16.56820908831541
C           43.98579380935819        8.86834555634242       15.45876290706754
H           44.42345698721724        9.04237421989082       14.48100091066162
C           45.63490013836059        8.58523233539846       19.98055620784129
H           46.62007659348159        8.55234712774775       20.43087615170307
C           36.89683611923397        8.08530985882728       18.83952339182565
H           36.22865874636258        8.18119000172276       19.70159687808649
H           36.72225352514012        7.10709889319956       18.37661396484147
H           36.64035634014621        8.86910842850543       18.11912256816969
C           38.00888368937491        8.09114874750564       21.83131691962213
H           37.73064916918691        9.07896120386948       22.21854726093034
H           38.59808431163937        7.57319266833445       22.59402055152846
H           37.09255787058225        7.52095652686813       21.64912712370831
C           39.30862508024639        7.76174672707648       13.95041393965396
H           38.82132118492434        8.67956620378056       13.60024279176785
H           38.58794404547194        7.19275633149630       14.54613650411241
H           39.59393211732247        7.16787147979675       13.07624317266522
C           42.25728918345173        8.09475007292032       12.89739419983766
H           41.62153127153164        8.51274757166218       12.11542696238861
C           43.36155123947397        7.45166444051055       12.52310554723797
H           44.01763553148896        6.99185908915736       13.25261417532042
H           43.63244304475991        7.35742000897854       11.47472045124353
C           47.01389296938137        9.59169145310095       15.23895722169069
H           47.00655712430880       10.67482822199802       15.06137720383103
H           46.56305576701736        9.09909132953851       14.37273057872803
H           48.05287290851627        9.25975264741327       15.31777905814357
C           48.08989313577453        9.36503460946867       18.35681144007096
H           48.25461589321147        9.07868708413721       19.39536077078466
C           49.12267702880357        9.87830981413455       17.69963329171390
H           49.02892166002533       10.20531690175751       16.67545759361732
H           50.09352200581518        9.99353046480358       18.17204253461713
C           45.92468122135757        8.00331416833845       23.03406913080148
H           46.56128695697501        8.89553977495048       22.95406152579715
H           46.51432668853753        7.14916116576296       22.67379997219436
H           45.70376419353889        7.84700217480253       24.09438685777350
C           42.81084294645295        7.92010157754321       24.13229574850322
H           42.69702454942288        8.88232167464776       24.65054933120335
H           43.52321764493821        7.31385108664656       24.70163344278438
H           41.83668802000820        7.41494196323090       24.15877311054787
O           42.75058178619349        6.43611622663826       18.49118879971571
H           42.50074787475043        6.10626771594277       17.63011013235752
H           43.05509155893618        5.87885911230714       19.18471518046874
C           41.17290638972359       11.50907039492911       19.40696873259393
H           40.28971400232469       11.46750533666779       18.76145815720322
H           41.34296390535779       12.54595881059601       19.71428961909109
H           40.99991163266913       10.87546016612471       20.28139972814921
S           42.60225130948642       10.90326184145073       18.49698560622756
H           43.40912102353435       10.87031486874548       19.55431828726530
72
 energy: -105.965381151651 gnorm: 0.034578113384 xtb: 6.7.1 (edcfbbe)
Fe          42.54692788711375        8.58233878317173       18.50936929334497
N           40.64412474223447        8.40174145932817       19.17245852354677
N           41.86415140434679        8.50691040953675       16.60428725577616
N           44.45068788536472        8.74258555906147       17.85285710687709
N           43.23190972238582        8.48865645849155       20.42593202845637
C           40.24955741027409        8.35498063483632       20.47533768081409
C           38.80587913217340        8.23187489284952       20.56096587873031
C           38.34143012214783        8.21903011265205       19.28115782140195
C           39.50891258340199        8.32018930423015       18.42232297195510
C           40.58041421999260        8.30043509683962       16.19791773670336
C           40.53418587515529        8.11922547404921       14.76465743097625
C           41.82006661652296        8.26113798578451       14.30786475454014
C           42.63591742614752        8.53614143319194       15.48396691564903
C           44.83313257061443        8.97081909378600       16.56400215202845
C           46.25450066949991        9.25721672536483       16.50570926241928
C           46.72844753944063        9.16027763312213       17.79500790986807
C           45.57218536933788        8.82015205931938       18.61660901817120
C           44.53015057025839        8.40310243705456       20.82774385334509
C           44.60650816082655        8.17059133879085       22.25318428861875
C           43.33260965361049        8.14017669036689       22.70476385094317
C           42.48407351595348        8.34448108494421       21.55205742351331
C           41.09112716063021        8.37250749092197       21.57706180960352
H           40.61675674786234        8.38166144031983       22.54852711277000
C           39.47066008735727        8.28550882739592       17.03800597510984
H           38.49467285312421        8.23380607603530       16.57424235747953
C           43.98765252876873        8.85745713152681       15.46500759387817
H           44.42136339406185        9.02332259783292       14.48838121090333
C           45.62133864253963        8.58834301322196       19.98384364427724
H           46.59904743957420        8.56017636037679       20.44059514397059
C           36.92161036231492        8.09042081186490       18.83740312067638
H           36.25075441691443        8.18400993540138       19.68772795678424
H           36.74237348224348        7.12123368251379       18.37246220391432
H           36.66066617480128        8.86337586729204       18.11812550817926
C           38.01928665531457        8.09730118657846       21.82210106809811
H           37.74013423044321        9.07557011567847       22.21369507922122
H           38.59384666448228        7.57858288315571       22.58411242876992
H           37.10772810400385        7.53188518617138       21.64664269584149
C           39.32374153479993        7.77358180289630       13.96135751246012
H           38.82669183224294        8.67771196151139       13.60892258276696
H           38.60829322696403        7.20272616778979       14.54738327244843
H           39.60036130901802        7.18168634503642       13.09217201482166
C           42.26414776337140        8.10228572846581       12.93198851151191
H           41.61020011360326        8.51477063886590       12.16911351114108
C           43.35856091003990        7.46032899981093       12.54555867599833
H           44.02231937194182        6.99425980024675       13.25244931265667
H           43.62425380928244        7.36344612330597       11.50483628908108
C           46.99683627254440        9.57815885663582       15.25230962078775
H           46.99923490841304       10.65471469636998       15.07503688917427
H           46.54298736619029        9.09944208627889       14.38932620101686
H           48.02730023763828        9.24031243837026       15.31432764951034
C           48.05897071486208        9.35909674013624       18.32817233473579
H           48.20577803645543        9.06293754984329       19.36033760441582
C           49.10798533457261        9.88221616091587       17.69508591295655
H           49.04975485573809       10.23239293546618       16.68442359258654
H           50.06706107536707        9.98673198033441       18.17481561203910
C           45.88284255064426        8.00850638607074       23.02107282719315
H           46.51567332233547        8.89401952447199       22.93504216996843
H           46.46796436681069        7.16133718947906       22.65742638646603
H           45.68163586608663        7.84880796199613       24.07732287976754
C           42.83566936155820        7.92874800554129       24.10235810864456
H           42.71153925194768        8.88119921543830       24.62250317687244
H           43.53366882675003        7.32512542897578       24.67805253307038
H           41.87070302008642        7.42273674106551       24.11877631865003
O           42.71798052131007        6.43575224447627       18.48032691819265
H           42.51518023621819        6.04807546428146       17.62574999341163
H           43.06203198533672        5.86292681253909       19.16740295266307
C           41.15750575765493       11.52120173038371       19.42556255727426
H           40.30043208962733       11.46685681662492       18.76194613200160
H           41.33436753784446       12.55039265724136       19.71984343163065
H           40.98943535594516       10.88651262639869       20.28714927543471
S           42.59529080576120       10.90386556849341       18.50530182398336
H           43.42180844979786       10.90890734118254       19.55543734751019
72
 energy: -105.969535550502 gnorm: 0.023193851536 xtb: 6.7.1 (edcfbbe)
Fe          42.54853129454766        8.57430064375627       18.51196650676488
N           40.65022140779840        8.40608148704897       19.17595380899384
N           41.87420886755900        8.48759437030020       16.61550627624216
N           44.44731095909015        8.73801268202218       17.85577463073424
N           43.22755025649742        8.48470300551716       20.42133783035046
C           40.25359977757144        8.35722024216655       20.47427431008709
C           38.81235872750214        8.23596232117684       20.56060930711100
C           38.35128374317497        8.22333820468379       19.27972622393754
C           39.51944537428436        8.32107187954080       18.42576253093668
C           40.59168675165810        8.29159645533085       16.20730422171195
C           40.53947438854128        8.12499802338104       14.77519417370717
C           41.82692076020037        8.26129618158515       14.32159682096847
C           42.64127229710869        8.52047709943371       15.49632452500730
C           44.82759263051858        8.96311394283084       16.56826881632043
C           46.24316677923359        9.24900725300965       16.50163953063208
C           46.72152903847523        9.15686307288531       17.78924240571041
C           45.56759671624474        8.82029517867986       18.61441696984299
C           44.52631535955643        8.40649973094992       20.81701885118344
C           44.60631110437157        8.17605284295479       22.24313761680258
C           43.32762250399048        8.15044992028887       22.70085667437424
C           42.47924855125839        8.34564728504080       21.54596045918356
C           41.09228003861119        8.36674837823238       21.57591550628831
H           40.62095512371276        8.34883157244954       22.54842426310852
C           39.48307560964034        8.27567753027819       17.04362896642857
H           38.50978079327263        8.20869954178067       16.57883190254254
C           43.98907661451797        8.84273007259065       15.46918426911864
H           44.42166303377034        8.99906332445503       14.49154042758418
C           45.61650776289213        8.59456850531061       19.98064205700009
H           46.58977901418201        8.57380964324179       20.44613828318164
C           36.93837115908136        8.09627226217838       18.82653769944187
H           36.26286295402193        8.18940513348253       19.67320958785470
H           36.76458763783461        7.12741721894466       18.35816698875135
H           36.68415809861660        8.86923753802614       18.10441183484981
C           38.02547182222344        8.10530834646281       21.81937488267949
H           37.75048291707014        9.08445460654569       22.21252759482212
H           38.59575994077074        7.58212206743858       22.58218224931944
H           37.11179518624856        7.54366783018318       21.64177774305173
C           39.33155600598826        7.78578532416850       13.97112408578389
H           38.83039692112720        8.68897405090264       13.62090854673482
H           38.61931397771710        7.21004145421455       14.55666290337454
H           39.61041856336022        7.19660410656808       13.10046233980040
C           42.27024452095050        8.11021829510059       12.95265163666740
H           41.60320780066152        8.51778168222700       12.19965143335112
C           43.36599612501970        7.47182730229931       12.56131472865457
H           44.03212054595998        6.99899530938789       13.26238304923277
H           43.62210293482970        7.37000518535303       11.52011389117613
C           46.97826673751921        9.55937768431629       15.24699572165714
H           46.99928769072700       10.63773529573678       15.07850895595139
H           46.50328394852149        9.09487158292889       14.38707984346963
H           48.00192280325856        9.19676662239609       15.29509778642656
C           48.04712054368984        9.35314914444289       18.31427368795335
H           48.18285065924731        9.03656126893153       19.34139653425678
C           49.10350670229414        9.88979077704897       17.70170138932029
H           49.06381068988468       10.28861467152055       16.70385752860968
H           50.05515162152268        9.97867699106409       18.19738617877688
C           45.87305120634941        8.01331382773663       23.00980342145948
H           46.49614279265551        8.90283177431421       22.91861515059919
H           46.44647960076193        7.16408575082594       22.63772602696177
H           45.66634475166441        7.85208043463391       24.06425713245083
C           42.84117716805802        7.93701875999458       24.09377409220753
H           42.71500641375806        8.89062284639931       24.60849978453243
H           43.54709363351500        7.33721375909697       24.66276442699647
H           41.88266704009662        7.42288929158566       24.09739746945352
O           42.65811263695650        6.41367890488078       18.47960511811956
H           42.54958805308239        5.99520207104734       17.61026107991782
H           43.08377085264717        5.84762389918797       19.13899505539417
C           41.14563395197922       11.53148700807322       19.44064660080866
H           40.29827026186787       11.46898919910881       18.76588809805440
H           41.32230055185004       12.56273300630697       19.72693879360367
H           40.97459511416213       10.90023634738414       20.30386620582495
S           42.58855281735738       10.90697213957811       18.52050252115480
H           43.43379936530921       10.96364883705323       19.55952203463797
72
 energy: -105.971183123661 gnorm: 0.046942318509 xtb: 6.7.1 (edcfbbe)
Fe          42.54575301373092        8.56401819943070       18.51608153353641
N           40.65774500984844        8.41379393479828       19.18174213004853
N           41.88364064067834        8.47308507835026       16.63241892060993
N           44.43997440477918        8.72117975643580       17.85939804579111
N           43.21867669890753        8.47601423834090       20.40962275277710
C           40.25714103255074        8.35895426195294       20.47602690595317
C           38.81861284690429        8.24143128871833       20.56047767702921
C           38.36285548908030        8.22885103683669       19.27897522118166
C           39.53066001647436        8.32282455828090       18.43051215416284
C           40.60209698377905        8.28324941864014       16.22193754581251
C           40.54531541958640        8.13151874550183       14.79178384005103
C           41.83281790809536        8.25859343338342       14.34111704047271
C           42.64701128430154        8.50151026964384       15.51286340986809
C           44.82004984703698        8.94452097905024       16.57204224590630
C           46.22752460045959        9.23662391066157       16.49919302284130
C           46.70846889551031        9.15417871827857       17.78413753049980
C           45.56073386085573        8.81585152036655       18.61305252110867
C           44.51837772370793        8.40902587361831       20.80167720666732
C           44.60330967655547        8.18776461773214       22.22794424897369
C           43.32061366362849        8.15848352474212       22.69032695837699
C           42.47137037439227        8.34324372544615       21.53549117638142
C           41.09202995529807        8.35432178475214       21.57713951269510
H           40.62664106350832        8.30840601580279       22.55098780108539
C           39.49426358392222        8.26266298980965       17.05203329472157
H           38.52422424173167        8.17509086974248       16.58557953495154
C           43.99092230171703        8.81824988159757       15.47260288380146
H           44.42115595662542        8.96602161209431       14.49392214076112
C           45.61021762508985        8.60134500855503       19.97857917089870
H           46.57763856940562        8.59468395597695       20.45719240979738
C           36.95591724369373        8.10446818669497       18.80889823517773
H           36.27003827530289        8.19638756165706       19.64816948680414
H           36.79131318100231        7.13572568281360       18.33465022453182
H           36.71481417243111        8.87997939518668       18.08320132768740
C           38.02985766243893        8.11729469376520       21.81837518504123
H           37.76514537212535        9.09975933481315       22.21301912373456
H           38.59551907535140        7.58664765821797       22.58131160291587
H           37.11049210792328        7.56412022860575       21.63732457805758
C           39.33754987498265        7.80199323621966       13.98464343726662
H           38.83505662270885        8.70798108739003       13.64144902862667
H           38.62721823865308        7.21997711720336       14.56814999460867
H           39.61928975469662        7.21929709935823       13.10921626768110
C           42.27393757434688        8.11075323569274       12.97224345593055
H           41.60102751551965        8.52172165958708       12.22810721840236
C           43.37312537964080        7.47773824289608       12.57817333175723
H           44.04905548009664        7.01451663245163       13.27741229421498
H           43.62994418781913        7.38863171779993       11.53661904655096
C           46.96480944534194        9.53854887990100       15.24524176664750
H           47.00829453055448       10.61784544384780       15.08317272895080
H           46.47059008668361        9.09070828710519       14.38483392565569
H           47.98218064388616        9.15564022302227       15.29489877367175
C           48.03630818494221        9.34947584270784       18.30196239848510
H           48.17771889334738        8.99149532127121       19.31584594862516
C           49.08651325701434        9.91104627023619       17.70374926036193
H           49.06015332370078       10.32194080441091       16.71102552752802
H           50.03707600528556        9.97368676457119       18.20808921660119
C           45.86623917009992        8.02349558224194       22.99420847929136
H           46.48562021247114        8.91453991751123       22.90380717651518
H           46.43317724784050        7.17318230765169       22.61642051317375
H           45.65590090043850        7.85882491343018       24.04784961016913
C           42.84636723226993        7.94670405761690       24.08417726698194
H           42.71276538996175        8.90099848129686       24.59517322637566
H           43.56437571143943        7.35659512639912       24.64943132288191
H           41.89561831010703        7.42025624776519       24.08625253364097
O           42.57066037560635        6.37788974551838       18.48480017069920
H           42.60092040999920        5.94856032297647       17.59492113566992
H           43.13591459670656        5.82128222759630       19.08200085632360
C           41.13050842801807       11.54295406759801       19.45727724567391
H           40.28958380157682       11.47401994354196       18.77557632548174
H           41.30731504178090       12.57685959783995       19.73574110455054
H           40.95566115111445       10.91856887939272       20.32585516232974
S           42.57817125352050       10.91245999909574       18.53590739374846
H           43.44141198939744       11.02892876655993       19.56095825421452
72
 energy: -105.971781429301 gnorm: 0.033298947821 xtb: 6.7.1 (edcfbbe)
Fe          42.54448492845011        8.55411648587535       18.51976515396471
N           40.66464824360330        8.41533967636800       19.18576884694729
N           41.88914916443119        8.46536418238928       16.64539857555225
N           44.43534299763012        8.70854058982979       17.86151510512622
N           43.21263204456747        8.46892992589675       20.39972970710651
C           40.25965522731975        8.35714126696452       20.47858542035908
C           38.82261017944560        8.24346409831265       20.55997491275040
C           38.37121110211896        8.23070896213956       19.27869448907501
C           39.53823212850563        8.32172000499522       18.43347549947488
C           40.60753330746247        8.27693512749634       16.23297549839988
C           40.54986708931737        8.13286305865231       14.80441066172008
C           41.83585518918247        8.25446156709900       14.35545571236220
C           42.65114412848283        8.48922993517590       15.52422080117905
C           44.81571144399375        8.93089698895210       16.57311727745493
C           46.21781600990418        9.22815703550850       16.49772724002521
C           46.69974195113442        9.15319741459973       17.78011394273027
C           45.55781311427316        8.81409786171547       18.61233830284440
C           44.51397890865408        8.41186329723098       20.79037266123469
C           44.60273381059748        8.19756650851471       22.21601534256708