72
 energy: -105.980176960638 gnorm: 0.000136608626 xtb: 6.7.1 (edcfbbe)
Fe          42.50705535096839        8.46952019173338       18.48633921436441
N           40.64263445870195        8.25781882054245       19.14938082384312
N           41.86872652948449        8.39893414294729       16.60527780700421
N           44.41006945037888        8.62502586847856       17.83811935849599
N           43.17553905917836        8.44784229356132       20.38525443701806
C           40.23665792598836        8.11439611661153       20.43690131599129
C           38.79536258482465        8.00558588766075       20.51068228785475
C           38.34141668107301        8.09576482656832       19.23314332740057
C           39.51326694115336        8.24018155164068       18.39577401948412
C           40.57626563515370        8.35923365768159       16.19221304991068
C           40.49976184026538        8.32887540460776       14.75381629330654
C           41.78897748385892        8.31405347860411       14.29925941212086
C           42.62831421061402        8.39213830554045       15.48042768477850
C           44.82220853549977        8.68505299748739       16.54069203558727
C           46.24211759025604        8.90405971315155       16.46589546064179
C           46.68934216574466        8.98626769267789       17.75897441063944
C           45.52395664980395        8.79985918416243       18.59794206128893
C           44.46131616854452        8.61063277370513       20.80406284236882
C           44.54008996071020        8.54082341431914       22.24468725130017
C           43.27203605628407        8.32025548987305       22.68756016956001
C           42.43302810180847        8.27303290488024       21.51307993333169
C           41.06170595154715        8.10386838595110       21.54569911770544
H           40.59944943531711        7.97441146616220       22.51176137520793
C           39.46877299715514        8.31319847082784       17.01915331731164
H           38.49780503866447        8.29580441091712       16.54898926907051
C           43.99800295611981        8.55747717101200       15.43735343063627
H           44.45395918871353        8.63319236766167       14.46323413058967
C           45.55481654689879        8.80403911910199       19.98058995829587
H           46.50992801681616        8.95638143907646       20.45798005824978
C           36.94393185477890        8.04849006774239       18.71985096892824
H           36.23336495581977        7.96986504905831       19.53889020077140
H           36.80772878717036        7.18892076610051       18.06340746703129
H           36.71372587728668        8.94894062534995       18.15017595392414
C           38.02977374142769        7.83707835437805       21.77759693618443
H           38.19781844277166        8.68342485702523       22.44445307559747
H           38.34297628269134        6.93063349542134       22.29561211463057
H           36.96371067547465        7.76538954568357       21.57765962453124
C           39.23792465891975        8.25984322355063       13.96680867863193
H           38.57607637953858        9.08494277630954       14.23037628231266
H           38.71133834583577        7.32655565418295       14.16871243656932
H           39.44870808386315        8.30768936135835       12.90152028845226
C           42.22754865000924        8.23146670046822       12.92116795846966
H           41.62408366292979        8.78405166763557       12.20934953238288
C           43.25548536576386        7.51678507820835       12.47828957773667
H           43.85296057023405        6.90690086744838       13.13480295769366
H           43.52015619244025        7.49648163648488       11.43420978919802
C           47.03426530866944        8.95486559825799       15.20752502025872
H           46.98563553887188        9.94862615471370       14.76006552916750
H           46.65071930541445        8.24106742610680       14.48029581981854
H           48.07689522606215        8.72001785914474       15.41232649703223
C           48.03532754338685        9.18245592074346       18.25097267664379
H           48.27370461541818        8.67806586216133       19.18037130999912
C           48.96788398904230        9.92387131714685       17.66260516106325
H           48.77187300721026       10.48412179700967       16.76528241742455
H           49.95762941479041       10.01697651087670       18.07764175907620
C           45.80168617075526        8.68177712610292       23.02419033605105
H           46.27051369341856        9.64560895392803       22.82451908329276
H           46.51044010833124        7.89897130871002       22.75242819857179
H           45.60636019458884        8.61074963981754       24.09119975961656
C           42.77291310396282        8.15723076290713       24.08163293509352
H           42.05782993571059        8.94265714776707       24.32840865513820
H           43.59280799010195        8.20518748887431       24.79380545556328
H           42.27207561549054        7.19611984816343       24.19853172062111
O           42.83611913581611        6.25221707883665       18.47134461890114
H           43.53775672221877        6.17719749456328       17.81454827195599
H           43.24265241191439        6.12842813881191       19.33681693155048
C           41.35034434265027       11.33244615322890       19.90749506958387
H           40.32162798964426       11.18206010339814       19.59723303555286
H           41.52871933646484       12.38219655081506       20.11923784275761
H           41.56799787994991       10.71224522381671       20.77013031829976
S           42.40018888899007       10.81855958361752       18.50312279392436
H           43.55913649265766       11.03009167691540       19.13614108664553
