78
 energy: -116.058025390830 gnorm: 0.000053036848 xtb: 6.7.1 (edcfbbe)
Fe          35.14882041895573        4.46756080685411       10.28780750141119
N           37.00890874555331        4.08520818604651        9.68898201821724
N           34.91155533836881        5.75555237364145        8.78111266110698
N           33.28899108197967        4.88857181940217       10.94330417123018
N           35.39567911308545        3.21452024195737       11.84118905152648
C           37.89129423286914        3.22000171721620       10.25126531388101
C           39.14240608616068        3.21723407208045        9.52310258898738
C           38.99323333429529        4.10638293216234        8.50638723145415
C           37.65073839511763        4.63489858131374        8.62465677188616
C           35.82913874942776        6.07319093341745        7.82913816506257
C           35.29257544987441        7.03110293296781        6.89605891592321
C           34.01285340235494        7.29236136595127        7.30713256667507
C           33.79753154347507        6.47324466831044        8.48548618038108
C           32.38720744722686        5.72011058599065       10.35006664503490
C           31.15252174667041        5.74708360484463       11.08913465855061
C           31.32291022447227        4.90449868900029       12.15694324220538
C           32.66348190016542        4.36869369287133       12.03246523221241
C           34.48853307519809        2.92245957711020       12.81338373880141
C           35.02296158309179        1.94365874714915       13.73331713792655
C           36.27218215401663        1.64250997272076       13.28643980862991
C           36.48648838411099        2.44626953148724       12.10442846141023
C           37.65558608989267        2.44121306088391       11.36834273853158
H           38.44804179486292        1.78653694429604       11.69707037353083
C           37.11288639331855        5.56005742161623        7.75305713959289
H           37.74574955622923        5.91627025139456        6.95441658554292
C           32.62143603908356        6.46701119006843        9.20900041427890
H           31.82224779404617        7.10544284123540        8.86512705984242
C           33.22177975616744        3.46656209143028       12.92072617292323
H           32.61614611860520        3.14709279676645       13.75486108656140
C           39.96585527627833        4.50901630072077        7.45124085000738
H           40.91077170712133        3.98601102415074        7.57621530222688
H           40.15817857283634        5.58084005830355        7.49901840189746
H           39.57593610316411        4.27958962554539        6.45889640731342
C           40.32250216277281        2.38073692770909        9.88183174328599
H           40.06217038858026        1.32209350806356        9.86455153273464
H           40.67453120698627        2.62579061535017       10.88406360606515
H           41.13944053264137        2.54396551528670        9.18321113010700
C           36.00344520122297        7.55082858712414        5.69526919224706
H           36.60218294700531        6.76844624425929        5.23082460588118
H           36.67126614289425        8.37064118712223        5.96426432911497
H           35.28456556875788        7.91884008504965        4.96590353214579
C           33.02329956883576        8.16624980841441        6.71689781691303
H           31.99463378103811        7.83508492117279        6.80326210030249
C           33.27847755376160        9.31635116852750        6.10145350570617
H           34.27366258158911        9.71877139750498        6.02935411677510
H           32.49040037142302        9.91200848756694        5.67120477174660
C           29.93244771716034        6.50224946355286       10.69243349881615
H           29.80132571440896        6.48051036855279        9.61164538450287
H           30.00157673269101        7.54632387901961       11.00265646792698
H           29.05312129307303        6.06275108687403       11.15897124288109
C           30.39028854401540        4.55733264191907       13.20618477546038
H           30.46489427327345        3.54390558808164       13.58375335554222
C           29.48204549936342        5.37316597402118       13.73161812241143
H           29.39390809409970        6.40257169718406       13.43109099806418
H           28.80825042840803        5.04269654994987       14.50467037524500
C           34.28798338927825        1.41145485000033       14.91566053722698
H           33.37708435657773        0.89984348631438       14.60312729886130
H           34.00593251123036        2.22078604486645       15.58964968544048
H           34.90358494753193        0.70563037332716       15.46773966383699
C           37.27355911550514        0.69408894339384       13.85055165015602
H           37.53135737067346       -0.07065999655869       13.11767059531216
H           36.88338607821484        0.20088455876029       14.73748125338650
H           38.18804713718799        1.22060727531783       14.12493467441823
O           35.85726461848476        6.13976900075687       11.68974515809943
H           35.02599482822151        6.60109067469012       11.84522861242421
H           36.04587427448707        5.62159306025113       12.47979012140623
C           32.41147607926530        0.01824982520940        8.34123871041525
H           32.98826051219402       -0.87328137028333        8.09531209808890
H           31.67810090239167        0.17841415251629        7.55099101447217
H           31.88483735046906       -0.15428747948196        9.27452768546306
N           34.09320083152909        1.65180222343032        7.46116204142720
H           34.15458024693016        1.24805348535544        6.54091563854543
C           33.30022857250177        1.19915399043603        8.48291512689879
C           34.76880695681363        2.73196062973982        7.91411182526388
H           35.46656576217558        3.29401898406896        7.32789451305881
N           34.45179320993051        2.99027301152004        9.15980684070839
C           33.53966682349482        2.04534893356069        9.52737235687837
H           33.11935021280649        2.03713100157605       10.51128209956671
