78
 energy: -115.937109578605 gnorm: 0.318065187768 xtb: 6.7.1 (edcfbbe)
Fe          35.05900000000000        4.38200000000000       10.27500000000000
N           36.97600000000000        4.10600000000000        9.74700000000000
N           34.80700000000000        5.62800000000000        8.71700000000000
N           33.16300000000000        4.70100000000000       10.83500000000000
N           35.33600000000000        3.18300000000000       11.86400000000000
C           37.91400000000000        3.25100000000000       10.28500000000000
C           39.16600000000000        3.24100000000000        9.56200000000000
C           38.98500000000000        4.06700000000000        8.50100000000000
C           37.64500000000000        4.58300000000000        8.63900000000000
C           35.72700000000000        6.03200000000000        7.77100000000000
C           35.20800000000000        7.00000000000000        6.83200000000000
C           33.93400000000000        7.26000000000000        7.23800000000000
C           33.72400000000000        6.41700000000000        8.39800000000000
C           32.29000000000000        5.66400000000000       10.37300000000000
C           31.13300000000000        5.85800000000000       11.21800000000000
C           31.31500000000000        5.03800000000000       12.28800000000000
C           32.56100000000000        4.33900000000000       12.02100000000000
C           34.43600000000000        2.81100000000000       12.83600000000000
C           34.97300000000000        1.87200000000000       13.79500000000000
C           36.26600000000000        1.67800000000000       13.43000000000000
C           36.45099999999999        2.45400000000000       12.22400000000000
C           37.55600000000000        2.54600000000000       11.41200000000000
H           38.35400000000000        1.89300000000000       11.74600000000000
C           36.97400000000000        5.46600000000000        7.82600000000000
H           37.60000000000000        5.80600000000000        7.00900000000000
C           32.61200000000000        6.30300000000000        9.19900000000000
H           31.77100000000000        6.86200000000000        8.80200000000000
C           33.18800000000000        3.38600000000000       12.78400000000000
H           32.52800000000000        2.98100000000000       13.54300000000000
C           39.94800000000000        4.42200000000000        7.37300000000000
H           40.90800000000000        3.88300000000000        7.52200000000000
H           40.14400000000000        5.51500000000000        7.37700000000000
H           39.51200000000000        4.11800000000000        6.39700000000000
C           40.41000000000000        2.45200000000000        9.94100000000000
H           40.37500000000000        1.45100000000000        9.46000000000000
H           40.44900000000000        2.32000000000000       11.04300000000000
H           41.31700000000000        2.98900000000000        9.59000000000000
C           35.95000000000000        7.57000000000000        5.63300000000000
H           36.53500000000000        6.76400000000000        5.14100000000000
H           36.64700000000000        8.36800000000000        5.96800000000000
H           35.22200000000000        7.98300000000000        4.90300000000000
C           32.90500000000000        8.11200000000000        6.75300000000000
H           31.86100000000000        7.77200000000000        6.69300000000000
C           33.24200000000000        9.46700000000000        6.32600000000000
H           34.28000000000000        9.82700000000000        6.37800000000000
H           32.46200000000000       10.14300000000000        5.94700000000000
C           29.98000000000000        6.79500000000000       10.90600000000000
H           29.85600000000000        6.87700000000000        9.80500000000000
H           30.19300000000000        7.80400000000000       11.32000000000000
H           29.04200000000000        6.39500000000000       11.34500000000000
C           30.60500000000000        4.76000000000000       13.48900000000000
H           30.84500000000000        3.86500000000000       14.08100000000000
C           29.55800000000000        5.63500000000000       13.96400000000000
H           29.28800000000000        6.54000000000000       13.40000000000000
H           29.01800000000000        5.40600000000000       14.89500000000000
C           34.20500000000000        1.27900000000000       14.96700000000000
H           33.32500000000000        0.71700000000000       14.58700000000000
H           33.85200000000000        2.09300000000000       15.63500000000000
H           34.86100000000000        0.58200000000000       15.53200000000000
C           37.34900000000000        0.85900000000000       14.13000000000000
H           37.32999999999999       -0.18400000000000       13.74900000000000
H           37.16100000000000        0.84600000000000       15.22500000000000
H           38.34699999999999        1.30000000000000       13.92100000000000
O           35.65299999999999        5.96600000000000       11.62100000000000
H           34.84300000000000        6.38900000000000       11.90500000000000
H           36.47700000000000        6.18900000000000       11.86900000000000
C           32.33600000000000        0.12100000000000        7.49600000000000
H           32.67100000000000       -0.90200000000000        7.77000000000000
H           32.31800000000000        0.20900000000000        6.38900000000000
H           31.31700000000000        0.28800000000000        7.90700000000000
N           34.60600000000000        1.13400000000000        7.73200000000000
H           35.02600000000000        0.48600000000000        7.09700000000000
C           33.28300000000000        1.12700000000000        8.06800000000000
C           35.23200000000000        2.10400000000000        8.35900000000000
H           36.29399999999999        2.32600000000000        8.26300000000000
N           34.34600000000000        2.73300000000000        9.10300000000000
C           33.11900000000000        2.14500000000000        8.94600000000000
H           32.24500000000000        2.50600000000000        9.47300000000000
78
 energy: -116.015138246959 gnorm: 0.149266297432 xtb: 6.7.1 (edcfbbe)
Fe          35.05434152970811        4.36909757771266       10.27062508612653
N           36.98797256127909        4.08989425960837        9.73189180622773
N           34.81328365341002        5.65551068819372        8.71989413628260
N           33.16927956655042        4.74472020257921       10.87227005754860
N           35.33691848840142        3.16166383671756       11.87059894795227
C           37.90962450631125        3.24895629960804       10.30119018741996
C           39.15621447189249        3.24013556265672        9.56792834043025
C           38.97513137005526        4.07485431414661        8.50330216998912
C           37.63404577093240        4.59347666741331        8.63039364901305
C           35.73673929488968        6.01986181806139        7.77156142576716
C           35.21328381317011        6.99317883204428        6.84265708722229
C           33.92975130392018        7.25413772738475        7.24854809903021
C           33.70674326382412        6.39748005997980        8.40306182483229
C           32.28997075076757        5.66573487856489       10.35770715072217
C           31.13955808100838        5.85379590639087       11.20552468717229
C           31.31906728307608        5.02374338360943       12.28796081209287
C           32.57021644581540        4.32432642256407       12.02895040067960
C           34.42173489689391        2.80963645067659       12.82495132845075
C           34.97020065090930        1.88010766493420       13.78737195915321
C           36.26909101396026        1.68390777357823       13.41959969985116
C           36.46365337508453        2.45945688836053       12.21344583955360
C           37.59453874518552        2.52372740413469       11.43106393624927
H           38.38920006694773        1.86985161087344       11.76242276058099
C           37.00163509600410        5.47837824673929        7.78604221238603
H           37.62785059568869        5.82075062710348        6.97387091901599
C           32.57112488498486        6.32069079740524        9.17641788609028
H           31.74313973212675        6.90254618648081        8.79492806145078
C           33.16114608483840        3.36208821230381       12.81619605601257
H           32.51246971875902        2.97205345148930       13.58750406054981
C           39.93570337260572        4.41854348914404        7.38918577798157
H           40.88832580839856        3.89131871536691        7.52225207799038
H           40.13745958610387        5.49710128077640        7.37445447988729
H           39.51790754031338        4.12715888570000        6.41615231372475
C           40.39208351817067        2.45785058578009        9.93784364053033
H           40.37523767304247        1.46448932692247        9.46853020376825
H           40.45016184700005        2.32271078415612       11.02384237746218
H           41.29605472817723        2.97941139756957        9.59840846143499
C           35.94407756506298        7.55911672842315        5.65038081216839
H           36.52822662850873        6.77591899975480        5.15069593688559
H           36.63548973269055        8.35402746981226        5.96163117855002
H           35.23293637480904        7.97622548488457        4.92550192812781
C           32.92703318769384        8.15278275069840        6.73832618024465
H           31.89196378717586        7.80698420031922        6.69543172667317
C           33.23076043858417        9.42436735778366        6.32896234134793
H           34.24817059123582        9.80098699737484        6.38508770951069
H           32.47187336671991       10.10921067651194        5.96002743099926
C           29.99491542892855        6.78455418033281       10.90344375581666
H           29.85882250574283        6.87903089999531        9.81982039275943
H           30.18798588172846        7.78638052188368       11.31262337252155
H           29.06235515304393        6.40013522000264       11.33451249504980
C           30.57020614626565        4.78776559121360       13.48920285704300
H           30.82391991624340        3.90304222857295       14.07480980123317
C           29.58075557666229        5.61112654928222       13.95169239895577
H           29.30727096106570        6.51437337293232       13.41850329993026
H           29.04173806047711        5.39824255978245       14.87073936168512
C           34.21318961033319        1.28844938760259       14.95102802655508
H           33.33950815057615        0.72806980052732       14.59225383250557
H           33.85788467501013        2.07956419674212       15.62394642722687
H           34.85003442819582        0.59918721067621       15.51912490929353
C           37.33469419590630        0.86770947769543       14.11639925978692
H           37.33014277396484       -0.16871618711685       13.75287014741042
H           37.16278612647083        0.84911965946306       15.20027371130479
H           38.32736325833002        1.29257117406495       13.92624637172971
O           35.63417131810005        5.97030604928300       11.60266652677629
H           34.84547783137590        6.40565464660869       11.92081893474088
H           36.49841620850795        6.20538564223110       11.88419860283438
C           32.33566634188995        0.11975186120530        7.49734469839650
H           32.66039520503616       -0.89403668258642        7.76308568167040
H           32.31031586637689        0.20293553952284        6.40370671046868
H           31.33139198964293        0.28530625323874        7.89789897677072
N           34.60205438686205        1.11748752043844        7.71871472862992
H           35.02594906777740        0.46823831767994        7.08162461653428
C           33.28091675183551        1.11992272596611        8.06410508159697
C           35.22422218875015        2.10671129959679        8.36291627440461
H           36.27424575081124        2.32696502416748        8.26807860583565
N           34.35705076094691        2.74775226569750        9.11330738234429
C           33.13758012460803        2.15144862727671        8.94581516772583
H           32.26718059584560        2.50759618372719        9.46763242532224
78
 energy: -116.039975015744 gnorm: 0.058786152952 xtb: 6.7.1 (edcfbbe)
Fe          35.04562578228320        4.35751239042854       10.26672606301265
N           36.99432441623356        4.07761043753774        9.72130947141112
N           34.81344830422928        5.66237847181278        8.71369452682385
N           33.17009808948342        4.76846142349125       10.89479166029316
N           35.33591712308522        3.14052891681955       11.86826143319757
C           37.89841687508191        3.24575733277501       10.31058759010973
C           39.14514261343154        3.24168576009763        9.57277402793467
C           38.96400097727462        4.08100209748355        8.50845223391995
C           37.61764401925360        4.59778598023423        8.62490890790221
C           35.74366167112451        6.00603234482095        7.77901560742146
C           35.21396658538045        6.98297696309512        6.85516786624554
C           33.92612544867447        7.23449064772547        7.25970291985671
C           33.69835377953110        6.37946691966849        8.41628376203336
C           32.30040762907618        5.66944361294340       10.35109745917325
C           31.14635839941183        5.84252546691578       11.19469330946919
C           31.32733723650163        5.00582253170763       12.27893175917686
C           32.58792841448288        4.31836083948725       12.03535984537887
C           34.41085958102962        2.80811248660532       12.80705114479197
C           34.96890413841342        1.88581325263257       13.77502774424816
C           36.26964786896140        1.68934262870327       13.40687352503608
C           36.46961128293797        2.46273251532233       12.19620073164664
C           37.63160110776599        2.49966768039060       11.44688473306885
H           38.42792948526979        1.85432620324969       11.78296097782971
C           37.02826113568965        5.49003373273352        7.74778170045588
H           37.65438839851904        5.83442165729691        6.93965711873828
C           32.53735962659128        6.34695924756624        9.16416489108144
H           31.72007365382088        6.94536807081844        8.79282006003519
C           33.13826661097703        3.34477707743880       12.85176835356543
H           32.50098158459532        2.96920590654245       13.63641931531397
C           39.92180613754401        4.41616629979282        7.40699532696771
H           40.86759818505086        3.89402127517690        7.53480580185519
H           40.12607988128255        5.48667345803957        7.38013527813642
H           39.51288057670542        4.13170182304406        6.43639782964641
C           40.37362248273555        2.46526620634954        9.93459089423182
H           40.36517180548947        1.47654676802821        9.47186377657339
H           40.44406093209511        2.32924418314661       11.01121520295626
H           41.27329304440759        2.97971861026222        9.59991628211055
C           35.93609083854675        7.54877785995438        5.67141221367266
H           36.51890120423948        6.77870410414183        5.16703220247192
H           36.62416854036305        8.34213645358833        5.96867352937136
H           35.23177424369626        7.96741537715542        4.95338500550270
C           32.94870364037357        8.17670922463415        6.72989505770047
H           31.92104299798131        7.82170521961983        6.70064775830057
C           33.22761913354611        9.39321091266388        6.34021611539084
H           34.23122549183287        9.78566754471387        6.38472084003018
H           32.48216018692612       10.07706304183339        5.96399781032222
C           30.00910536845085        6.76889389155172       10.90152685793253
H           29.86699045923247        6.87588570585556        9.82833746581113
H           30.19273395245926        7.76473204525778       11.31138763640593
H           29.08083172862219        6.39326685940722       11.32760502901007
C           30.54419795977508        4.81018680105922       13.48129415889623
H           30.80805824310618        3.92898563519786       14.05815459430868
C           29.59727433920996        5.59999481331985       13.93939848409076
H           29.31398940506053        6.50623457762951       13.43503495619530
H           29.06010724759669        5.39098993834748       14.85064431457337
C           34.22276415261118        1.29889864930458       14.93326372596927
H           33.35280762900800        0.74012187565446       14.58618237262725
H           33.86732082376844        2.07795910368557       15.60847585907831
H           34.85180430429148        0.61675661784976       15.50113700666187
C           37.31981335550861        0.87745532351132       14.10212967641696
H           37.32208066734364       -0.15460270627751       13.74729910992425
H           37.15204188602935        0.85726384509623       15.17820051672500
H           38.30956727315464        1.29333888241387       13.92539976064788
O           35.62918093679270        5.99566740369324       11.56388063303581
H           34.86715347105336        6.42989592603872       11.95664350255387
H           36.49811635954437        6.21511716654736       11.90737908734666
C           32.33293079922143        0.12215220279305        7.50232947029010
H           32.65041267779544       -0.88741219475891        7.76059264500442
H           32.30216600731225        0.20055485123601        6.41616515279099
H           31.33724458896075        0.28698241878725        7.89552557982347
N           34.60191454109886        1.10352365953896        7.70677225955880
H           35.02767246019774        0.45325333744024        7.06844939602065
C           33.28156622294615        1.11728475424124        8.06360862299911
C           35.22141307122983        2.10588808728734        8.36148619488024
H           36.26301248666919        2.32342115560166        8.26625445117485
N           34.37373381321616        2.75996605360655        9.11628079398772
C           33.15940125277643        2.15831238064279        8.94535389814997
H           32.28975135402970        2.50969997995036        9.46253712269599
78
 energy: -116.045961716071 gnorm: 0.034881668699 xtb: 6.7.1 (edcfbbe)
Fe          35.04465796356320        4.35689131662795       10.26709948215302
N           36.98772248046119        4.06590738481986        9.71396878240517
N           34.81420561676924        5.65473924217171        8.71640047855692
N           33.17990934433263        4.77931672123242       10.90635598826664
N           35.33187569162941        3.12893699591420       11.85323492712032
C           37.89027804455528        3.24287414346008       10.31260747737617
C           39.13639134744103        3.24446806569139        9.57595106549261
C           38.95509108962930        4.08303471342362        8.51445806506638
C           37.60651736049640        4.59425648351579        8.62202679708455
C           35.74463854207621        5.99034795895256        7.78317681375554
C           35.21173153419566        6.97087319620899        6.86613771885066
C           33.92592213178572        7.21545116856165        7.27031635293697
C           33.69685229737737        6.36587050305989        8.42623273700964
C           32.30874440048332        5.66908689519205       10.35076802370590
C           31.15034764714726        5.83073715590753       11.18900142964888
C           31.33019627508077        4.99220036879728       12.26846850964253
C           32.59579986499069        4.31379573174309       12.03788027679196
C           34.40595969699315        2.80538981129161       12.79152087275533
C           34.96892802015406        1.88811685548254       13.75990446426092
C           36.26667616803589        1.69123689153621       13.39210864223661
C           36.46896123261646        2.46068008635821       12.18027598137513
C           37.64662381336126        2.49091733035897       11.45192126600261
H           38.45203874501036        1.85993114826339       11.80081282959690
C           37.03640745532273        5.48794641727804        7.73117025966164
H           37.66551511369364        5.83836918634144        6.92497153034989
C           32.52725637503843        6.35722584063512        9.16461142119356
H           31.72061272091950        6.98449157759371        8.80760787935133
C           33.13106848168363        3.33851121974804       12.86677310183820
H           32.50768952755327        2.98197957320694       13.67570815645064
C           39.91075661935988        4.41812485102611        7.41961158047856
H           40.85298097561056        3.89408381189143        7.55324189252787
H           40.11310158250049        5.48801911306025        7.39175506624003
H           39.50104286576046        4.13301008928177        6.45079121382147
C           40.36037722421276        2.46944376839621        9.93407927297923
H           40.34812748585490        1.48122908067670        9.47245591611564
H           40.43593854589515        2.33625912403701       11.00977803462921
H           41.25560578423520        2.98539870129555        9.59488533050374
C           35.93050218588792        7.53986828535468        5.68966809306948
H           36.51116522383234        6.77180124724412        5.18172712361990
H           36.61749904447846        8.33148725292669        5.98990276248230
H           35.22061228026168        7.96124834345579        4.98132488906993
C           32.95467942683506        8.15997997661805        6.73540927289384
H           31.92923179860906        7.80585428472757        6.71250311085291
C           33.23691434349409        9.38908834224941        6.32373967930354
H           34.23458053998247        9.79232405117277        6.37971995687410
H           32.48431638081264       10.06604360812818        5.95476579344717
C           30.01622192465930        6.75268125225065       10.89639564017611
H           29.87710867014323        6.86840990780568        9.82436988268191
H           30.20031828941407        7.74364584853963       11.31520271619882
H           29.09063440408359        6.37150029198392       11.31908436483210
C           30.53406175081652        4.80467494575831       13.46313751633278
H           30.79235472175960        3.92350070626081       14.03755084338361
C           29.58989875409369        5.60880682396947       13.93747306806777
H           29.31304354123387        6.52931168730690       13.45601453581561
H           29.06173318734121        5.38834855499309       14.84936522049910
C           34.22905401300162        1.30883847049041       14.91850986644129
H           33.35938339228598        0.74985784023787       14.57427827873341
H           33.87730428248177        2.09006141721908       15.59163639293097
H           34.86294537908760        0.63128909784466       15.48356411738802
C           37.30938828864232        0.88165287215231       14.08812042677685
H           37.31131066896324       -0.14883114516802       13.73155419527183
H           37.13176249553187        0.86389087214087       15.16113753984362
H           38.29916900989723        1.29828034808790       13.91971816285699
O           35.63832123281124        6.07051080200659       11.49808143236705
H           34.89228496997193        6.44080010418255       12.01906928392907
H           36.49820319359522        6.21416818868487       11.94224827323536
C           32.32740805826188        0.12955772066511        7.51157572224615
H           32.63630894513376       -0.88327962983041        7.76677189599399
H           32.28835675862793        0.20422628113702        6.42566229573753
H           31.33433638672894        0.30110684223082        7.90741316006469
N           34.60662223497271        1.09379485809547        7.69677912087556
H           35.02604003518142        0.43981530984537        7.05649111462572
C           33.28785594349475        1.11889422142065        8.06468322472035
C           35.23308254675308        2.09720214010480        8.34837761365552
H           36.27387704497037        2.31022464244289        8.24768066114754
N           34.39836304166294        2.76076407282436        9.10885773243797
C           33.18151384987066        2.16405296901382        8.94387880228370
H           32.31568169450563        2.51939377038568        9.46248657860315
78
 energy: -116.048294724561 gnorm: 0.021270941278 xtb: 6.7.1 (edcfbbe)
Fe          35.04673339628695        4.36065936693106       10.26768100079568
N           36.97805510228114        4.06174858138116        9.71308313014116
N           34.81136898848049        5.63736886237330        8.71897265413010
N           33.18858723923644        4.77872472846156       10.91085495107694
N           35.33049958321367        3.13285487586086       11.84043181899299
C           37.88203620954178        3.24292059869896       10.31275383211989
C           39.12876055537639        3.24863426691851        9.57919450311138
C           38.94645712893838        4.08485588575974        8.51994918998160
C           37.59602614925078        4.59034165788695        8.62271418523959
C           35.74159230457011        5.97525468027547        7.78849069412495
C           35.20938026810068        6.96118204234363        6.87750543792617
C           33.92703531634191        7.20548685052434        7.28315179657176
C           33.69826311408978        6.35588944721214        8.43684193649357
C           32.31826779490034        5.66773183213714       10.35533981275228
C           31.15293611401017        5.81971099279949       11.18603590596490
C           31.33013978801378        4.98275610730596       12.26240246449782
C           32.60052334941658        4.31160713366796       12.04029276922685
C           34.40580910952908        2.80973790688180       12.78001586802992
C           34.96889730233184        1.89104012708321       13.74495902262979
C           36.26312481777001        1.69241515411414       13.37673465018390
C           36.46584273090899        2.46132938576493       12.16620004739583
C           37.65178423167909        2.49004408127381       11.45277194857692
H           38.46401049027386        1.87250908252656       11.81281382234370
C           37.03581890116931        5.48219223419897        7.72514547757668
H           37.66646310740342        5.83723811927607        6.92111521987935
C           32.52923569423753        6.36596953038686        9.17487017194758
H           31.73305866211105        7.01491188717979        8.83000449592383
C           33.13237697590943        3.34258384422927       12.87741357274644
H           32.52301475014771        2.99726439217973       13.70270581156641
C           39.90172173435352        4.42264984063117        7.42860160954989
H           40.84323344259049        3.89767894407260        7.56784470642229
H           40.10128470376029        5.49369884850028        7.40366727304751
H           39.49117894287401        4.13597714040864        6.45994142831747
C           40.35062555895144        2.47252708836488        9.93451988246014
H           40.32975601042233        1.48267285585548        9.47517381190150
H           40.43113036793526        2.34357786613420       11.01124086139645
H           41.24382552570734        2.98748918833187        9.58686411567698
C           35.92675429108304        7.53371405025807        5.70588553076153
H           36.50340188927641        6.76529271716182        5.19253782754437
H           36.61567436194593        8.32100935646578        6.01444590505892
H           35.21134365920773        7.96183033010528        5.00646020510791
C           32.95990355859526        8.14687975444449        6.74873910971576
H           31.93409993850577        7.80059564863442        6.72312860865157
C           33.24540001366824        9.37830814352847        6.32653947940356
H           34.24472997941377        9.77586938899951        6.36618154547439
H           32.48669336046338       10.03631438448194        5.93697660633305
C           30.01722517890083        6.73501414911354       10.89161340723180
H           29.88354558811313        6.85721914629558        9.81875293742296
H           30.20043632313518        7.72263352327824       11.32019841337757
H           29.09354718068884        6.34390165162425       11.31079900040820
C           30.52633776646680        4.79928653747902       13.44837306457888
H           30.75560553936946        3.90662628379019       14.01511055714966
C           29.58945235806252        5.61806884024412       13.93275563148326
H           29.32205005622733        6.54947033731110       13.46637262984123
H           29.06280765592211        5.37949068326213       14.84156016236967
C           34.23267901082080        1.31688630524305       14.90544812369337
H           33.36133795069343        0.75816344604842       14.56342835329600
H           33.88614119505337        2.10330000180832       15.57637917953484
H           34.87177481282585        0.64131279822352       15.46810311387429
C           37.30071872431036        0.88006077959280       14.07305746856802
H           37.30219589208595       -0.14838446440129       13.70920036721654
H           37.11115378427797        0.85970355090796       15.14462679662423
H           38.29198654753493        1.29883657123671       13.91390931117855
O           35.64837606962618        6.09432427528876       11.50610146745502
H           34.92506483455173        6.48138663774535       12.00179950071592
H           36.49134516891476        6.23275116712573       11.96301468405688
C           32.31811145813455        0.14304397786249        7.52441387957009