87
 energy: -128.467959855272 gnorm: 0.000041292263 xtb: 6.7.1 (edcfbbe)
Fe           6.92146204715458        7.96324425454315        7.97032080268247
N            6.92567403173241        6.47102113507555        6.63381889835056
N            8.88918255222271        7.70233109713637        8.26941816704528
N            6.91591891596408        9.46995493368112        9.29474858786588
N            4.95561335880719        8.20936903292669        7.68381002053616
C            5.87492603876171        6.03308883228295        5.89467715697331
C            6.27706246721240        4.94924078018939        5.02448786398605
C            7.59882418401213        4.73882841921336        5.26367098255625
C            7.98634294757980        5.70210981173017        6.27183608076258
C            9.68266269017213        6.75298640697318        7.70390029006448
C           11.03889600088135        6.87237506478779        8.17195967722918
C           11.05568497716941        7.93570253372135        9.03708788002717
C            9.69270009378927        8.42999415179906        9.08609426937528
C            7.99327449778641        9.98157686099435        9.94972439601521
C            7.60151807422740       11.06831910297308       10.80983694838718
C            6.24394245275027       11.19763757772446       10.67180150299811
C            5.84434494307024       10.19138071723119        9.70654781817564
C            4.14101931691191        9.08091226674824        8.33223276913615
C            2.77656899654033        8.94792873751882        7.86801827126270
C            2.79195062257674        7.97960399373793        6.91389326495301
C            4.16322632223741        7.52747554475677        6.81743082631518
C            4.58305378116717        6.52229101606013        5.96611441533363
H            3.84290692601070        6.07253595131954        5.32130866719644
C            9.26849234448173        5.81442714778900        6.77225222083955
H           10.01078361170029        5.12813798992275        6.39273569619449
C            9.29090863569168        9.50822881841815        9.85152081787199
H           10.04617470904980       10.01227090801120       10.43568357024538
C            4.54066245679648        9.99943802009884        9.28471391299930
H            3.77652220198443       10.62636748938859        9.71909210864520
C            8.52271915631482        3.74124084053043        4.65191927351435
H            9.35296665178569        4.24058662818948        4.15119475895029
H            8.00154789894652        3.12839656793100        3.92033912827172
H            8.93695452190527        3.08356499392968        5.41664667447590
C            5.36390118984512        4.24473126259310        4.07983059902038
H            4.92631072490856        4.94943021730462        3.37225820897716
H            4.54992434907332        3.76128399126123        4.62105187031990
H            5.89958871401384        3.48331454675023        3.51787970228946
C           12.15498361884618        5.95256298814076        7.81505177974901
H           12.61055666753848        6.23901585555518        6.86524679147044
H           11.79501752675406        4.92912230029898        7.72048312963180
H           12.92348850065932        5.98159576710114        8.58510078360090
C           12.15808332771723        8.47744346757562        9.79864532079385
H           11.89804624807089        8.90145583501376       10.76208275180884
C           13.43018078157324        8.50270640896314        9.41232835435620
H           13.74464873734284        8.14269152358754        8.44846138639054
H           14.20206887527256        8.91237687852754       10.04286374652550
C            8.53350930408296       11.90420978980058       11.61693842478395
H            9.46779347835615       12.06566189299274       11.08110796277136
H            8.76863613073004       11.42282518916283       12.56819340545022
H            8.08078529572778       12.87148180301955       11.82616709036145
C            5.34709921293573       12.14115435290218       11.29990234112738
H            4.49552279005080       12.44658173416768       10.70257341287934
C            5.48064564740338       12.63965255354065       12.52526508621293
H            6.27677238002509       12.33880197884097       13.18355718111809
H            4.77704073293880       13.35215637692703       12.92339481691312
C            1.63104929866849        9.75416662056598        8.37795095243250
H            1.78884241268588       10.81495251460650        8.17968063903901
H            1.52118644264135        9.62511848525581        9.45493813166031
H            0.70187197571833        9.45243914627255        7.90037267455813
C            1.66776517678445        7.43900526639822        6.09750272504541
H            1.86586401481899        7.57658056089134        5.03417595516827
H            0.73550233226430        7.94364237248090        6.33965271487473
H            1.53751038062780        6.37193674270104        6.28103897464903
C            4.87161302428075        3.83718194902900       11.13987318903532
H            4.29209295270807        4.11540956607927       12.02024877859834
H            5.53661037339947        3.01826187604253       11.41458047161793
H            4.18963377109665        3.48863280851267       10.37060532794676
N            6.58797205346485        5.64427301899126       11.38545560217993
H            6.84580067874894        5.41156555810613       12.33037699825438
C            5.64523912965471        4.99742590212274       10.62932312844203
C            7.09919468495416        6.64482052362710       10.63300709221709
H            7.85942994293612        7.31956763361122       10.96850470649374
N            6.53882672889724        6.67063456333896        9.44920728205044
C            5.63284652192520        5.65198599992345        9.43125512026367
H            5.03716580793025        5.46067456090031        8.56307292043796
C            6.98774169929276       12.38198813526240        4.54570006025667
H            6.68489178028225       12.23683150032664        3.50860298773643
H            7.87353159291398       13.01722378594821        4.55632039054516
H            6.18800527757036       12.89184216845862        5.07371044471101
N            8.23022549049423       10.21709353816560        4.75123616003646
H            8.83206001213130       10.37002345382434        3.95883932470783
C            7.26482211852689       11.07929309494139        5.20250579076518
C            8.22535112868869        9.13637214671123        5.56421089926045
H            8.87881449480948        8.29626944057621        5.45009872752081
N            7.31749837431943        9.26154847922865        6.50019745687687
C            6.71142553255532       10.46433974566620        6.28852745942829
H            5.92352213303217       10.80407450006951        6.92800504737310
