78
 energy: -116.058077556109 gnorm: 0.000083542326 xtb: 6.7.1 (edcfbbe)
Fe          -5.55275331821884       57.10546047910557       20.88470603854163
N           -6.31572606096740       56.17668907664800       22.50004389623248
N           -6.43244098388564       58.82168073390026       21.47397295788768
N           -4.75052227490394       58.04890849395607       19.32299398464193
N           -4.64601829587349       55.41546800019792       20.34810056903558
C           -6.18114057336446       54.86329072049971       22.82501795644798
C           -6.91107501460519       54.55823617887570       24.03426631698491
C           -7.49563734270375       55.72046897574496       24.43309082451574
C           -7.11793075338198       56.71922941549525       23.45899250830846
C           -7.22093077839799       59.00872397992566       22.57087014327227
C           -7.71508816271554       60.35897556665201       22.62224068312107
C           -7.21848497074963       60.99362271973131       21.51296525841799
C           -6.41241970869086       60.01132423087646       20.81684966693112
C           -4.94124941319097       59.34800184515493       18.96576320063274
C           -4.21341937763848       59.66164009265567       17.76120733460584
C           -3.57230659124110       58.51056059486223       17.39004688283864
C           -3.92352702956195       57.51866327915518       18.38913704835996
C           -3.84104365959500       55.23244273826075       19.27040184444725
C           -3.38335724334906       53.86082196897922       19.19807682317797
C           -3.93647201747927       53.21929591679050       20.26047821577217
C           -4.72241977102259       54.20876244779105       20.96713281755880
C           -5.43931761866619       53.93696018421173       22.11611200278787
H           -5.41598042034420       52.92575802701986       22.49233190681279
C           -7.53535436604059       58.03536805694968       23.50590304440886
H           -8.17928376896814       58.32113527182200       24.32361854607965
C           -5.72811210956540       60.26166478883328       19.64342756722744
H           -5.81532043487669       61.25010864717431       19.21928331678903
C           -3.49774579689985       56.20392209033158       18.35030093618623
H           -2.85228481091821       55.91065254418553       17.53638123193707
C           -8.36009936156345       55.98546150660541       25.61823080302946
H           -7.91366657416208       56.74821227988288       26.25689775782116
H           -8.49422145368890       55.08218907885897       26.20813124973564
H           -9.34315968452307       56.34003814467477       25.30663245053928
C           -6.96429038393146       53.20974273190751       24.66614708567704
H           -5.96352416306885       52.87553365233908       24.94078892791525
H           -7.38572658832282       52.47963951612049       23.97491144560431
H           -7.57788462296119       53.22596090187340       25.56361773145463
C           -8.54091495297783       60.92944326386341       23.72251583366923
H           -8.23274495848629       60.52591544004220       24.68602733220850
H           -9.59751256312283       60.69483251619934       23.58123615408016
H           -8.43120237980183       62.01175211135940       23.74755986211267
C           -7.39534330898709       62.36499763623753       21.09034061148816
H           -6.55115288802595       62.80865522771315       20.57539748646950
C           -8.49051698784498       63.09506162826106       21.27542118086831
H           -9.37623782037003       62.69439096831251       21.73674332275887
H           -8.54709255677640       64.11882652269968       20.94457915927529
C           -4.14006152098791       61.00754038901042       17.12885872429621
H           -4.08497788857942       61.78710660909245       17.88726408568231
H           -5.02077147120850       61.19743436952027       16.51295223122694
H           -3.25707628337768       61.07477693333382       16.49667329518600
C           -2.69047922637563       58.27412537171439       16.26837108195489
H           -1.88439286126170       57.57204082964733       16.44733002373569
C           -2.80134975348139       58.83553888613718       15.06876915902160
H           -3.60835688362482       59.50297646853025       14.82114235081990
H           -2.09762842823376       58.62474670465950       14.28053977850318
C           -2.47941308815613       53.33123053709168       18.13837625987479
H           -1.52909133010754       53.86524136721349       18.14570923968718
H           -2.92883609997159       53.45453389020579       17.15263229405576
H           -2.27879884251751       52.27395721889480       18.29341492903202
C           -3.80386224226545       51.79513388544969       20.67903172761858
H           -3.16897335993843       51.24648160927178       19.98774743961922
H           -4.78031560884187       51.31081881607227       20.70652913176678
H           -3.36480541933900       51.72772330261172       21.67467018777154
O           -3.79576432551323       57.70476227690932       22.23297597418426
H           -4.00492744194501       57.17467729560925       23.00980335500821
H           -4.04663887707808       58.61301017682320       22.43379952965205
C           -9.06951476394784       55.47436561250649       16.87978704199146
H           -9.72537097471781       56.22635019887341       16.44130687186138
H           -9.65289204824070       54.56891381099081       17.04681065796569
H           -8.27514051775449       55.25158146968322       16.17447316096031
N           -9.24894092056136       56.33455677439922       19.22481987259177
H          -10.25477002450355       56.31493674088304       19.26334177221985
C           -8.48117643157261       55.96531305512532       18.15152609682827
C           -8.41217552726054       56.72987543243541       20.21033567635322
H           -8.73631602610725       57.07352751918319       21.17075567521506
N           -7.16245397149077       56.63311358967666       19.82683606235349
C           -7.18894549454571       56.15841004880196       18.54822154608761
H           -6.28312843005864       55.98970861691861       18.00330284820140
