78
 energy: -115.947621291589 gnorm: 0.295609345835 xtb: 6.7.1 (edcfbbe)
Fe          14.71300000000000       28.06000000000000        4.77300000000000
N           15.01900000000000       29.32200000000000        6.30900000000000
N           13.92600000000000       26.72800000000000        6.03700000000000
N           14.54200000000000       26.70300000000000        3.27100000000000
N           15.57900000000000       29.29000000000000        3.55800000000000
C           15.51900000000000       30.65300000000000        6.24700000000000
C           15.47100000000000       31.29800000000000        7.55900000000000
C           15.00700000000000       30.35800000000000        8.39000000000000
C           14.68400000000000       29.15200000000000        7.61200000000000
C           13.67600000000000       26.86400000000000        7.40700000000000
C           13.06300000000000       25.67200000000000        8.00600000000000
C           12.92200000000000       24.80700000000000        6.93800000000000
C           13.44700000000000       25.45200000000000        5.78300000000000
C           14.07100000000000       25.39100000000000        3.35500000000000
C           14.28000000000000       24.63100000000000        2.12900000000000
C           14.89500000000000       25.58299999999999        1.28600000000000
C           15.01800000000000       26.80600000000000        1.97900000000000
C           15.84700000000000       29.10000000000000        2.24200000000000
C           16.58000000000000       30.26800000000000        1.66600000000000
C           16.77500000000000       31.13400000000000        2.70000000000000
C           16.11500000000000       30.56000000000000        3.84100000000000
C           16.04400000000000       31.23400000000000        5.04100000000000
H           16.40500000000000       32.26200000000000        5.07800000000000
C           14.07300000000000       28.00900000000000        8.13800000000000
H           13.88500000000000       27.99900000000000        9.21200000000000
C           13.48700000000000       24.90300000000000        4.51800000000000
H           12.98500000000000       23.94200000000000        4.41500000000000
C           15.59500000000000       27.90000000000000        1.50400000000000
H           15.90500000000000       27.88500000000000        0.45900000000000
C           14.55900000000000       30.47500000000000        9.85100000000000
H           13.45700000000000       30.34400000000000        9.91300000000000
H           14.82500000000000       31.47900000000000       10.24600000000000
H           15.05000000000000       29.68500000000000       10.45900000000000
C           15.85800000000000       32.71200000000000        7.86600000000000
H           14.97100000000000       33.37200000000000        7.75400000000000
H           16.64800000000000       33.04700000000000        7.16000000000000
H           16.22900000000000       32.78100000000000        8.91100000000000
C           12.71200000000000       25.54300000000000        9.50500000000000
H           12.29700000000000       26.50600000000000        9.87300000000000
H           13.62800000000000       25.30000000000000       10.08500000000000
H           11.95100000000000       24.74600000000000        9.64500000000000
C           12.30100000000000       23.56800000000000        6.92200000000000
H           11.62400000000000       23.31100000000000        6.09400000000000
C           12.49100000000000       22.61700000000000        7.91400000000000
H           13.15700000000000       22.82300000000000        8.76500000000000
H           11.97800000000000       21.64600000000000        7.86200000000000
C           13.80800000000000       23.21100000000000        1.86800000000000
H           12.87800000000000       23.23500000000000        1.26100000000000
H           13.59500000000000       22.70300000000000        2.83300000000000
H           14.58900000000000       22.65300000000000        1.30900000000000
C           15.49000000000000       25.49600000000000        0.01300000000000
H           16.08200000000000       26.33200000000000       -0.38900000000000
C           15.34200000000000       24.36100000000000       -0.75400000000000
H           14.75700000000000       23.50800000000000       -0.38100000000000
H           15.80800000000000       24.29500000000000       -1.74800000000000
C           17.01600000000000       30.36799999999999        0.22700000000000
H           16.15700000000000       30.13300000000000       -0.43800000000000
H           17.83300000000000       29.64099999999999        0.03100000000000
H           17.36600000000000       31.40000000000000        0.01200000000000
C           17.59600000000000       32.41500000000000        2.69800000000000
H           16.92000000000000       33.28900000000000        2.58200000000000
H           18.31300000000000       32.40000000000000        1.85000000000000
H           18.14600000000000       32.51000000000000        3.65900000000000
O           16.67900000000000       27.16300000000000        4.97600000000000
H           16.67900000000000       26.39500000000000        4.40500000000000
H           17.35500000000000       27.44200000000000        5.48200000000000
C            9.55200000000000       29.50700000000000        2.58600000000000
H            9.54800000000000       30.48900000000000        2.06600000000000
H            8.64900000000000       29.43600000000000        3.23000000000000
H            9.54100000000000       28.69700000000000        1.82600000000000
N           11.08300000000000       30.33800000000000        4.51800000000000
H           10.48400000000000       31.09500000000000        4.77900000000000
C           10.85200000000000       29.38700000000000        3.47500000000000
C           12.33200000000000       29.97000000000000        5.08700000000000
H           12.81500000000000       30.48699999999999        5.91500000000000
N           12.77300000000000       28.92300000000000        4.44100000000000
C           11.90800000000000       28.40100000000000        3.47300000000000
H           12.08600000000000       27.48700000000000        2.92700000000000
78
 energy: -116.015908386341 gnorm: 0.130899637529 xtb: 6.7.1 (edcfbbe)
Fe          14.71316671873999       28.06191769243215        4.78348547295313
N           15.02619535295030       29.34663989691516        6.30936199219003
N           13.92108844076559       26.72565516621575        6.06073084345276
N           14.54106679343563       26.68800394824916        3.28288104955548
N           15.58041542438997       29.31089524706447        3.55084837971463
C           15.52033565743205       30.64724811070133        6.23874704897191
C           15.46525730021333       31.28455294371356        7.54621643785824
C           14.97323392187348       30.34705879281879        8.39458981814834
C           14.68257931804475       29.15263007154521        7.61005991553373
C           13.69843533380988       26.87743155744358        7.41505131669874
C           13.07997385836368       25.69695252122809        8.00312182944802
C           12.91780332574335       24.82320879043396        6.94821354019444
C           13.43544012816579       25.47226250528498        5.77421531375955
C           14.06328102284770       25.39681592154984        3.36240765388235
C           14.27050173399534       24.65669835651952        2.13364616858556
C           14.89614103747238       25.57349231902532        1.28842696011584
C           15.02402838486672       26.80726024848591        2.00564964692510
C           15.85326324165735       29.11380133901674        2.23720060128764
C           16.57885228074911       30.25738598301662        1.66809689671893
C           16.77218125136087       31.12813235940389        2.69697289508824
C           16.11192601181493       30.55853538143326        3.84817616643473
C           16.03282350055901       31.21626059989639        5.05936551153881
H           16.39799071482325       32.23905492582546        5.09408713693768
C           14.07909019259687       28.01159030702356        8.13338690325142
H           13.88485820506461       28.00127142024705        9.20069050851283
C           13.47820760227195       24.89662581488334        4.51708207801823
H           12.99723790120083       23.92920715211814        4.42079228155314
C           15.60127998004680       27.93964115151238        1.51234490805816
H           15.90858801134283       27.92346907392531        0.47381205087630
C           14.56312715882619       30.47531643554440        9.84292011271434
H           13.47505510112649       30.34812114432981        9.91608288645946
H           14.82361392101313       31.46244088029576       10.24096328877743
H           15.04318099238220       29.70035876510759       10.45285173404731
C           15.85498269644482       32.69821478739344        7.85769394029668
H           14.98607242200987       33.36429693968176        7.75321593205133
H           16.63735864664106       33.04610082774953        7.17379087400450
H           16.22196418441406       32.78077960585218        8.88911874975535
C           12.71819215447286       25.54968880189665        9.47356093051241
H           12.30599902966171       26.49047650860441        9.86076595887170
H           13.61071506450437       25.30377583976685       10.06667816400851
H           11.97053216874051       24.76012299981365        9.62913025935249
C           12.29806695493982       23.54273761694436        6.94345447157819
H           11.63949180340339       23.29727647487948        6.10755872388718
C           12.48173454848848       22.62252591306813        7.90781355623417
H           13.14667366473573       22.81622181260702        8.74362532856932
H           11.98493407299926       21.65995000942805        7.86586791011084
C           13.81751892928763       23.23877308990543        1.87748078349605
H           12.89834039445587       23.23729943045344        1.27187821207706
H           13.60265288691623       22.71664044385951        2.81778611425320
H           14.57940581455399       22.66308148657970        1.33485096807897
C           15.48068737994855       25.45751213951321       -0.00671573612511
H           16.06839910419054       26.29149322581965       -0.39211700310527
C           15.34533215259864       24.35991624265126       -0.76679726168094
H           14.76733780159633       23.52015428165938       -0.41214630713221
H           15.80767822881098       24.29091565717784       -1.74278288267741
C           17.01155063704234       30.36452631617310        0.23711494298430
H           16.17104016093290       30.13633394359465       -0.43072142860697
H           17.82238318405658       29.65383010651308        0.02887264695577
H           17.36144096539898       31.37994924857430        0.01524378230116
C           17.58009238214419       32.40369752984066        2.69667165866078
H           16.92742648528560       33.27989313431372        2.58393079680004
H           18.29728154355340       32.40017033924514        1.86714194341591
H           18.13531437293640       32.50768670576574        3.63782976654246
O           16.71423534628575       27.19847472615475        4.94397026531616
H           16.56547059175995       26.38048271903533        4.43848997633338
H           17.45006420525283       27.40027207421334        5.48970614704889
C            9.57725520724269       29.50204561916802        2.60656773810335
H            9.55800245390529       30.46813337511032        2.08355666139270
H            8.67135553173109       29.43245715017795        3.22242614543993
H            9.55231764917124       28.70880936326873        1.85162327605974
N           11.09494754881790       30.30567004138914        4.49050814371748
H           10.49550634006996       31.07128509066072        4.75919065570847
C           10.83342062785081       29.37771696654195        3.47846971810688
C           12.31614060166376       29.95466072677448        5.05534074639050
H           12.78867514152467       30.47555438356031        5.87786058652329
N           12.77701731212393       28.89695107043770        4.45531741981662
C           11.89056134483070       28.46308045597402        3.48930061259900
H           12.07021044265793       27.54842795500126        2.94239676371065
78
 energy: -116.037469994204 gnorm: 0.064399864480 xtb: 6.7.1 (edcfbbe)
Fe          14.69510619591329       28.06655395350270        4.78652608281678
N           15.02816006319595       29.36817110886579        6.30783790867008
N           13.91732455723458       26.72040660368570        6.08226166719253
N           14.54259813700166       26.67271308199853        3.29208857171961
N           15.57417703549985       29.33983296969583        3.54227695021305
C           15.51908519015933       30.63348799887200        6.23303325521870
C           15.46008084185109       31.26859252584744        7.53365293573118
C           14.93935121237100       30.33801814134147        8.39539628670830
C           14.67575755280040       29.15602983935766        7.60568469861412
C           13.72321230284172       26.88800150615332        7.41890512117374
C           13.09651601522700       25.71998729445150        7.99722098940421
C           12.90649127605094       24.84363291685954        6.95733374939338
C           13.42199658041354       25.49424609580480        5.76495184739742
C           14.05198600396637       25.40494726121327        3.37219194243418
C           14.25752811741961       24.68680017077640        2.13880973395720
C           14.89635264797928       25.56911818788768        1.29450793170004
C           15.03328474332676       26.81041706186609        2.03531736769001
C           15.85747943316877       29.12679437028593        2.23139406491000
C           16.57640802728241       30.24769837209199        1.67161649863402
C           16.76813196725454       31.12498120590276        2.69390238593255
C           16.10495838966285       30.55741449348061        3.85301373031538
C           16.02148445743393       31.19410352582110        5.07983772339771
H           16.39701362101779       32.20892032367150        5.11709131904329
C           14.08551694617555       28.01437612691344        8.12690642604196
H           13.88624790369869       28.00562787397538        9.18805966695724
C           13.46596591909004       24.88829475525707        4.51883471626970
H           13.01218879117132       23.91194311327077        4.43386109133050
C           15.60393499723043       27.97567387650061        1.52366268699847
H           15.90741374136588       27.95736119573638        0.49019208377375
C           14.56810278361445       30.47607966833316        9.83108789472779
H           13.49132922536242       30.35307786261226        9.92597340725615
H           14.83105209314949       31.44869054419771       10.22793042854017
H           15.04356626819233       29.71429235667328       10.44142387050144
C           15.85332299947087       32.68034913188919        7.84856945860602
H           14.99951049712416       33.35113028543626        7.74908721720394
H           16.63048442746285       33.03576639758908        7.18256447569473
H           16.21744445264710       32.76970313473445        8.86838450409965
C           12.72836321971167       25.55938362287877        9.43747014066482
H           12.31636804878965       26.48132778053992        9.84049603704467
H           13.60130470974215       25.30762831450973       10.04076577492132
H           11.99236391056913       24.77393300032833        9.59221316706848
C           12.29379833432398       23.52293284145241        6.96458693426627
H           11.65358900964190       23.29418641015795        6.11958022056042
C           12.47511093021349       22.62505650574688        7.90414162322134
H           13.13459256640579       22.80591451109997        8.73104799635320
H           11.99054134908839       21.66885084125112        7.87400110274069
C           13.82482747767368       23.27235329287101        1.88881397854869
H           12.91710674941877       23.25013018760869        1.28165642816127
H           13.60904691987530       22.74306676134992        2.81129037144150
H           14.57799867218971       22.68937719583948        1.36329559852362
C           15.46431467274030       25.41860616618201       -0.02493585964318
H           16.04923762543994       26.25324039019393       -0.38770830507986
C           15.34247218189341       24.35192228710154       -0.78632184550576
H           14.76881020673816       23.51695958592311       -0.45792659657352
H           15.80586422451264       24.28302894836252       -1.74722922186724
C           17.00801459685119       30.36037727458985        0.24836689877043
H           16.18170625745626       30.13816246046262       -0.42081423002095
H           17.81327755089860       29.66260233011643        0.02913642917426
H           17.35811170334769       31.36219632986210        0.02429482410728
C           17.56345533647099       32.39201714078459        2.69438893606499
H           16.92761518717017       33.26818466476481        2.58592575157845
H           18.27890894632581       32.39538311442187        1.87840810782699
H           18.12202281338376       32.49888476501811        3.61990088246665
O           16.70149641587480       27.19231974363029        4.92571409354179
H           16.68102311387143       26.37847941186695        4.43667613416980
H           17.41164844640716       27.38052906582790        5.55647660650503
C            9.60873336092739       29.49664918486626        2.63385755259773
H            9.58160125105258       30.45095749091364        2.11022947618693
H            8.69970549299639       29.42923826053918        3.22716309231016
H            9.57566485409810       28.71484676185600        1.88526260051574
N           11.10566546383095       30.27981892925834        4.46528830874944
H           10.51095074437609       31.05279565955651        4.74039862903326
C           10.82101933705068       29.37545590776595        3.48075759026437
C           12.28914316034720       29.94244232918250        5.02251145404917
H           12.75373000773815       30.46900858914818        5.83505447754034
N           12.77876373033082       28.87585790413749        4.45743229316383
C           11.86714648981625       28.51658878237309        3.50703049539000
H           12.05031951558107       27.61406992310724        2.94691136089868
78
 energy: -116.043797577218 gnorm: 0.035899931829 xtb: 6.7.1 (edcfbbe)
Fe          14.69983376965165       28.06512662641817        4.78651078523428
N           15.01727956656333       29.36061441262426        6.30797655057649
N           13.91739367451789       26.72274962432129        6.07366993066191
N           14.53599708115178       26.68273104123156        3.29025013813955
N           15.56051329306592       29.35218082129133        3.54343338582878
C           15.50855216677709       30.62655869746158        6.23550230850203
C           15.44823733423547       31.26670319281849        7.53211245964673
C           14.92456347276128       30.34227203899301        8.38943515002976
C           14.66159790982078       29.15885560544210        7.60375154389237
C           13.73054811514593       26.88638524007386        7.41143535734909
C           13.10262275787709       25.72026417178585        7.98851829130252
C           12.90128278547359       24.84814362149021        6.95287715059428
C           13.41522592808176       25.49963399855690        5.76152046279077
C           14.03996148008192       25.41622082125380        3.37481810195796
C           14.24879720743184       24.69901061901923        2.14310266159975
C           14.89271204247962       25.57428935363220        1.29540150569679
C           15.03267700319353       26.81598222925041        2.03642053508728
C           15.84631385091645       29.13573673455824        2.23352794444925
C           16.57122504986140       30.25561098916593        1.67498700359491
C           16.75866991412419       31.13362418178053        2.69563308322037
C           16.09490946350387       30.56491226462354        3.85228845484257
C           16.02057111954368       31.19309535352361        5.08333898689294
H           16.41107004727415       32.19989934267321        5.13661965739912
C           14.08491034408754       28.01454584967448        8.12622192959525
H           13.88351493844393       28.00822972797485        9.18696559844532
C           13.45787254315576       24.89157354984271        4.52024106289874
H           13.03015970325363       23.90041759236582        4.44653129313623
C           15.59779929670454       27.97931733624671        1.52707493421448
H           15.90115747389277       27.97216040718050        0.49316244964275
C           14.56856587120333       30.48044265869240        9.83027409925244
H           13.49009727595893       30.36154673209829        9.94924369109476
H           14.84820861712414       31.45630926121839       10.21557709023478
H           15.05701230273321       29.71677383692220       10.43331281665849
C           15.85086235354882       32.67227351539263        7.84269431312455
H           14.99778272540046       33.34558793461485        7.73850867950337
H           16.63428834782853       33.01836785304305        7.17461681021490
H           16.21462027783748       32.75246066862900        8.86498215980694
C           12.73628531019155       25.56467849057647        9.42435955350171
H           12.32078963690810       26.48954899792130        9.82214776016597
H           13.61265856495774       25.30839919873202       10.02267195434142
H           11.99937706345955       24.77385504972155        9.55024928242866
C           12.29017663617132       23.52987890160696        6.96550842914068
H           11.65501437663124       23.29808462548620        6.11804047790042
C           12.47421249211762       22.62106401151625        7.91468996103655
H           13.13591622437504       22.79865632944765        8.74370852761913
H           11.99241439289308       21.65921068895919        7.88259580955795
C           13.82612879008910       23.28631684674685        1.90313552390644
H           12.92741159677258       23.26191948427345        1.28126113485245
H           13.60418631958308       22.77445677941661        2.83546241350332
H           14.60225379629288       22.71380309583253        1.39744992721548
C           15.45386202636025       25.40452220190942       -0.02575239815593
H           16.04645519057165       26.23386577181833       -0.38578958932404
C           15.32982858178589       24.33648129782260       -0.80979164778341
H           14.74005401855046       23.49121757892943       -0.51677369948542
H           15.81015233752108       24.27989845362169       -1.76959230832327
C           17.00929784616216       30.36139902708398        0.25341102302890
H           16.18021869566677       30.13919176282609       -0.41661575827178
H           17.81463975756136       29.65932416916080        0.03670329061001
H           17.36228520230508       31.36523320287160        0.03379410753884
C           17.55143989542746       32.39788794505428        2.69323325330135
H           16.90830109404229       33.27149023528124        2.58801381387312
H           18.26289561502937       32.39638825857862        1.87092306865484
H           18.11117519353630       32.49685603682477        3.62099903076076
O           16.73998038490133       27.22541328551790        4.89082162376160
H           16.68709434999219       26.31040430572808        4.53047494036879
H           17.42291431036993       27.34606110328397        5.58093671912905
C            9.61123211256551       29.48663168071540        2.64270090226152
H            9.59870687148334       30.44593548074279        2.12464262160245
H            8.70589151560856       29.41750358572369        3.24491465363804
H            9.59601881850202       28.69607566005155        1.90004278925209
N           11.10685784314818       30.28696647551230        4.46673026442798
H           10.51739177104530       31.06036070059837        4.73490484290982
C           10.82554051486424       29.37164298257338        3.48611113041363
C           12.28800279250782       29.94426167080016        5.02229523290309
H           12.74969668205100       30.47965031933036        5.82627809566873
N           12.78429504455196       28.87571285561268        4.45280836826047
C           11.88257550223150       28.50911941299766        3.49511044557184
H           12.06496372650648       27.62802413290629        2.91164605112459
78
 energy: -116.046294036126 gnorm: 0.023419605940 xtb: 6.7.1 (edcfbbe)
Fe          14.70740187062982       28.06185641015410        4.78734243858320
N           15.00473095254384       29.35106499038580        6.30736710841569
N           13.92099873292218       26.72415857374581        6.06372857835468
N           14.53034478879755       26.69568407971483        3.28854070323906
N           15.54838278632786       29.36159610074733        3.54487207919841
C           15.49812461155034       30.61762977686393        6.23575284310106
C           15.43523304795378       31.26329019410941        7.52859762726128
C           14.90493485343897       30.34687192832249        8.38266727358321
C           14.64303179412822       29.16095923036912        7.60175718019732
C           13.73584470610465       26.88525315950474        7.40208508508992
C           13.11130391573244       25.71968368106637        7.97881674735910
C           12.89855741956975       24.85020197988876        6.94710662322390
C           13.41159257355674       25.50317706435272        5.75707488630557
C           14.03150562168071       25.42921623591326        3.37744403188531
C           14.23698237726068       24.71315558843489        2.14640731995255
C           14.88408188842809       25.58090671005302        1.29443748478567
C           15.02792999042051       26.82357130055038        2.03499985196943
C           15.83406530695816       29.14340474682185        2.23540111928051
C           16.56340720779229       30.26361296839199        1.67822428550746
C           16.74690220463146       31.14242882871562        2.69744549580495
C           16.08412184222290       30.57146776638435        3.85172512578966
C           16.02051715392332       31.19057713726476        5.08668325954461
H           16.42714874815405       32.18883194477507        5.15926459936073
C           14.07948479117519       28.01402532966159        8.12553482474341
H           13.87670081335069       28.00768339379217        9.18588991045701
C           13.45509004860008       24.89387431653862        4.52049495278866
H           13.04560045164468       23.89459730605346        4.45582105891583
C           15.58790593195296       27.98345779405253        1.52756214663767
H           15.89631463978836       27.98482593709147        0.49420359534091
C           14.57048332518570       30.48788673430968        9.83015326060219
H           13.49244748743441       30.37530186157034        9.97878115570130
H           14.86813147358164       31.46629774649223       10.20275870250131
H           15.07309932936506       29.72235512382001       10.42362687406563
C           15.84912809909492       32.66275355204777        7.83400636603986
H           15.00084082160014       33.34270325398253        7.72306368230434
H           16.64054446454090       32.99682299671591        7.16582162403406
H           16.21056317057695       32.73689076540614        8.85885290615233
C           12.74209238442972       25.56690647347629        9.41153046610587
H           12.32302296839834       26.49324861954834        9.80446473843026
H           13.61891602081709       25.30988603423770       10.00945100924372
H           12.00488504582593       24.77226912691947        9.51658668704160
C           12.29030621306296       23.53482543634169        6.96622409691940
H           11.65678746430138       23.29855838303746        6.11944398132826
C           12.47261867329941       22.62218152484246        7.92223109083517
H           13.13072589149473       22.79839986699619        8.75668533143213
H           11.98996602502699       21.65797481141196        7.88838787506379
C           13.83001141738829       23.30009406047652        1.91359073704556
H           12.94316067975811       23.26476066356829        1.27514643214221
H           13.59787302907251       22.80218717054640        2.85266948010709
H           14.63089714527706       22.74320159558988        1.42649266572728
C           15.43633772008925       25.38607667889391       -0.02627614895580
H           16.04658979065892       26.20429984335351       -0.38387310987083
C           15.30547251390143       24.32262690760906       -0.82726720102111
H           14.70474228689358       23.46590823297985       -0.57042157711051
H           15.80286363815120       24.28154200825240       -1.78465436215531
C           17.01074191855098       30.36340302706207        0.25927257766316
H           16.18169734663694       30.14267295583501       -0.41442962445738
H           17.81496788762494       29.65553003224543        0.04911054724969
H           17.36986528370770       31.36742478201587        0.04257075006067
C           17.53434664230550       32.40767777700769        2.69263940511799
H           16.88414459827023       33.27871721877549        2.59403856348553
H           18.23962629365292       32.40766423971032        1.86300126036917
H           18.09891352332448       32.50296797210930        3.61950389315755
O           16.75065069600865       27.18763823239158        4.94983843051864
H           16.72421982668312       26.31705130284735        4.55846198495505
H           17.43860461401193       27.29743363429606        5.60868232982508
C            9.61780412699978       29.47429807621138        2.64657949292480