78
 energy: -116.058000452423 gnorm: 0.000057026435 xtb: 6.7.1 (edcfbbe)
Fe          14.86381760251575       28.02262704765764        4.76915619391986
N           15.06202140816630       29.33216883979248        6.28540900072020
N           13.97632361892680       26.72202445029139        6.02633829327354
N           14.74338182934682       26.68762837160572        3.29500380373097
N           15.76942357670424       29.31019109603984        3.54792330569685
C           15.63183538772037       30.56642517137277        6.23186142271425
C           15.57202111445468       31.21387551393649        7.52227001567400
C           14.93891729252184       30.34554481607309        8.35704656469380
C           14.62188479230227       29.17846948187056        7.56542547853950
C           13.64821900691157       26.93555950545580        7.33152051883178
C           12.95798631632487       25.79704031490422        7.87873969152935
C           12.87373675166439       24.87443473423685        6.86865224308423
C           13.51026421955102       25.48315403362004        5.71783497302411
C           14.23529845812798       25.42716780603477        3.37146704431726
C           14.33740797105642       24.75386016774643        2.10068035682269
C           14.91080823412121       25.64913441728387        1.23833640001884
C           15.16142689137854       26.84850906512211        2.01604252244768
C           16.01093807643474       29.13759601700612        2.22332602621238
C           16.64307865916313       30.31134836016494        1.65986300937866
C           16.78563269586224       31.19534116204564        2.68242519322460
C           16.23125945126178       30.55140470979448        3.85380927881832
C           16.18259512615396       31.14360222064297        5.10198165490310
H           16.59723817459396       32.13521342755405        5.20142736880922
C           13.95788727602457       28.07274653794208        8.05839893825704
H           13.65733599436335       28.09779019948126        9.09451379995597
C           13.65420260233178       24.86042180448051        4.49254354768657
H           13.26913556405076       23.85664884289978        4.39737718560861
C           15.72727130783230       27.99745778297350        1.49769958446851
H           15.98198491318006       28.00101827654788        0.44896527339736
C           14.60654091526698       30.49776121755370        9.80186067300643
H           13.52832096156364       30.44381643591100        9.95487622468604
H           14.95816240195088       31.45408911213250       10.18117609350860
H           15.07050803522946       29.70455807745155       10.38865530388971
C           16.11997312057805       32.57014852696889        7.80833663544583
H           15.62141545266908       33.32341311522298        7.19741982235760
H           17.18640761266447       32.60741048446156        7.58512398759964
H           15.97984653218617       32.83146594755872        8.85433129739952
C           12.39961637307192       25.71366632678790        9.25651012387085
H           11.99241116668763       26.67515472696011        9.56563369570578
H           13.17048831176758       25.42696037296176        9.97408721659646
H           11.60508595951588       24.97109012399846        9.29234188131401
C           12.26303569182650       23.56364122435878        6.87458136089711
H           11.81237423183430       23.25326155544175        5.93884586300253
C           12.22469470014307       22.73441142047309        7.91258892985578
H           12.69648343930892       22.96790239884744        8.85103385709502
H           11.73891844770715       21.77484065403542        7.84906722041966
C           13.94973973028643       23.33875182370864        1.84706210063552
H           12.87682619499116       23.25368938218130        1.66525718800097
H           14.19789193991648       22.71225810408773        2.70261007096031
H           14.47630604178043       22.95942906627246        0.97373693458117
C           15.25763482391780       25.48235914377216       -0.15557673567998
H           16.14669141445622       26.00905524664199       -0.48215037872306
C           14.57933656241632       24.75574927570134       -1.03795220594612
H           13.66467049937541       24.25002509428044       -0.78195138302227
H           14.90496267362222       24.66330156250225       -2.06088187792302
C           17.04039935053142       30.44804223218932        0.23029098012750
H           16.17768048559024       30.31199549769524       -0.42211809945935
H           17.78460698016961       29.69597986957519       -0.03243137120243
H           17.46484064600368       31.43048683104112        0.03802101177326
C           17.38073082656636       32.56205674355884        2.67575258727498
H           16.64773367327101       33.30392408858659        2.99467243762066
H           17.72540158137917       32.82831124353939        1.67967624806339
H           18.23048271914509       32.61275520186342        3.35683367248690
O           16.86202867821386       27.14020431560355        5.46960962187203
H           16.54781329587180       26.37867151442788        5.96902631725610
H           17.12118170496358       27.81227510921946        6.10936529911590
C            9.53408264682120       28.77246787438627        3.31889186401884
H            9.33217352896234       29.22279146799375        2.34701771320734
H            8.85939642876955       29.21975210279064        4.04872365760250
H            9.32660200044708       27.70875194698597        3.25893484221442
N           11.49147089406475       30.22793730134572        3.88632060831472
H           11.00522440729906       31.10174839390055        3.76967015413385
C           10.95048612650268       28.98102648161894        3.71234420489333
C           12.78721541112157       30.06720395897890        4.23761528209859
H           13.45990374687936       30.87524763141769        4.43875617287746
N           13.09916308968811       28.79526393820955        4.29641253919736
C           11.96690866768327       28.10719268481538        3.97233273952033
H           11.95879556225254       27.03729897539123        3.94861892773019
