77
 energy: -118.995490596200 gnorm: 0.000120503529 xtb: 6.7.1 (edcfbbe)
Fe          35.21061187888630        4.38027889701812       10.43094154313076
N           37.05242223797211        3.93560845325380        9.72593202589801
N           34.88060169266894        5.51533844001550        8.79233221977906
N           33.29747477198647        4.64239122833792       11.02708055819682
N           35.47507129049082        3.06515486327981       11.94476768205470
C           37.96950928980623        3.13016532992267       10.31870022328814
C           39.20068301836910        3.12418300243698        9.55899705421026
C           39.00004690405543        3.95080854851471        8.49681460631907
C           37.64906022916920        4.45416021869709        8.62027557198065
C           35.77170330156045        5.82290401792801        7.81459065829384
C           35.19003235724173        6.75044681950540        6.87612428315672
C           33.92248973606532        7.01087062579621        7.32587162517343
C           33.75236527923104        6.21917306544737        8.52985435923142
C           32.39664415102801        5.48052304468218       10.45073605073377
C           31.17255342208175        5.50554229850033       11.21346726928744
C           31.36214701585817        4.66072203914632       12.27469561454514
C           32.70618652180634        4.13295364685779       12.13417101904965
C           34.58692572045273        2.76462531650739       12.92778697623448
C           35.17686858961271        1.84059254067260       13.87180547666941
C           36.44366876005570        1.60176323835579       13.43531060616995
C           36.61240265267266        2.38029386935145       12.22794461980148
C           37.77451174130375        2.40021072046065       11.47786560418152
H           38.60303175248030        1.80654930227535       11.83367840899999
C           37.06359450434957        5.32964076181119        7.72512594871217
H           37.66882907807523        5.66880237383581        6.89809131667201
C           32.60063556948796        6.21404093052120        9.29460508627935
H           31.79706860633112        6.86115341433119        8.97735530316738
C           33.29786600205328        3.25653226097237       13.02717591687781
H           32.71357083888792        2.94241776853629       13.87874976783206
C           39.93551978440736        4.31948129791615        7.39775429686926
H           39.51574574652777        4.04829440669497        6.42891491531863
H           40.88899065631190        3.81058993669886        7.51358263703717
H           40.11762450475927        5.39383148348942        7.39912999587463
C           40.41377073225688        2.34331088435955        9.93210710505740
H           40.18690684484343        1.27807567110743        9.98278769169457
H           40.78218746425803        2.65759503206199       10.90830410072174
H           41.20696257592777        2.49014014867338        9.20367962560535
C           35.85733233643263        7.25264488262173        5.64456841183526
H           36.45214589712449        6.46769679828076        5.18001548559756
H           36.52093424791961        8.08591450746770        5.87897364834231
H           35.11242235561806        7.59705520411315        4.93014438626560
C           32.90403594535697        7.86106459857176        6.74765545469555
H           31.88254930904918        7.52105935971585        6.87316879295021
C           33.12963087942526        8.99995218378694        6.10175381269411
H           34.11795171439922        9.41056161632917        5.99409728872474
H           32.32272541564970        9.58039469678669        5.68644042828652
C           29.94812549076619        6.26511823433524       10.84193750377878
H           29.78411531480035        6.23320416784246        9.76579043606638
H           30.04131708185624        7.31057015585457       11.13793187594955
H           29.07895549104441        5.84093955410589       11.34039599605084
C           30.44784689745777        4.30790873551572       13.34009793706185
H           30.52119005122212        3.28851405767855       13.70116229790329
C           29.56214577359216        5.12877268919305       13.89370893821396
H           29.48555022720170        6.16307128803689       13.60813896985432
H           28.90295871957790        4.79874623914257       14.67931304237066
C           34.47549987074826        1.30652072386663       15.07245713156828
H           33.57230243887228        0.76947987281671       14.78226208622350
H           34.18634371559416        2.12101582143504       15.73608359084552
H           35.11747310139689        0.62560077675355       15.62541720710910
C           37.49930283322330        0.73390075244180       14.02948316326866
H           37.81519415544108       -0.03118968622378       13.31984305417873
H           37.13366157590827        0.23964087781242       14.92576161185606
H           38.37263665613658        1.32796826550948       14.29758968874001
C           32.18283520161511        0.67453951231808        6.98770046207028
H           31.69649171719342       -0.17515667699895        7.46676543201116
H           32.64138147280074        0.32701279373804        6.06198475779171
H           31.42794445279166        1.41592579402882        6.74516204515399
N           34.27855926580146        0.56895226808319        8.35576489322821
H           34.48448914869937       -0.39458309310313        8.14656375160284
C           33.19971506726364        1.27494879286430        7.88660208524277
C           34.99942895658262        1.39833463870613        9.13990534001149
H           35.90140462682430        1.11894632157912        9.64486789569807
N           34.44808937088737        2.58119856101653        9.19700976306971
C           33.32836232889787        2.52429277967344        8.42435399698900
H           32.69637849027974        3.38043619999534        8.30920706938198
O           35.82833505916498        5.63088782191239       11.35637303664900
O           35.20595212203997        6.74997201441811       11.35843946653188
