87
 energy: -124.720432164509 gnorm: 0.000034107930 xtb: 6.7.1 (edcfbbe)
Fe           9.37628194978823      -13.13272858649128       18.16400374784359
N            9.65242885448163      -14.15448322951395       16.46275783916841
N            7.58904735031153      -12.51340507357491       17.51299673385574
N            9.13563230478935      -12.07197302609745       19.84543859070264
N           11.17999439535004      -13.72884644980594       18.80196033216070
C           10.71631431881115      -14.93258244792039       16.13461139318009
C           10.54414118974662      -15.50530645132445       14.81789595902028
C            9.35142884820034      -15.04393830117593       14.35566765049195
C            8.80805380216793      -14.20377222063679       15.40050771960689
C            7.02075443494545      -12.79069835874414       16.31130528199267
C            5.71115198610412      -12.19667448729487       16.21437902779310
C            5.48742717144234      -11.56116825611396       17.40611947776231
C            6.68783422984008      -11.76423164032734       18.19585251240939
C            8.03047011828707      -11.36848128339723       20.21307471116969
C            8.23035012139967      -10.72936197637294       21.48820100580101
C            9.50395903525330      -11.04628967270535       21.88080575703037
C           10.04849730748945      -11.88300602116680       20.83009420995393
C           11.81243078138981      -13.33711744539648       19.93912730177282
C           13.10905925066647      -13.96798945057483       20.04739249102667
C           13.24874970591693      -14.74451877769128       18.93948092286938
C           12.04047200127880      -14.56726173776462       18.16539840855337
C           11.82876557974274      -15.14675196575108       16.92787892880462
H           12.60066295589815      -15.79513744518898       16.54193291449933
C            7.58740422101539      -13.56571756887104       15.31516847964195
H            7.01892617620724      -13.70503496091792       14.40848664124824
C            6.87143075056412      -11.25032976034536       19.46429734347218
H            6.05688524268019      -10.69129834506037       19.89906513408432
C           11.30134417150282      -12.46705393260210       20.88351337405352
H           11.91987173822093      -12.24677789642342       21.74004545557481
C            8.67529258871695      -15.31252424281828       13.05523934409631
H            9.28157801568030      -15.96378489757905       12.43021606956861
H            8.50126594756498      -14.38204689661061       12.51428101010320
H            7.71080185341411      -15.79379225224264       13.21834290665723
C           11.52654912404290      -16.41404609788644       14.16103675043785
H           11.68493035083656      -17.30862171877839       14.76405272535860
H           12.48913239840894      -15.91654887822669       14.03727195299088
H           11.17250947859087      -16.72174586371507       13.18024936926406
C            4.83770240380779      -12.23922527000216       15.00964001295269
H            4.28193851507562      -13.17723610293724       14.96589971833707
H            5.43132773541365      -12.15637243764703       14.10037210540807
H            4.12405111960817      -11.41810521801125       15.03630933798232
C            4.33689647971244      -10.79728316765189       17.83440036304031
H            4.54652843378808       -9.96177188220050       18.49270243228860
C            3.07589265014549      -11.04535915929211       17.49523830440412
H            2.80207388558319      -11.88867368425653       16.88595404712246
H            2.26672837560808      -10.42426234784152       17.84237866567917
C            7.24738901279125       -9.84048304775736       22.16695602621914
H            6.50099167904980      -10.42556783505457       22.70713935007817
H            6.72517974663212       -9.21703366997534       21.44257483856027
H            7.75766201794460       -9.19394908310817       22.87800350869881
C           10.22106788637574      -10.64921636921062       23.07194269186806
H           11.28795830142309      -10.50154372883680       22.94844840505709
C            9.68068943400396      -10.46834374886734       24.27268493347544
H            8.63690314667645      -10.64713021893664       24.46374309075240
H           10.27385482660167      -10.15829692915483       25.11706568278362
C           14.05180707150117      -13.76317740337221       21.18312473045273
H           13.58842201298708      -14.05886285214409       22.12482779009204
H           14.33466782553519      -12.71306673189712       21.26162577420121
H           14.95604569236429      -14.35144748163438       21.04665290080564
C           14.38671275586220      -15.61795554010773       18.53451496926789
H           15.16176928872501      -15.62121115386070       19.29701583041371
H           14.82745415838376      -15.26803787880131       17.60025049095619
H           14.04888087627278      -16.64360487892534       18.38415513524566
C           10.58730473069000       -8.00299652240927       16.36168928584301
H           10.53154676802878       -7.81554621485953       15.28940541187206
H           11.48624699921955       -7.52080691477379       16.74574592845058
H            9.72132651001251       -7.55492793707329       16.83867007266846
N           11.59143672643019      -10.28880257985669       16.16307208966361
H           12.37147319580870      -10.00763767629456       15.59203363684191
C           10.60975467926358       -9.46093025377522       16.64180126909929
C           11.31868994748504      -11.54035260490662       16.59580189752331
H           11.91986841630530      -12.39754320341141       16.37347133902767
N           10.22561006129406      -11.55462816682386       17.31809232024461
C            9.77299267837504      -10.26920349688684       17.35637596109251
H            8.88173328136911      -10.01394372782098       17.89061953602274
C            8.99014697155151      -15.07719621782390       21.69011687537534
H            8.68118053881839      -14.82696939030217       22.70342160608241
H            9.76551204995164      -14.37918683072457       21.38661369082596
H            9.40258941726856      -16.08341063337037       21.69879216418270
C            7.80031896556701      -14.97773481491922       20.75752971746126
H            7.29499181986145      -14.02003119072770       20.87439790309557
H            7.08609499333141      -15.78307366534507       20.93632069574697
S            8.21964362185361      -15.02946164282246       18.97199205323210
C            9.29334365942577      -16.49724349234038       18.93891227746488
H            8.77682948949594      -17.32621156168222       19.41411745806263
H           10.23756124268315      -16.28589067527172       19.42894387008727
H            9.46937815326256      -16.71700514714724       17.89129232994311
