78
 energy: -116.058079784619 gnorm: 0.000051899684 xtb: 6.7.1 (edcfbbe)
Fe          23.88632959341810       12.25580844911943       54.33253023376844
N           25.84250484192570       12.37086357558809       54.68691289022630
N           23.52971413917331       12.19891586502893       56.31475257078296
N           21.90203354830184       12.17570783597253       53.98405285899131
N           24.22153558104786       12.39239206820278       52.37441641753658
C           26.83418739941909       12.43549092851233       53.76350280307802
C           28.13145790427863       12.47442045242746       54.40445358551062
C           27.89698292091965       12.43662886907637       55.74242174984542
C           26.45927546379659       12.37124888137957       55.89907963140205
C           24.45694795424826       12.22866045844784       57.31302192653236
C           23.82548206145156       12.13757270205705       58.60252393748399
C           22.47872538951110       12.03554953336019       58.36638090344428
C           22.32081530606041       12.07892051093014       56.92649902247530
C           20.91493527251954       12.01938436605935       54.91114308386962
C           19.62567805103909       11.93669876204006       54.27637109995871
C           19.85095062010928       12.05104202527720       52.92900264537204
C           21.28514373495666       12.18506538353012       52.77381684707368
C           23.29248040316041       12.42570080835739       51.38307005672382
C           23.92857172747150       12.54358719029103       50.08780017574282
C           25.26657846660328       12.56940990874500       50.32315532929459
C           25.42830989857120       12.47517651856928       51.75862923539540
C           26.65402117443874       12.48085348561823       52.39436178387871
H           27.53679448026197       12.54260312785595       51.77655174084745
C           25.82703394729132       12.31116363013430       57.12490886677725
H           26.45039044792061       12.31597221091163       58.00613662763816
C           21.10325605337530       11.97794118119962       56.28159703904336
H           20.22506893776787       11.85736309863389       56.89684099709252
C           21.92444804016953       12.33247649890955       51.55573644565150
H           21.30925760835373       12.36407942352705       50.66953704269296
C           28.86697367963210       12.45927872218641       56.87405344063342
H           29.88897080752220       12.50233494563177       56.50586964963980
H           28.76209491107147       11.56586711897228       57.49055390958199
H           28.69490625138877       13.32926272684761       57.50820096442969
C           29.42803373351758       12.54964229170728       53.67390906646249
H           29.47755245790509       13.46096432690668       53.07781495777666
H           29.53897097143644       11.69914048053290       53.00093147349929
H           30.26487533813310       12.54924272711713       54.36812380087656
C           24.53170757162153       12.21903724655025       59.91101213764961
H           25.35783825523497       12.92659132693242       59.85947281292589
H           24.93718547290421       11.24718458437864       60.19816059447210
H           23.84201259294730       12.54478328752387       60.68712698088320
C           21.38969270000609       11.93809274808592       59.31241811225389
H           20.46214571364189       12.40978983865527       59.00871553672361
C           21.44115372136558       11.32278476731680       60.48952854515376
H           22.31808379513967       10.79682740403517       60.82430916319332
H           20.59143533984249       11.30260848700188       61.15162928823983
C           18.33577000655048       11.70179471511708       54.98182296679952
H           17.93455930022096       12.63388645746197       55.38387516154621
H           18.47088874766848       11.00791820745955       55.81020562610694
H           17.60493861401831       11.28345248974177       54.29270275101456
C           18.90378150747081       12.02006196976443       51.83670588864592
H           19.26544761996841       11.57675649954353       50.91603190472365
C           17.66206873235439       12.49222805689269       51.87814046588712
H           17.26473129921902       12.98563912870268       52.74786058407825
H           17.00491065935838       12.42371753363934       51.02711384810246
C           23.19359366245126       12.61476343717369       48.79319901433384
H           22.50928159487366       13.46331605595885       48.78734883173792
H           22.60921519406722       11.70818749916018       48.63196635517753
H           23.88522546563931       12.72725237825327       47.96197960169381
C           26.39463563569775       12.67878266402103       49.35577522071691
H           26.02534396203329       12.73411829220982       48.33464605351568
H           27.05373791861867       11.81404463254771       49.43618586276790
H           26.98432866864837       13.57332707169001       49.55662884221107
O           23.62567890615925       14.52975377084783       54.48947190304444
H           23.52424862359824       14.62046339095531       55.44318001763425
H           22.75004762870829       14.62852466715173       54.10017544452401
C           23.30280785262343        6.87756173615845       52.99188194625947
H           22.72016149117803        6.24917415497372       53.66533979790238
H           24.18978500533876        6.32138480039741       52.68859939448151
H           22.70623771837883        7.08901098428502       52.11011780873807
N           24.42983602827356        8.19314806424042       54.80022076797673
H           24.78947132487967        7.39476164243578       55.29703959740552
C           23.67987678404406        8.15182244080324       53.65413616311852
C           24.59137600862565        9.49238502710783       55.13774292330184
H           25.13840747989526        9.82677919552289       55.99503155003315
N           23.98999553224542       10.27552668906983       54.27538064020853
C           23.41902361486680        9.45623601739110       53.34631123131461
H           22.86204313143163        9.85708954916504       52.52514385251418
