72
 energy: -105.980105332980 gnorm: 0.000104124812 xtb: 6.7.1 (edcfbbe)
Fe         -23.11025225873666      -21.48863533991502       -9.65790340353297
N          -21.23493763746017      -21.48011324198411      -10.31841663787832
N          -23.38272112213616      -23.31813827482954      -10.46258077068302
N          -25.04476379686307      -21.46110668863761       -9.09801989354065
N          -22.86440181085201      -19.67362978861656       -8.88838148154640
C          -20.31169268764424      -20.50593309071989      -10.12485702230302
C          -19.06801893071351      -20.83938140044426      -10.78604076319411
C          -19.26931081271041      -22.03716897609119      -11.39504626907984
C          -20.62861773234319      -22.42557534703523      -11.08433181989578
C          -22.46997952418549      -24.04585366768239      -11.16632659672630
C          -23.01383899902129      -25.32391193591713      -11.54047521957492
C          -24.29081415742115      -25.36123079469091      -11.04326119575778
C          -24.49787780045346      -24.09349277001103      -10.37500011306847
C          -25.94601930410061      -22.47613592149417       -9.22388255206206
C          -27.22746288657870      -22.08401320609831       -8.70331269027046
C          -27.09376632473680      -20.78863516922197       -8.27920885314628
C          -25.70865043255112      -20.43399607857205       -8.50548731104576
C          -23.79362680135652      -18.92756215538125       -8.23756699829757
C          -23.20727025221319      -17.70113833153079       -7.73887404874332
C          -21.89994498661943      -17.72801494654603       -8.10663496075633
C          -21.70726812358316      -18.96844252278580       -8.82791152299838
C          -20.50989928963424      -19.34552794815094       -9.40200226426841
H          -19.67286488241895      -18.67258902286763       -9.29942608074541
C          -21.19084868182556      -23.62078376485190      -11.48439521396665
H          -20.58247170721894      -24.28093654237093      -12.08259313552041
C          -25.69251983078813      -23.71106043844732       -9.79528044042070
H          -26.50524968910671      -24.42011638827121       -9.81411639800124
C          -25.12294727068742      -19.26005696246430       -8.07019767149168
H          -25.74833082203859      -18.56729142879123       -7.53044571120710
C          -18.33160551440019      -22.84874144979187      -12.22068479121003
H          -17.38022552792935      -22.33659237649472      -12.33970845346574
H          -18.75090933318307      -23.02800391384043      -13.21063797831819
H          -18.14386803928274      -23.81551276395497      -11.75209530600323
C          -17.85116915821761      -19.98054840527755      -10.76678203830895
H          -17.51245273995031      -19.81787368868059       -9.74335412472585
H          -18.06384392465019      -19.00826001115987      -11.21117277850237
H          -17.04183048966740      -20.44352931935918      -11.32580614946512
C          -22.26957092007665      -26.39347007398203      -12.25980841355888
H          -21.23005351110590      -26.42559295480117      -11.93675318601992
H          -22.28244705599705      -26.21903224320976      -13.33691589728456
H          -22.72573167264586      -27.36163698419093      -12.06349673016051
C          -25.27166059178820      -26.42185581392398      -11.11490039425440
H          -25.92663581386251      -26.51211081218288      -10.25588185108807
C          -25.42472129238112      -27.26101115400258      -12.13368319051343
H          -24.83519742571507      -27.18729330758461      -13.03081292848703
H          -26.16918390122779      -28.03936643916968      -12.11451074872459
C          -28.44747108345290      -22.93775873211026       -8.70457416311262
H          -28.26332032929799      -23.87125207804037       -8.17206760938475
H          -28.74381217143686      -23.18502159863274       -9.72466392795235
H          -29.27520278414536      -22.42123248972274       -8.22570284297437
C          -28.13018272694293      -19.94379723684940       -7.72199848499516
H          -28.83913810665715      -20.44732466451751       -7.07402683362033
C          -28.29174112559726      -18.65029111690813       -7.97501508941618
H          -27.64812741724296      -18.11432172936474       -8.65206526541978
H          -29.09269212628464      -18.08489157043477       -7.52870720872432
C          -23.95743370511359      -16.66187298734615       -6.98021811586775
H          -24.38676126583863      -17.08701805617915       -6.07307728183561
H          -24.77210084511108      -16.26005404910131       -7.58303125944363
H          -23.30284382299664      -15.84087330376296       -6.69888697892058
C          -20.82680896043515      -16.72431811400017       -7.86227560778845
H          -19.99963484096593      -17.17466465161482       -7.31356650561437
H          -21.20637890311533      -15.88610431753643       -7.28347083025880
H          -20.43879863799162      -16.34188103938947       -8.80657544196378
O          -23.83723705659655      -20.62650937480157      -11.59569701443443
H          -24.65503549893965      -20.19995098681744      -11.31494479292129
H          -24.08361147510138      -21.42847099373817      -12.07083373084911
C          -21.12685346666740      -23.55912678230901       -7.83972295521885
H          -21.04129986357674      -24.23452270651670       -6.99401331440506
H          -20.25616523965557      -22.91408407379241       -7.89445777352001
H          -21.23930927185296      -24.10370081784627       -8.77086948066353
S          -22.56972515792771      -22.46605697689620       -7.59025912068449
H          -23.47383864898145      -23.45099569574809       -7.62929637020136
