72
 energy: -105.869247599022 gnorm: 0.300230043514 xtb: 6.7.1 (edcfbbe)
Fe         -23.13000000000000      -21.49400000000000       -9.66700000000000
N          -21.29000000000000      -21.39099999999999      -10.31800000000000
N          -23.44700000000000      -23.30800000000000      -10.64100000000000
N          -25.13200000000000      -21.57900000000000       -9.08000000000000
N          -22.84800000000000      -19.61800000000000       -8.82100000000000
C          -20.28100000000000      -20.51700000000000      -10.02600000000000
C          -19.06500000000000      -21.01000000000000      -10.61300000000000
C          -19.29600000000000      -22.14500000000000      -11.22500000000000
C          -20.66200000000000      -22.46300000000000      -11.01500000000000
C          -22.52000000000000      -24.04000000000000      -11.33400000000000
C          -23.14700000000000      -25.26800000000000      -11.75500000000000
C          -24.38300000000000      -25.23900000000000      -11.29000000000000
C          -24.59600000000000      -24.04500000000000      -10.57100000000000
C          -26.05800000000000      -22.59500000000000       -9.25500000000000
C          -27.29600000000000      -22.26400000000000       -8.62000000000000
C          -27.11300000000000      -21.03200000000000       -8.14900000000000
C          -25.78400000000000      -20.53800000000000       -8.45300000000000
C          -23.89300000000000      -18.90100000000000       -8.22700000000000
C          -23.34500000000000      -17.62000000000000       -7.80900000000000
C          -21.89500000000000      -17.62000000000000       -8.20100000000000
C          -21.66600000000000      -18.88700000000000       -8.85300000000000
C          -20.44300000000000      -19.32400000000000       -9.31500000000000
H          -19.56300000000000      -18.71200000000000       -9.11700000000000
C          -21.23400000000000      -23.60600000000000      -11.53800000000000
H          -20.60200000000000      -24.22400000000000      -12.17500000000000
C          -25.78200000000000      -23.73300000000000       -9.95200000000000
H          -26.58200000000000      -24.46900000000000      -10.02600000000000
C          -25.21300000000000      -19.33400000000000       -8.07000000000000
H          -25.88400000000000      -18.63000000000000       -7.58000000000000
C          -18.21300000000000      -22.98200000000000      -11.97700000000000
H          -17.22300000000000      -22.82100000000000      -11.50000000000000
H          -18.15800000000000      -22.65800000000000      -13.03800000000000
H          -18.46800000000000      -24.06200000000000      -11.92200000000000
C          -17.65500000000000      -20.31800000000000      -10.61200000000000
H          -16.96400000000000      -20.88500000000000       -9.95300000000000
H          -17.74700000000000      -19.27900000000000      -10.22900000000000
H          -17.24100000000000      -20.30700000000000      -11.64300000000000
C          -22.51200000000000      -26.42800000000000      -12.55600000000000
H          -21.41400000000000      -26.27300000000000      -12.62500000000000
H          -22.93800000000000      -26.45300000000000      -13.58200000000000
H          -22.70800000000000      -27.39200000000000      -12.04000000000000
C          -25.53900000000000      -26.22800000000000      -11.42600000000000
H          -26.38400000000000      -26.20300000000000      -10.72300000000000
C          -25.54300000000000      -27.12400000000000      -12.38400000000000
H          -24.71300000000000      -27.17600000000000      -13.10400000000000
H          -26.37700000000000      -27.83500000000000      -12.48000000000000
C          -28.56100000000000      -23.17900000000000       -8.47200000000000
H          -28.49100000000000      -23.75900000000000       -7.52700000000000
H          -28.61400000000000      -23.88700000000000       -9.32600000000000
H          -29.47700000000000      -22.55099999999999       -8.44200000000000
C          -28.17400000000000      -20.26500000000000       -7.36700000000000
H          -28.83200000000000      -20.74500000000000       -6.63000000000000
C          -28.27100000000000      -18.97400000000000       -7.61800000000000
H          -27.61000000000000      -18.49800000000000       -8.35700000000000
H          -29.01400000000000      -18.35700000000000       -7.09100000000000
C          -24.04200000000000      -16.45500000000000       -7.07400000000000
H          -24.71800000000000      -16.86200000000000       -6.29200000000000
H          -24.64200000000000      -15.86100000000000       -7.79600000000000
H          -23.28000000000000      -15.80700000000000       -6.59000000000000
C          -20.84400000000000      -16.54800000000000       -7.94700000000000
H          -20.22100000000000      -16.83900000000000       -7.07400000000000
H          -21.34100000000000      -15.57900000000000       -7.72800000000000
H          -20.18900000000000      -16.44600000000000       -8.83900000000000
O          -23.69400000000000      -20.57100000000000      -11.79700000000000
H          -24.13200000000000      -21.27100000000000      -12.28000000000000
H          -23.53500000000000      -19.74800000000000      -12.09300000000000
C          -20.97100000000000      -22.99500000000000       -7.46900000000000
H          -20.82700000000000      -24.01400000000000       -7.05100000000000
H          -20.57300000000000      -22.26300000000000       -6.73400000000000
H          -20.38300000000000      -22.92300000000000       -8.40800000000000
S          -22.69100000000000      -22.66600000000000       -7.79400000000000
H          -22.83900000000000      -23.66400000000000       -8.65300000000000
72
 energy: -105.934292335774 gnorm: 0.125614045122 xtb: 6.7.1 (edcfbbe)
Fe         -23.14688546001850      -21.46934248364578       -9.71293644056080
N          -21.26951057467569      -21.42812087972089      -10.30298117034650
N          -23.45035637475183      -23.30779068245924      -10.62692308013868
N          -25.13473714365760      -21.55979753776640       -9.09920550433189
N          -22.86119683404043      -19.62845280598729       -8.84517817235744
C          -20.28153570145543      -20.52013124121419      -10.02891474025846
C          -19.03719313661486      -20.98148889861428      -10.60926838723024
C          -19.27496752079825      -22.15315667519029      -11.22965815045368
C          -20.66274828715123      -22.45726421682281      -11.03314290709721
C          -22.53719985153743      -24.04145778033404      -11.33519468489889
C          -23.14311946463743      -25.28355493539895      -11.76620373083524
C          -24.41229415388451      -25.26402245590138      -11.29022821805855
C          -24.59721930164341      -24.04405730875909      -10.57319704140014
C          -26.04586667273262      -22.58089920568886       -9.24366996095956
C          -27.29627213867290      -22.26190864991549       -8.60519064101493
C          -27.12348364674273      -21.00992589390614       -8.11736031318173
C          -25.77187444088678      -20.54634976731121       -8.43194553578152
C          -23.86120288163803      -18.89849278169826       -8.23968252995519
C          -23.30747811833694      -17.62623270708747       -7.80957780443034
C          -21.93722492336156      -17.61821079767457       -8.18838688521694
C          -21.69803581529841      -18.89451847620799       -8.82556170292159
C          -20.46844890679536      -19.33360217659538       -9.31596651584227
H          -19.59188712191219      -18.71806912430980       -9.12836385998644
C          -21.24283441772568      -23.60407549170771      -11.54436459752919
H          -20.60613033198766      -24.22724886695313      -12.16266064799645
C          -25.78154426214240      -23.72682733604374       -9.94568256806949
H          -26.58059977816770      -24.45315103717602      -10.01946926174798
C          -25.18502941148555      -19.33613816932384       -8.06553357553578
H          -25.84654167012899      -18.63540864813761       -7.56710355714747
C          -18.22903134451925      -22.97880187949021      -11.96673929403631
H          -17.24747933258065      -22.82388060039216      -11.50586475209262
H          -18.16630853487574      -22.66574704756353      -13.01615139823664
H          -18.46586001658773      -24.04621844874547      -11.92477345920476
C          -17.66986800959149      -20.30990878680064      -10.60206957164036
H          -16.98092633472779      -20.87242932092570       -9.95980943471236
H          -17.74278603323036      -19.28540026469828      -10.23319631365545
H          -17.25777057370766      -20.30265270330556      -11.61817969413033
C          -22.50011227264677      -26.40996681166082      -12.54841535100932
H          -21.41840110318755      -26.27230472345014      -12.62256649981217
H          -22.91413040645435      -26.44673702566635      -13.56401401504515
H          -22.70198845937276      -27.36712164599271      -12.05019524837290
C          -25.51968085522145      -26.24004706629503      -11.42918970677566
H          -26.35106528974898      -26.19704458714041      -10.72835055837634
C          -25.54574103812144      -27.14152745278660      -12.39339941974803
H          -24.74551865773216      -27.19732442978071      -13.11440261346829
H          -26.37103478464030      -27.83686170938771      -12.48896627885679
C          -28.53101410446225      -23.15954790360855       -8.47654969756518
H          -28.48115220403862      -23.74198170056985       -7.54679465749462
H          -28.60566373008117      -23.86458150647003       -9.31221110476334
H          -29.44661517795116      -22.55696461597796       -8.44669241690269
C          -28.15575620194494      -20.24861428757048       -7.37333692957885
H          -28.80422180890882      -20.75114553396406       -6.65665273549582
C          -28.28356955807895      -18.95533294242924       -7.61695949698113
H          -27.65478570167049      -18.48019867462627       -8.35894347859179
H          -29.01418907290046      -18.34857090367717       -7.09634044907791
C          -24.02337616047958      -16.48772981304956       -7.09169005255432
H          -24.70084529142076      -16.86485143957871       -6.31395698105495
H          -24.62320050530116      -15.88232686071878       -7.78725798744105
H          -23.29526470689294      -15.82652774892894       -6.60660365260136
C          -20.87767692325569      -16.56518496575655       -7.94920255792406
H          -20.24190612475245      -16.83729089682303       -7.09257556950346
H          -21.33450112608395      -15.59352996135142       -7.73443811416578
H          -20.21738180170595      -16.45212008343560       -8.82096171266190
O          -23.70135450203819      -20.59181156233945      -11.76708298077976
H          -24.13153808903446      -21.26875431919480      -12.28486884838946
H          -23.53324229713365      -19.73085978448150      -12.10358844211558
C          -20.95293647046512      -22.99851990540243       -7.46882508031559
H          -20.82937225414549      -24.00378889637424       -7.05004355739468
H          -20.57895732475018      -22.26707507584125       -6.74547552297747
H          -20.37948260166131      -22.91986848479424       -8.39747350004435
S          -22.69303905182124      -22.66693948079044       -7.78578292363457
H          -22.84083581919246      -23.68921111661156       -8.62485575553212
72
 energy: -105.956434936739 gnorm: 0.040481613659 xtb: 6.7.1 (edcfbbe)
Fe         -23.15415314545880      -21.47066490497178       -9.72637070637000
N          -21.26045664157989      -21.45725481830659      -10.31427163260766
N          -23.46108091175597      -23.30189558865889      -10.62755810645078
N          -25.13229510622732      -21.53440860948727       -9.11293655027919
N          -22.87966474535450      -19.64072888028565       -8.87509887551786
C          -20.29046956513820      -20.53281330873259      -10.03646494421712
C          -19.02563616044016      -20.96386050034594      -10.60985373062093
C          -19.26357399752618      -22.15533264640636      -11.23224219988774
C          -20.66431033935683      -22.45374741305891      -11.04308738988839
C          -22.55377810409843      -24.03765305673350      -11.33650211905928
C          -23.14190700160936      -25.28546929138836      -11.77466537718083
C          -24.43293859002978      -25.28107502535462      -11.29494582966935
C          -24.59949093393071      -24.04206212563797      -10.57833194249774
C          -26.02875833813154      -22.55608380105889       -9.24030900447678
C          -27.28080589924239      -22.24875217609481       -8.58880975062488
C          -27.11967594207886      -20.98391654382361       -8.08928732417031
C          -25.75810428940309      -20.54273896529271       -8.42466661118386
C          -23.84189790478083      -18.89896302133872       -8.25922948488259
C          -23.27936861393781      -17.62440373699442       -7.82391925634038
C          -21.96918491890661      -17.64581859307255       -8.16659707180960
C          -21.72787509022253      -18.91611827198143       -8.82166459679994
C          -20.49882722833880      -19.35481790539368       -9.32417146421114
H          -19.63054283115392      -18.72926598799229       -9.14728202905937
C          -21.24992944677651      -23.60641341152023      -11.54241057903865
H          -20.61178380136648      -24.23449892647974      -12.14783449765467
C          -25.78068584357818      -23.71540926870080       -9.94087470024264
H          -26.58228802071697      -24.43270669693800      -10.00522349228617
C          -25.16276042247929      -19.33259392335482       -8.06344932467031
H          -25.80939164857736      -18.63983685187065       -7.54141401692679
C          -18.24550912826886      -22.97111024502924      -11.95575136242235
H          -17.26537609898492      -22.82411284285207      -11.50742993488691
H          -18.17941480830710      -22.66908999225093      -13.00150406554129
H          -18.47445222183746      -24.03191416526305      -11.92280813396436
C          -17.69300851056179      -20.29997079038256      -10.59026148437095
H          -16.99971679231683      -20.85698878798009       -9.95827180309733
H          -17.74733487787462      -19.28163274846986      -10.22810036333713
H          -17.27452315900408      -20.29004706272164      -11.59629409923495
C          -22.48807727271969      -26.38507546315951      -12.53981454809761
H          -21.41423034818085      -26.25674330880644      -12.60960700174699
H          -22.88606395830165      -26.43224500091937      -13.55409761334892
H          -22.69468098741634      -27.34184315640846      -12.05757973386401
C          -25.49319135489726      -26.24924388601130      -11.44140934583495
H          -26.30889982765961      -26.19695432715661      -10.73267223858311
C          -25.54682430176288      -27.16137957741021      -12.40585736431832
H          -24.77454296698033      -27.22771523302562      -13.14096823240570
H          -26.36996231829386      -27.84550476785227      -12.49137119812945
C          -28.48991631198030      -23.13161016491499       -8.47829298901208
H          -28.45485892761650      -23.72147405863375       -7.55948129711155
H          -28.57454445399507      -23.83162958713338       -9.30750440489233
H          -29.40635135425794      -22.54371082516430       -8.45063986371152
C          -28.12729555953619      -20.22540587919065       -7.38059136868415
H          -28.76578471502788      -20.75491355123316       -6.68160360928526
C          -28.29884945548777      -18.93006963957578       -7.61556837321432
H          -27.69636369057882      -18.44328169915099       -8.35906862110672
H          -29.02997494521426      -18.33871062979659       -7.09878368336846
C          -24.00725601057219      -16.51817852145147       -7.10974436056553
H          -24.68220097891021      -16.89460796920035       -6.34124202531811
H          -24.60510469690939      -15.91547266997055       -7.79789868371175
H          -23.29698947707680      -15.85124271939654       -6.62373287909165
C          -20.91403666656304      -16.59492092040355       -7.94818990856453
H          -20.27061467972338      -16.85438365980122       -7.10254476268074
H          -21.35092029697781      -15.62082489800652       -7.73973018990535
H          -20.26237555434147      -16.47971365374261       -8.81624566960833
O          -23.72311935027946      -20.59945541057165      -11.71584844609680
H          -24.12174099389551      -21.25435670312584      -12.29344330873548
H          -23.52802684811829      -19.74287781547262      -12.10375173049663
C          -20.93060158374872      -23.00080170850592       -7.46435379365164
H          -20.82531501227717      -23.99704242638131       -7.04663373663066
H          -20.57728297361135      -22.26468846360569       -6.75170619616171
H          -20.37706789676973      -22.91515201371560       -8.39217128332487
S          -22.69628937651976      -22.67610028439676       -7.75646059286499
H          -22.85267377444555      -23.71549852048319       -8.58049709039553
72
 energy: -105.964691503471 gnorm: 0.029601569876 xtb: 6.7.1 (edcfbbe)
Fe         -23.16492635515958      -21.47328606487393       -9.73603478221024
N          -21.26342373359313      -21.47615873667886      -10.31828775238114
N          -23.46791895347160      -23.30052049747755      -10.62580623841860
N          -25.12375028297032      -21.51207834756465       -9.12203674152187
N          -22.89049609024569      -19.65343685573810       -8.89441228921343
C          -20.30141683047352      -20.54684824860029      -10.04200593754478
C          -19.03368948129651      -20.96381213894019      -10.61118635803151
C          -19.26562050230759      -22.15671139398671      -11.23402714844255
C          -20.66662195475219      -22.45900958633815      -11.04858228541899
C          -22.56066797901650      -24.03158078588145      -11.33761127237253
C          -23.14177407636064      -25.27470203466596      -11.78065815093712
C          -24.43724173723679      -25.28152854159729      -11.30548818871518
C          -24.60399679712827      -24.04117681074342      -10.58120825936773
C          -26.01259910187258      -22.53525005086551       -9.24030042827772
C          -27.25670094306793      -22.22521720477122       -8.57936953497186
C          -27.10312073505517      -20.95761398581953       -8.08263399614522
C          -25.74550777287341      -20.52949077915531       -8.42580938986964
C          -23.84292002127843      -18.91334734583145       -8.27033652775346
C          -23.27922436865810      -17.64621193143153       -7.82225444063922
C          -21.96804927900002      -17.66696115329410       -8.17526499224959
C          -21.73676399037002      -18.93838597874983       -8.83393444952189
C          -20.51463407330407      -19.37222014212113       -9.33591299375126
H          -19.65518766743748      -18.73575262940390       -9.17037401711952
C          -21.25426171332768      -23.61144681536682      -11.54392841765901
H          -20.61665880009468      -24.25052292971112      -12.13717115661112
C          -25.77930425539077      -23.70314253799551       -9.93663538345383
H          -26.58827343415304      -24.41237474023816       -9.98733570000879
C          -25.15368263784146      -19.32877034876574       -8.05469053448475
H          -25.77872676086516      -18.64391594348066       -7.49715397280690
C          -18.25239175184881      -22.97290809035539      -11.95503401595527
H          -17.27125415505883      -22.82702515429093      -11.50811244588376
H          -18.19008101919807      -22.67279589595414      -13.00197429386220
H          -18.48633933120215      -24.03308850794167      -11.92076889347915
C          -17.70973274910974      -20.28395317846574      -10.57772062920890
H          -17.01496648035798      -20.83845458363574       -9.94402133060535
H          -17.76783422005782      -19.26559926149477      -10.21176331042989
H          -17.28488347372077      -20.26579969863511      -11.58155476774305
C          -22.46813009471966      -26.36366113697035      -12.53812689088410
H          -21.39244832981440      -26.23042385582903      -12.58490382018257
H          -22.84381965445941      -26.40828391579546      -13.56148300001285
H          -22.68245046071052      -27.32334592108918      -12.06498560422297
C          -25.47866963887419      -26.26532681457451      -11.45584821403261
H          -26.28137370543725      -26.21716949205652      -10.73245638922143
C          -25.55024389880315      -27.18581633413878      -12.41500380809794
H          -24.80367900543510      -27.25857755840400      -13.18074226582801
H          -26.37812575729978      -27.86738671861004      -12.48243932529953
C          -28.45755250650274      -23.10553936736566       -8.47638039013967
H          -28.42111637832877      -23.70074787223331       -7.56121392809549
H          -28.53323004641239      -23.79681102148357       -9.31312733433094
H          -29.37114051780477      -22.51446053201253       -8.45037786900767
C          -28.10932363140649      -20.19336967072676       -7.38370057730521
H          -28.73484280968588      -20.74172694019092       -6.68798160229553
C          -28.31875846407167      -18.89962420337483       -7.61303732286010
H          -27.75193407216691      -18.39065939334877       -8.37444436517881
H          -29.06618223749741      -18.32877371134412       -7.09415782009245
C          -24.00746299342324      -16.54646323003049       -7.11987862737567
H          -24.67872579964980      -16.93507015609565       -6.35743283905886
H          -24.60136944987091      -15.95504233135076       -7.81859287072552
H          -23.29950348536988      -15.87645262232304       -6.63602083286027
C          -20.92509354245748      -16.61652515540465       -7.95394774948255
H          -20.28596203488026      -16.87949663681783       -7.10896663851155
H          -21.37530574189802      -15.64942410112726       -7.74528693744132
H          -20.28805076335017      -16.50517499742117       -8.82997145383908
O          -23.78415517193485      -20.58492115715763      -11.66978217997521
H          -24.09688918821893      -21.24610007136111      -12.30996510317607
H          -23.51000251296188      -19.76042318342559      -12.10302044737800
C          -20.91663897367693      -22.99866543830638       -7.45836213214255
H          -20.80955341895339      -23.99045001903990       -7.03300155890598
H          -20.56851339382328      -22.25133410952094       -6.75523656697555
H          -20.37336324457355      -22.91421097662722       -8.39183797649955
S          -22.69415096540435      -22.68420181111073       -7.73953859610666
H          -22.87059460096601      -23.77024061246966       -8.50634593539060
72
 energy: -105.969437644186 gnorm: 0.025863413239 xtb: 6.7.1 (edcfbbe)
Fe         -23.17522717581725      -21.48692971563725       -9.73083363172047
N          -21.27333627254195      -21.49082732786136      -10.32998015749070
N          -23.47571818888290      -23.29605793340211      -10.62754071738754
N          -25.10760489613691      -21.49298221352890       -9.12469903623212
N          -22.90358806508269      -19.67457013255454       -8.90966204005780
C          -20.31613452160471      -20.55977725198242      -10.05432001126970
C          -19.04696852666165      -20.96665243414119      -10.61550793827952
C          -19.26866857354032      -22.15867518748814      -11.23800903180265
C          -20.66758503393860      -22.46770195432650      -11.05624845426749
C          -22.56576879148405      -24.02292216336043      -11.33926458947492
C          -23.14186309385553      -25.26009580340213      -11.78890273685639
C          -24.43759567681722      -25.27731363620556      -11.32053217114700
C          -24.60944045106632      -24.03973541760603      -10.58704011575911
C          -25.99336449380745      -22.51558740191028       -9.24165431422836
C          -27.23062559168734      -22.19787332289538       -8.57634680055343
C          -27.08419419445772      -20.92893414035071       -8.08671443834937
C          -25.73285512500253      -20.51431985143883       -8.43094582354930
C          -23.84774057363846      -18.93191807196620       -8.27833079721091
C          -23.28095461075123      -17.67463937921287       -7.82594554690029
C          -21.96712954806994      -17.69474509574393       -8.18726397924204
C          -21.74855072973630      -18.96349582633227       -8.85254052465192
C          -20.53195565079296      -19.38660899997370       -9.35488557704630
H          -19.68090375599936      -18.74059007860131       -9.19646503857851
C          -21.25639928883413      -23.61970148350551      -11.54614878370447
H          -20.62293144996370      -24.27109567692478      -12.12925794658187
C          -25.77622887021111      -23.69150130028617       -9.93340252109228
H          -26.59231242731830      -24.39488721306981       -9.96820522752402
C          -25.15194086355754      -19.32258394809010       -8.04256681759997
H          -25.76637727879642      -18.64159702633019       -7.47192095459159
C          -18.25630251529350      -22.97857337813965      -11.95873890129216
H          -17.27402648109638      -22.83259221213191      -11.51311608181822
H          -18.19839351450393      -22.68192761186289      -13.00774679138518
H          -18.49645431122436      -24.03838813080866      -11.91878349799735
C          -17.73009059137005      -20.26664884883297      -10.56267850025850
H          -17.03571407245698      -20.81459547507773       -9.92163281089833
H          -17.81034976366474      -19.25084463727134      -10.18853155357645
H          -17.29436839712785      -20.23257742412546      -11.56253233898546
C          -22.44844163768889      -26.34152871201601      -12.54075149906249
H          -21.37005600625937      -26.19996729375411      -12.55260133869693
H          -22.79482826564939      -26.37789678902851      -13.57591539443769
H          -22.67059183943877      -27.30604838397952      -12.08094002561906
C          -25.46700353003875      -26.27643110495301      -11.47385261109570
H          -26.25531449878017      -26.23997739861477      -10.73123624108005
C          -25.55318533973626      -27.19997391487402      -12.42888595547774
H          -24.82690693968171      -27.28715202548891      -13.21765928742194
H          -26.37523709743677      -27.89568119162602      -12.46251839248028
C          -28.42927197054552      -23.07705640953420       -8.47587779343046
H          -28.38733196320501      -23.67801384725690       -7.56469716551033
H          -28.49688248571545      -23.75870812442891       -9.32132041538167
H          -29.33986889581714      -22.48200478990977       -8.44662355116745
C          -28.09523587771594      -20.15749609028725       -7.39500757997415
H          -28.69964440125363      -20.71464582506507       -6.68771570742325
C          -28.33765314519283      -18.86971776232719       -7.61976786117397
H          -27.77005782413596      -18.32652243297929       -8.35618769927230
H          -29.09911841359662      -18.32145767095507       -7.09088319001509
C          -24.01191220196214      -16.58014060926894       -7.12968670973066
H          -24.68145938310388      -16.97692934668028       -6.37059017477330
H          -24.60630269380426      -16.00058945798334       -7.83752615452448
H          -23.30977464459659      -15.90373561898157       -6.64592011320918
C          -20.93308397066559      -16.64457199477379       -7.96352952342871
H          -20.29372494421645      -16.90717731753955       -7.11983446399290
H          -21.39722126781438      -15.68418108136542       -7.75154640365888
H          -20.30527609887469      -16.52997492772830       -8.84436599157872
O          -23.82681985722360      -20.57526693537387      -11.63368577063894
H          -24.08295906491528      -21.23199434666327      -12.30017112834650
H          -23.49459493648652      -19.78670370487367      -12.10135774354832
C          -20.90358804456685      -22.99555612339025       -7.44967329060262
H          -20.78330377677907      -23.98143330356173       -7.01417689078417
H          -20.55586776038725      -22.23436766364095       -6.75985534946245
H          -20.37440270385649      -22.91444712679307       -8.39273329872566
S          -22.69332973104114      -22.69608818424072       -7.70760944407876
H          -22.89308542102536      -23.82309478368332       -8.41539964083355
72
 energy: -105.970277004614 gnorm: 0.028733791596 xtb: 6.7.1 (edcfbbe)
Fe         -23.18409051054881      -21.49447282738749       -9.72915447972401
N          -21.28008228411727      -21.50159170486352      -10.33869751211615
N          -23.47909270424309      -23.29442265914565      -10.62367750744595
N          -25.09282063740798      -21.48473876670270       -9.12320823181426
N          -22.90866195937873      -19.69490857685663       -8.91090795640846
C          -20.32456260210078      -20.56993093555846      -10.06511797055420
C          -19.05550230038386      -20.97202293941913      -10.62115081607207
C          -19.26858765288906      -22.16368480230537      -11.24202016410830
C          -20.66505399845421      -22.47825540738092      -11.06081933707192
C          -22.56773068636982      -24.01750081327456      -11.33746680304445
C          -23.14269926583443      -25.25039882513570      -11.79472167973959
C          -24.43671788437256      -25.27305151206296      -11.33178452278732
C          -24.61341328615089      -24.03977340482199      -10.59031466084151
C          -25.98157482438910      -22.50496198456790       -9.24241490805612
C          -27.21806422213040      -22.17668831062691       -8.58178164940130
C          -27.07254949761298      -20.90787860498297       -8.09686642100647
C          -25.72343472747468      -20.50426236743770       -8.43573630228872
C          -23.84589289048623      -18.94533330545498       -8.27700884702041
C          -23.27706447144703      -17.69380743687693       -7.82796289977601