78
 energy: -116.006062792238 gnorm: 0.208877301887 xtb: 6.7.1 (edcfbbe)
Fe           0.61500000000000       13.57600000000000      -15.28500000000000
N            1.99200000000000       14.87200000000000      -16.01200000000000
N            2.11300000000000       12.21700000000000      -14.88000000000000
N           -0.76200000000000       12.20100000000000      -14.65700000000000
N           -0.86000000000000       14.86600000000000      -15.80100000000000
C            1.76000000000000       16.14300000000000      -16.47400000000000
C            3.04800000000000       16.76700000000000      -16.78100000000000
C            4.00500000000000       15.88100000000000      -16.50700000000000
C            3.36300000000000       14.69000000000000      -16.01400000000000
C            3.46400000000000       12.42000000000000      -15.04300000000000
C            4.19500000000000       11.27200000000000      -14.56500000000000
C            3.26700000000000       10.38800000000000      -14.13900000000000
C            1.96200000000000       10.99000000000000      -14.32100000000000
C           -0.51100000000000       10.92600000000000      -14.23600000000000
C           -1.76800000000000       10.22200000000000      -14.11700000000000
C           -2.76200000000000       11.07300000000000      -14.49900000000000
C           -2.12200000000000       12.32700000000000      -14.81800000000000
C           -2.21300000000000       14.62800000000000      -15.68900000000000
C           -2.97000000000000       15.75100000000000      -16.19800000000000
C           -1.99300000000000       16.69600000000000      -16.66300000000000
C           -0.70600000000000       16.10700000000000      -16.38000000000000
C            0.50500000000000       16.70700000000000      -16.65700000000000
H            0.47300000000000       17.72000000000000      -17.05800000000000
C            4.02100000000000       13.55300000000000      -15.58300000000000
H            5.10600000000000       13.55600000000000      -15.68300000000000
C            0.75200000000000       10.39700000000000      -14.01900000000000
H            0.79400000000000        9.40900000000000      -13.56200000000000
C           -2.77300000000000       13.48300000000000      -15.23300000000000
H           -3.86200000000000       13.46500000000000      -15.18600000000000
C            5.51100000000000       16.03700000000000      -16.63900000000000
H            5.74700000000000       17.05400000000000      -17.02000000000000
H            5.90500000000000       15.28400000000000      -17.35400000000000
H            5.99100000000000       15.90500000000000      -15.64600000000000
C            3.21300000000000       18.19900000000000      -17.25700000000000
H            2.39500000000000       18.82500000000000      -16.84000000000000
H            3.16400000000000       18.23400000000000      -18.36600000000000
H            4.18800000000000       18.60100000000000      -16.90700000000000
C            5.69800000000000       11.14200000000000      -14.54200000000000
H            6.15500000000000       12.14600000000000      -14.41400000000000
H            6.05200000000000       10.70500000000000      -15.50000000000000
H            6.00600000000000       10.49500000000000      -13.69300000000000
C            3.46200000000000        9.01700000000000      -13.58500000000000
H            2.78800000000000        8.66100000000000      -12.79300000000000
C            4.42300000000000        8.17100000000000      -13.99500000000000
H            5.12900000000000        8.46800000000000      -14.78400000000000
H            4.51500000000000        7.17100000000000      -13.54600000000000
C           -1.88700000000000        8.77600000000000      -13.70000000000000
H           -1.04900000000000        8.51700000000000      -13.01800000000000
H           -1.83800000000000        8.12200000000000      -14.59600000000000
H           -2.84800000000000        8.61700000000000      -13.16600000000000
C           -4.22000000000000       10.86200000000000      -14.64000000000000
H           -4.80200000000000       11.70400000000000      -15.03900000000000
C           -4.92800000000000        9.79900000000000      -14.35300000000000
H           -4.44400000000000        8.89900000000000      -13.94700000000000
H           -6.01600000000000        9.79300000000000      -14.51400000000000
C           -4.45800000000000       15.87700000000000      -16.28000000000000
H           -4.90700000000000       15.61900000000000      -15.29700000000000
H           -4.85200000000000       15.18000000000000      -17.05000000000000
H           -4.73300000000000       16.92200000000000      -16.53800000000000
C           -2.28900000000000       17.98000000000000      -17.39000000000000
H           -2.41600000000000       18.80200000000000      -16.65400000000000
H           -3.22700000000000       17.87200000000000      -17.97500000000000
H           -1.44500000000000       18.23000000000000      -18.06800000000000
O            0.34600000000000       12.71100000000000      -17.19100000000000
H           -0.18500000000000       11.92700000000000      -17.05200000000000
H            0.65700000000000       13.00500000000000      -17.97100000000000
C           -0.14000000000000       15.08400000000000       -9.82000000000000
H           -0.72100000000000       16.02600000000000       -9.72200000000000
H            0.71600000000000       15.11300000000000       -9.11200000000000
H           -0.80200000000000       14.22500000000000       -9.58000000000000
N            1.20100000000000       15.87400000000000      -11.80200000000000
H            1.57700000000000       16.67200000000000      -11.33100000000000
C            0.37100000000000       14.95400000000000      -11.23000000000000
C            1.42100000000000       15.53500000000000      -13.07000000000000
H            2.06800000000000       16.09500000000000      -13.74500000000000
N            0.75000000000000       14.44800000000000      -13.36200000000000
C            0.07900000000000       14.06500000000000      -12.21200000000000
H           -0.55000000000000       13.18400000000000      -12.20500000000000
78
 energy: -116.036228293616 gnorm: 0.070729637357 xtb: 6.7.1 (edcfbbe)
Fe           0.62106127533859       13.58382297800181      -15.26865845916083
N            1.99343166414434       14.87371285737559      -16.00144671954669
N            2.10795627030186       12.22606981554674      -14.86751537890134
N           -0.76356989648488       12.20391435716399      -14.68731731860007
N           -0.85161733393155       14.86818299382120      -15.79789687715047
C            1.76333617243206       16.13554138782699      -16.47273783163487
C            3.03551466414047       16.77985378979707      -16.77485821856056
C            4.00706994359849       15.87957481896644      -16.50313453462257
C            3.35243685341690       14.68960007674099      -16.01260846252215
C            3.45090819018200       12.41941315775454      -15.03635593171668
C            4.18776603693391       11.26733567499648      -14.56713818200001
C            3.25791262319089       10.37173360393462      -14.12894068213625
C            1.95677177143637       10.99566957143651      -14.31290576768962
C           -0.52060648269432       10.93498248129860      -14.24493311320334
C           -1.76883493423364       10.21845509620821      -14.11222090811311
C           -2.76958052034269       11.07658205911297      -14.49260345698870
C           -2.11788265071615       12.32836142603141      -14.82001769392446
C           -2.19642063907294       14.64372147661887      -15.68930114997089
C           -2.94342518723631       15.76555162038709      -16.20783110884183
C           -2.00123992177581       16.67551419794456      -16.66126420472872
C           -0.70855695429992       16.09813164358478      -16.37544002030525
C            0.50932882395651       16.70082945183345      -16.65428059147815
H            0.47672864709642       17.70667010952434      -17.05926480979651
C            4.01597113881812       13.55489824767455      -15.58298857460984
H            5.09647952821098       13.56176073396669      -15.68067654781122
C            0.74308544226189       10.40182465836030      -14.01548159005056
H            0.78596217323415        9.41009166074322      -13.57925068277737
C           -2.77116277987916       13.48394759603944      -15.22534368491871
H           -3.85495909119565       13.46189505772054      -15.19548813298180
C            5.49642892416607       16.03658908885669      -16.63834903742439
H            5.74482724077627       17.03311935833493      -17.01468409552723
H            5.89907585571028       15.29676855267376      -17.33728377075496
H            5.98502265068066       15.90191513822893      -15.66746453803540
C            3.20159135210569       18.19316873545787      -17.25413432721427
H            2.40628730185241       18.82547278256420      -16.85071598771269
H            3.16310226451097       18.23957292271064      -18.34777115794289
H            4.16341885320803       18.59617048847012      -16.92213772665337
C            5.68170808308834       11.14608531963201      -14.54387343356315
H            6.14876467055311       12.12769130214356      -14.41594253876800
H            6.05011828163115       10.71459731393575      -15.48161543782725
H            5.99716815019140       10.50236182265134      -13.71656652355859
C            3.46738501704810        9.02453430867979      -13.58682595999576
H            2.78393587381913        8.68365478765771      -12.81162298611480
C            4.42074787202970        8.18591520714203      -13.98895726175629
H            5.11360933163708        8.45522835853136      -14.77539180166366
H            4.51568510756349        7.19569922189293      -13.55772989391951
C           -1.87403816078220        8.78384139344101      -13.69491036863580
H           -1.05093207108651        8.51275437230748      -13.02927336073157
H           -1.84203166825782        8.12761058162667      -14.57258809312847
H           -2.80718240318282        8.60806010447337      -13.15749285899112
C           -4.20951960565506       10.87181618252698      -14.63319641736127
H           -4.76682311474862       11.71632653114471      -15.03612605589760
C           -4.92995492655519        9.79334849381649      -14.35311366209500
H           -4.48372215099056        8.89129419305486      -13.96316972889227
H           -6.00143648939288        9.78461108065791      -14.50849660720954
C           -4.43262325672802       15.87868465972387      -16.27762684972694
H           -4.89395240480380       15.62512860902481      -15.31563130826939
H           -4.84301024119018       15.19659974382279      -17.03318283789761
H           -4.72962410392435       16.89916163202906      -16.53514733906616
C           -2.28341244351857       17.96325262302178      -17.37405902895354
H           -2.41211357952900       18.79030491951329      -16.66450195707341
H           -3.20208514618347       17.87744025659017      -17.96267935511599
H           -1.46489099940826       18.22339724450037      -18.05247093510179
O            0.35110600854542       12.69287011068650      -17.18366819911200
H           -0.19200083644856       11.91106680224786      -17.08488909729319
H            0.66209271363949       12.99979155609016      -18.01699956879374
C           -0.13680930086299       15.08539044119538       -9.82642671651730
H           -0.71291701260350       16.01037512842810       -9.71444055342450
H            0.69799818720388       15.11021951077591       -9.11797884969670
H           -0.78445780519618       14.24059267852138       -9.58543344340269
N            1.20266742164344       15.88001096659180      -11.78842412128546
H            1.58337059053022       16.68102205445465      -11.31551559852210
C            0.35851652661750       14.96127300510122      -11.22876933846329
C            1.41633790127992       15.53024099148065      -13.06759520923035
H            2.05337166985689       16.08125061044157      -13.73810435683763
N            0.75383539597816       14.43943542020587      -13.36304473127404
C            0.08238947092636       14.06991186101591      -12.22252609395636
H           -0.53688982257553       13.19372893151179      -12.21455024486836
78
 energy: -116.043656501505 gnorm: 0.023038161014 xtb: 6.7.1 (edcfbbe)
Fe           0.62232611258578       13.58242763391107      -15.26378493736104
N            1.99131822676977       14.87451230612174      -15.98360062813614
N            2.10041030761035       12.24386976743529      -14.84314146856086
N           -0.76459690056935       12.21030862883644      -14.69795992243920
N           -0.84357732248868       14.86957871009561      -15.78763601463259
C            1.76467568018650       16.13017534256412      -16.45963138131942
C            3.02317293830113       16.78496813903053      -16.76630355806147
C            4.00312690668840       15.87843244114510      -16.49642273791655
C            3.34085060405692       14.69269398425618      -15.99951494877980
C            3.43640036202491       12.42787038697161      -15.02074391626408
C            4.17568357754994       11.27010757742253      -14.56998702734712
C            3.24485227066633       10.36934026237234      -14.12312704383144
C            1.94822087813726       11.00896834818469      -14.29982568025090
C           -0.52617167296598       10.94342779870658      -14.25214115333438
C           -1.76542319904788       10.21888119156201      -14.10385720308425
C           -2.77215820452612       11.07945370807487      -14.48242321385024
C           -2.11279475650526       12.33013700616013      -14.82201579087495
C           -2.18135058388679       14.64897794011343      -15.68481208373593
C           -2.92211936885341       15.77189974149982      -16.21158342691479
C           -2.00149417070513       16.66259236167802      -16.65805461070315
C           -0.70377027315203       16.09130548084885      -16.36748264723456
C            0.51391456165352       16.69653157489512      -16.64718899473273
H            0.48119348884094       17.69348715724403      -17.06447259267470
C            4.01087207346172       13.56127988880624      -15.57204797538397
H            5.08704120767919       13.56717378081954      -15.67564208692828
C            0.73499723765582       10.40687152170889      -14.01613938082438
H            0.77718518562029        9.40825739396459      -13.60403166957509
C           -2.76816822296787       13.48304205134372      -15.22347068967711
H           -3.84810501826603       13.46433419066000      -15.20878904648218
C            5.48083932545513       16.03441130945143      -16.63698349200571
H            5.73123319152104       17.02170963379157      -17.01358256588490
H            5.88300575341356       15.29673946272693      -17.32872224356617
H            5.97512284225266       15.89752865383467      -15.67610299485920
C            3.18692754593395       18.18591560127796      -17.25264372986429
H            2.40332306167552       18.82565634140996      -16.85746158582301
H            3.14980440380635       18.23193592728401      -18.34030930860958
H            4.14596158481768       18.58751612748227      -16.93372988297128
C            5.66240838389606       11.14850712070507      -14.54900380382083
H            6.13092597387670       12.12043907714444      -14.41401792636849
H            6.03593259801505       10.72425409946965      -15.48104089638647
H            5.97518580493121       10.49872879023753      -13.73435162966804
C            3.45754727964747        9.03703144613980      -13.59494244696996
H            2.76736864710604        8.71152839542002      -12.82607378390872
C            4.41037505868622        8.19999323706130      -13.99049241560649
H            5.10543471452806        8.45309781151772      -14.76952240106247
H            4.51958827095670        7.22186402699889      -13.55445880395385
C           -1.85967238583686        8.79231781412639      -13.68290718900150
H           -1.02984182303923        8.51817949608804      -13.03868088326624
H           -1.84520674717605        8.13667416731297      -14.55467698891422
H           -2.77714026528853        8.61034270804904      -13.13503889726002
C           -4.19636928960843       10.87736266867862      -14.62318260147113
H           -4.73613485476601       11.72967572883088      -15.01763008445951
C           -4.92358839901061        9.79183908505564      -14.35638338958550
H           -4.50692934212488        8.88029250439048      -13.97788001280997
H           -5.98748160284131        9.78808433810714      -14.51238635021110
C           -4.41072659062094       15.87614850565020      -16.27393705842640
H           -4.86420941949672       15.62343944834042      -15.31657996889457
H           -4.81964313725970       15.19713160932746      -17.02385674984716
H           -4.71319554891795       16.88693901936212      -16.53274867694303
C           -2.27035038523009       17.95320210105466      -17.36143404383963
H           -2.39652616080695       18.77395404234936      -16.65422559349481
H           -3.18302098787399       17.87605556636673      -17.94848832587032
H           -1.45915138068871       18.21140557464215      -18.03678670279545
O            0.39622225551192       12.65437795879423      -17.19778765030978
H           -0.20485032082945       11.90148146356028      -17.16421591849830
H            0.64838870016119       12.99169650618679      -18.06050483910530
C           -0.13674955218798       15.08172828527293       -9.83513582515248
H           -0.70978337225332       15.99945188006465       -9.70978101910628
H            0.69350434719608       15.10312748616242       -9.13193380135351
H           -0.77541507272741       14.24057693363526       -9.59432964195521
N            1.20149197604359       15.88371087932590      -11.78487632587920
H            1.58630782611755       16.68423932699885      -11.30966821153029
C            0.34748874200717       14.96486851274450      -11.23463150110772
C            1.41531191480540       15.52682327105959      -13.07008730068822
H            2.04808658408127       16.07245917207212      -13.73702505035164
N            0.75220936784840       14.43810411989968      -13.37185681717843
C            0.08464085720263       14.07349956230942      -12.23709983237406
H           -0.53116229846373       13.20004688579483      -12.22597100607797
78
 energy: -116.045911914484 gnorm: 0.051211642025 xtb: 6.7.1 (edcfbbe)
Fe           0.62562458366656       13.57797675626501      -15.26267902107019
N            1.98923807895697       14.87492586408826      -15.96738386610611
N            2.09300102687951       12.26133807188307      -14.82095903871214
N           -0.76265764304470       12.21318883583312      -14.70652407188210
N           -0.83511501540655       14.86145429598849      -15.78996501075370
C            1.76492555416677       16.12686545381863      -16.44762273722694
C            3.01514809577315       16.78607694543635      -16.75696574978587
C            3.99873107103273       15.87932451791345      -16.48629367916027
C            3.33443619864953       14.69682564351062      -15.98374490854319
C            3.42553634409227       12.43951715743599      -15.00478462014169
C            4.16415826520855       11.27720732262746      -14.57115249481375
C            3.23337933289315       10.37490141141327      -14.12185347819969
C            1.94053800852777       11.02205122696773      -14.28971734668771
C           -0.52650533316640       10.94896373759696      -14.25599944787118
C           -1.75949157372104       10.22122684696391      -14.09627044555206
C           -2.77037350541976       11.08066748261858      -14.47234275983938
C           -2.10839359727368       12.33045089539159      -14.82226074202696
C           -2.16997675968265       14.64383797076171      -15.68317906230732
C           -2.90990800479070       15.76836011284305      -16.21048359967817
C           -1.99299928802625       16.65637108088625      -16.65683782020447
C           -0.69467299409848       16.08347845293019      -16.36553891673961
C            0.51770946991510       16.69320408442540      -16.64388291227386
H            0.48482102814650       17.68501358477326      -17.06919981945498
C            4.00867942093368       13.56886436045338      -15.55694963134529
H            5.08243683099032       13.57215017088756      -15.66543688578108
C            0.73105198631879       10.41040981228429      -14.01819604183736
H            0.77297069212031        9.40418678195927      -13.62820904047128
C           -2.76575122099086       13.47984974712323      -15.22397859370968
H           -3.84416303961997       13.46690572872320      -15.22056329521258
C            5.47149600752177       16.03188266195768      -16.63452596365391
H            5.72164877022630       17.01641408723637      -17.01491845461899
H            5.86859161408861       15.29127130259669      -17.32535780776036
H            5.97163234395147       15.89436619376517      -15.67734947926983
C            3.17308949319255       18.18075233845108      -17.25446467337176
H            2.39377990315294       18.82657216005908      -16.86214815874229
H            3.13007324241420       18.21900735820391      -18.34186247175405
H            4.13398324097133       18.58454434912051      -16.94659073451685
C            5.64708009502571       11.15106183559987      -14.55445527693794
H            6.11799962089109       12.11881954683785      -14.40707944000964
H            6.01976223338164       10.73696963357554      -15.49048271257307
H            5.95540551085609       10.48820661583949      -13.74958650029632
C            3.44670585553094        9.04992711627311      -13.59505859660061
H            2.74456203336269        8.72915262984207      -12.83580561953866
C            4.40701131009968        8.21587017790333      -13.97875412998703
H            5.09509199324653        8.45543909077410      -14.76750585927077
H            4.51353750255008        7.23720661934031      -13.54683760717681
C           -1.84497999528231        8.79933640363622      -13.66649773217937
H           -0.99793234484726        8.52465432263358      -13.04541388193850
H           -1.85419085686894        8.14072653628990      -14.53628808387315
H           -2.74774613625448        8.61779109584039      -13.09441380110882
C           -4.18844076204181       10.88166436604769      -14.60903445515731
H           -4.71928897896723       11.74342776369974      -14.99091601611147
C           -4.91986453919358        9.79279605160497      -14.35925386271142
H           -4.52019128478968        8.86473921345674      -14.00226731666414
H           -5.98263778050686        9.79815564659138      -14.52000060258234
C           -4.39749102318553       15.86896935298282      -16.26765428570049
H           -4.84169895744741       15.61721041007747      -15.30822410780832
H           -4.80336449581717       15.18807117080818      -17.01508538623682
H           -4.70119192177159       16.87758866728819      -16.52853247519286
C           -2.25226336309446       17.95172133473764      -17.35088845335827
H           -2.37150593485207       18.76570188689030      -16.63709979977701
H           -3.16584856140495       17.88339944659491      -17.93604508671122
H           -1.44137724955962       18.20609295318158      -18.02502236436189
O            0.49260275366696       12.58596483369318      -17.21393970938352
H           -0.24590896278499       11.92173380707636      -17.25170377055950
H            0.60385901712262       13.00378513394983      -18.10575554167713
C           -0.13795553411238       15.07372265129061       -9.84296072388875
H           -0.71059318305177       15.98927422429472       -9.70516211901053
H            0.69615264719792       15.09079160505745       -9.14531949281768
H           -0.77288856285026       14.23042036567085       -9.60367313709738
N            1.19745906464262       15.88528444943348      -11.78805071724213
H            1.58581394728238       16.68311887890467      -11.31015192612707
C            0.33824931149624       14.96579939411385      -11.24382180584965
C            1.41363372033968       15.52732698216679      -13.07528705211384
H            2.04709191203083       16.07151120473995      -13.74008181178325
N            0.74954666262833       14.44026360185345      -13.38134169853923
C            0.07976035725726       14.07769713698143      -12.25150246874169
H           -0.53663774847503       13.20520103723231      -12.23785179022707
78
 energy: -116.047792868386 gnorm: 0.018632591917 xtb: 6.7.1 (edcfbbe)
Fe           0.62632092101458       13.57415092692406      -15.26876919266241
N            1.98745241410700       14.87532005938798      -15.95896277691183
N            2.08670906822868       12.27391088236646      -14.80882060432358
N           -0.76142502947087       12.21441493012944      -14.71150556645972
N           -0.83031984347013       14.85329864278403      -15.79668266102501
C            1.76408336986559       16.12661470423438      -16.44058546053336
C            3.01190304267879       16.78588011450274      -16.75064438315860
C            3.99550856966269       15.88185296638641      -16.47805792920038
C            3.33265413016215       14.70074583477706      -15.97271764050322
C            3.41918471334838       12.44914799647671      -14.99513759744412
C            4.15574414362886       11.28395334313897      -14.57183278605588
C            3.22504628054735       10.38257865544125      -14.12462423064162
C            1.93470060484254       11.03169904019885      -14.28568624685153
C           -0.52554428985102       10.95184111859525      -14.25797829132480
C           -1.75586325606023       10.22446654620741      -14.09147452066584
C           -2.76823367842938       11.08155075428566      -14.46567830696013
C           -2.10751393662459       12.33074031563099      -14.82228623683853
C           -2.16531913716287       14.63736540918395      -15.68445400638688
C           -2.90590678689453       15.76389690963274      -16.20683703046463
C           -1.98470087667736       16.65625004207990      -16.65452371853319
C           -0.68830595814842       16.07913684381819      -16.36651862170758
C            0.51900311595860       16.69246965509143      -16.64322880129522
H            0.48625794521931       17.68293203779693      -17.07084844849685
C            4.00798201592809       13.57499149254049      -15.54525186486783
H            5.08119506882695       13.57565723008746      -15.65555583770075
C            0.72939751703577       10.41279067717945      -14.02179957754546
H            0.77196080578159        9.40138196130950      -13.64562475926690
C           -2.76557873313391       13.47778608958524      -15.22687268393062
H           -3.84389407857014       13.46998956847724      -15.22726815251823
C            5.46814002245932       16.03049797530093      -16.63260289721333
H            5.71756395562773       17.01545029734411      -17.01712764317110
H            5.85872271462908       15.28572411717559      -17.32545523745059
H            5.97253416662086       15.89310688367225      -15.67584005758195
C            3.16367292909328       18.17893464725354      -17.25763002792387
H            2.38452189389062       18.82736209905498      -16.86383144629007
H            3.11166773115405       18.20831703021840      -18.34675405307632
H            4.12766507663557       18.58617148112086      -16.95807453221172
C            5.63774973872810       11.15223373786245      -14.56010742158844
H            6.11144469008049       12.11858632857984      -14.40048295244041
H            6.00627849086797       10.74829518384048      -15.50391523441463
H            5.94290887909593       10.47620033555846      -13.76252429826901
C            3.43454704361713        9.05661987118891      -13.59744496730019
H            2.72809947061680        8.73732932688911      -12.84012539195176
C            4.39935761686267        8.22314561105036      -13.97493022884826
H            5.09059170472908        8.46240599177225      -14.76323771911538
H            4.50801562901284        7.24590824236379      -13.53648233539105
C           -1.83671945676462        8.80450189232937      -13.65237019967259
H           -0.97280553222620        8.53030648588999      -13.04979717673817
H           -1.86710878848413        8.14161061480196      -14.52115021329763
H           -2.72851475248928        8.62793537214218      -13.05631857252385
C           -4.18674380925235       10.88395357424479      -14.59783954989216
H           -4.71734728184568       11.75418971255830      -14.96329725640284
C           -4.91808415647632        9.79307186063048      -14.36337567874019
H           -4.52230021456376        8.85357452807268      -14.02398412901594
H           -5.98324901225349        9.80690963236134      -14.52345881401422
C           -4.39233106931825       15.86436310946035      -16.26081017767152
H           -4.82973588722369       15.61333789154796      -15.29707236402465
H           -4.79656412311070       15.17978795631825      -17.00704125503896
H           -4.69554537182520       16.87427205033366      -16.52319477783723
C           -2.23855979201803       17.95588801429849      -17.34128838477805
H           -2.34925999185636       18.76512785155217      -16.61910124088518
H           -3.15573661431126       17.89551343483345      -17.92451016706181
H           -1.42506813298151       18.20656829981433      -18.01567885921674
O            0.46422869003394       12.60004494708040      -17.24807101160950
H           -0.18174125014802       11.89430717032637      -17.28285031806677
H            0.61462251328762       12.97582187724846      -18.12641697201940
C           -0.13813834538007       15.06368166836373       -9.84890808576450