78
 energy: -115.973650990924 gnorm: 0.267042214808 xtb: 6.7.1 (edcfbbe)
Fe          12.66400000000000        1.30100000000000        2.16800000000000
N           13.25300000000000       -0.60800000000000        1.54200000000000
N           10.96400000000000        1.11100000000000        1.11300000000000
N           12.05700000000000        3.15800000000000        2.81800000000000
N           14.32600000000000        1.41200000000000        3.30200000000000
C           14.43500000000000       -1.19800000000000        1.86300000000000
C           14.39600000000000       -2.54600000000000        1.31300000000000
C           13.25500000000000       -2.66900000000000        0.61000000000000
C           12.52700000000000       -1.41000000000000        0.71800000000000
C           10.58800000000000        0.00800000000000        0.33400000000000
C            9.35300000000000        0.30900000000000       -0.34500000000000
C            8.99200000000000        1.55300000000000        0.03300000000000
C            9.97900000000000        2.05800000000000        0.96300000000000
C           10.85000000000000        3.70500000000000        2.52500000000000
C           10.71100000000000        4.88200000000000        3.33800000000000
C           11.80700000000000        5.00500000000000        4.11400000000000
C           12.65100000000000        3.86100000000000        3.81600000000000
C           14.67700000000000        2.53300000000000        4.05700000000000
C           16.04200000000000        2.42600000000000        4.48900000000000
C           16.51600000000000        1.08000000000000        3.97100000000000
C           15.41700000000000        0.55000000000000        3.23300000000000
C           15.44300000000000       -0.68300000000000        2.61100000000000
H           16.34200000000000       -1.28800000000000        2.73000000000000
C           11.29700000000000       -1.16000000000000        0.18300000000000
H           10.84000000000000       -1.95000000000000       -0.41200000000000
C            9.95500000000000        3.29400000000000        1.57900000000000
H            9.16700000000000        3.99000000000000        1.29000000000000
C           13.87000000000000        3.59300000000000        4.34100000000000
H           14.24800000000000        4.30600000000000        5.07300000000000
C           12.70700000000000       -3.88100000000000       -0.17000000000000
H           13.42000000000000       -4.72900000000000       -0.08600000000000
H           12.58900000000000       -3.61500000000000       -1.24200000000000
H           11.72800000000000       -4.18900000000000        0.25500000000000
C           15.56700000000000       -3.51400000000000        1.51200000000000
H           15.72800000000000       -3.68300000000000        2.59800000000000
H           16.49100000000000       -3.08000000000000        1.07400000000000
H           15.33700000000000       -4.48600000000000        1.02600000000000
C            8.57800000000000       -0.60100000000000       -1.31600000000000
H            8.89000000000000       -1.65600000000000       -1.16400000000000
H            8.80000000000000       -0.30700000000000       -2.36400000000000
H            7.48800000000000       -0.51600000000000       -1.12100000000000
C            7.73300000000000        2.31300000000000       -0.38700000000000
H            7.19500000000000        2.95100000000000        0.32900000000000
C            7.27200000000000        2.21300000000000       -1.62300000000000
H            7.78800000000000        1.58300000000000       -2.36200000000000
H            6.36700000000000        2.75900000000000       -1.92700000000000
C            9.45300000000000        5.77900000000000        3.24600000000000
H            8.54200000000000        5.14900000000000        3.32600000000000
H            9.44000000000000        6.30800000000000        2.26900000000000
H            9.45600000000000        6.51600000000000        4.07700000000000
C           12.09900000000000        6.03900000000000        5.20900000000000
H           12.52400000000000        5.69900000000000        6.16500000000000
C           11.86600000000000        7.36100000000000        5.07800000000000
H           11.44200000000000        7.76400000000000        4.14600000000000
H           12.09700000000000        8.05300000000000        5.90100000000000
C           16.82500000000000        3.42100000000000        5.34800000000000
H           16.32200000000000        3.53800000000000        6.33200000000000
H           16.85900000000000        4.40900000000000        4.84100000000000
H           17.85700000000000        3.04300000000000        5.51400000000000
C           17.91400000000000        0.47000000000000        4.13100000000000
H           17.90400000000000       -0.26900000000000        4.96100000000000
H           18.64700000000000        1.27000000000000        4.37000000000000
H           18.20800000000000       -0.04700000000000        3.19200000000000
O           11.66400000000000        0.17200000000000        3.77500000000000
H           11.85600000000000       -0.75100000000000        3.60800000000000
H           11.17900000000000        0.49500000000000        4.44600000000000
C           15.93000000000000        4.46200000000000       -1.13000000000000
H           15.47300000000000        5.35000000000000       -1.61600000000000
H           16.54900000000000        3.92100000000000       -1.87700000000000
H           16.56600000000000        4.80100000000000       -0.28400000000000
N           13.91600000000000        3.00600000000000       -1.45500000000000
H           13.88200000000000        3.14700000000000       -2.44400000000000
C           14.85100000000000        3.56100000000000       -0.62100000000000
C           13.08600000000000        2.27000000000000       -0.74700000000000
H           12.23500000000000        1.73200000000000       -1.16300000000000
N           13.46100000000000        2.30200000000000        0.52000000000000
C           14.55700000000000        3.12200000000000        0.62500000000000
H           15.02600000000000        3.31600000000000        1.58100000000000
78
 energy: -116.029724893599 gnorm: 0.109123619903 xtb: 6.7.1 (edcfbbe)
Fe          12.65354661846154        1.29997037902591        2.15497174220293
N           13.25480706021319       -0.57835282341450        1.52912382813727
N           10.95229637472207        1.10369755168299        1.10698899195369
N           12.03956400416176        3.12038562930228        2.84915840201427
N           14.33414347445780        1.42849603789860        3.27391532255304
C           14.41652267185895       -1.20110094880903        1.86627995802596
C           14.41084819962333       -2.54679389733079        1.30175608080000
C           13.25622350426236       -2.67913443997562        0.60505118614663
C           12.53274853400017       -1.41954759048514        0.74291748116828
C           10.58266831841581        0.02299731879839        0.32823320320076
C            9.33938346942707        0.31199535572362       -0.34915691717036
C            8.96874712762537        1.56677839516743        0.03290014979284
C            9.98018993238562        2.05242362748342        0.95052957698988
C           10.86354213912842        3.71753922853697        2.52782353203894
C           10.70205126345742        4.90612098321260        3.33634917869259
C           11.79951865724391        5.01546638044974        4.13654911234297
C           12.64161247483192        3.86513818473945        3.81545603182248
C           14.70086644399275        2.51173683528006        4.04523936291151
C           16.06112892749974        2.37928277970722        4.48954239713145
C           16.51528553411436        1.12688540297190        3.98170753757783
C           15.41544759518887        0.57783368884401        3.24610824585560
C           15.43544686619392       -0.66935744706974        2.62215197753032
H           16.33056012512447       -1.27242462501750        2.73675113139475
C           11.29679584689656       -1.15559896950932        0.18995415112807
H           10.84885123917359       -1.93905273432965       -0.41175322734042
C            9.95997652365861        3.28995041741101        1.57266521787618
H            9.16081510915569        3.97203579460485        1.30295676536280
C           13.88235668601289        3.59243662927864        4.34342729855014
H           14.26032270190628        4.30580043584863        5.06824527483423
C           12.71923590776365       -3.87022386848164       -0.16025572451101
H           13.41027317356004       -4.71581109898099       -0.08829392103055
H           12.59007573005901       -3.61758646335313       -1.21931235790778
H           11.74932013157781       -4.18066941510855        0.24672861568251
C           15.55341848913903       -3.51053158138273        1.50742762345178
H           15.72248176510386       -3.68074783061361        2.57771169457734
H           16.47181190939444       -3.09265887492903        1.07859446227566
H           15.34367812028954       -4.47277648515890        1.03117220478308
C            8.59191788311874       -0.59920635734434       -1.29929342783037
H            8.88683111365889       -1.64384521731000       -1.16283858152828
H            8.80007785810984       -0.32085584418019       -2.34002142726235
H            7.51316784921683       -0.51403955918269       -1.12541794320505
C            7.75027110609939        2.30579976065602       -0.38912861129101
H            7.23190077047417        2.93438232805835        0.33364684572608
C            7.27133110516341        2.21302431445987       -1.62230667760631
H            7.77106948721917        1.60729467610998       -2.36645718202083
H            6.37820603172705        2.74929700800674       -1.92578677845077
C            9.46547058934674        5.77612392188434        3.25263557090246
H            8.56263149780285        5.15830207851613        3.32519570941531
H            9.44329946120317        6.30290885358802        2.29113987716135
H            9.45657470699691        6.50661971172439        4.06583646498332
C           12.09118770647368        6.03305734130931        5.18888060220740
H           12.51918643319041        5.68024877120599        6.12837385502419
C           11.86308235044475        7.34078235137776        5.06933506192419
H           11.45342815455916        7.76033678069782        4.15774054271800
H           12.08932631694564        8.03042898230362        5.87893349184312
C           16.81348002433918        3.38771032892214        5.33076784475645
H           16.32926523501332        3.52659562284987        6.30768740550643
H           16.85433136509504        4.37352109119315        4.84475435807871
H           17.83858561051101        3.04775307951362        5.50895553641045
C           17.88360154767539        0.49397861009713        4.13396859067846
H           17.89468645360402       -0.24770016460345        4.94581540349002
H           18.63285904470296        1.25771784617287        4.36581790859764
H           18.19151772614528       -0.02240765540080        3.21450230262029
O           11.67685588913309        0.17187354684667        3.76503883431825
H           11.84794080530533       -0.75741990850189        3.62155958410093
H           11.15810352059344        0.49251294368624        4.47921790997977
C           15.92972467325768        4.46552004708177       -1.13317443557326
H           15.48765559576963        5.34573119280331       -1.61386383036170
H           16.54852541885878        3.93754132095876       -1.86777807042047
H           16.55788540360604        4.79477883763007       -0.30143220292383
N           13.92376602760340        3.01608334401959       -1.46294122091802
H           13.88410536621011        3.15733336601916       -2.45679571866330
C           14.85757471793442        3.56774056392304       -0.62790380626070
C           13.09553096453800        2.26193592944644       -0.73267668008118
H           12.25149817628141        1.73061959566902       -1.14107347100580
N           13.46302517213594        2.28795303816806        0.53091271815163
C           14.55200222063197        3.11198861005897        0.61821927297982
H           15.01795596922194        3.30737694954726        1.56633878298328
78
 energy: -116.044791446043 gnorm: 0.038537120983 xtb: 6.7.1 (edcfbbe)
Fe          12.64949812171912        1.30149583083231        2.14271610726371
N           13.25036942957470       -0.55147916858342        1.52536073742345
N           10.94960451072883        1.09991723833531        1.09681521252519
N           12.02570069718041        3.08484951039786        2.87180422601863
N           14.34126621980840        1.44690789290616        3.24994958721860
C           14.40272396849045       -1.19069156152093        1.86358768827295
C           14.41668277896943       -2.53485828139513        1.30253213077798
C           13.25099420522271       -2.67719925526499        0.61290192186604
C           12.53571726101256       -1.41870075030970        0.76070279056275
C           10.58252838174038        0.03557466810952        0.32546757258887
C            9.33876865737077        0.31476069536351       -0.35603734126583
C            8.96108303362514        1.57743073536209        0.02678921435623
C            9.98265318104397        2.04429098547175        0.94638468453884
C           10.87089175649472        3.71533924940504        2.53554041644963
C           10.70299929174420        4.91852877836754        3.32491568169238
C           11.80020598433890        5.01207563241901        4.14237665067327
C           12.63021737919499        3.85111100215274        3.82065113549705
C           14.71081805339350        2.50468136194389        4.02686160334415
C           16.07300681268862        2.34521365757729        4.48352017057791
C           16.50773636726522        1.16453495129183        3.99462602066370
C           15.41057564869059        0.60330313455279        3.24134210588803
C           15.42818009230233       -0.64642236189237        2.62056542118909
H           16.31468302922747       -1.25284977007633        2.74657360807443
C           11.29984387491793       -1.14732501276581        0.19411367224751
H           10.86020024931327       -1.92613167131157       -0.41302201874040
C            9.96000018674192        3.27643683334168        1.58058206060591
H            9.15134416026061        3.94766428205103        1.32658200062229
C           13.88778247703685        3.58817210486507        4.34352819708125
H           14.27339034452192        4.30661266579093        5.05454173988996
C           12.73093265845089       -3.85325879163908       -0.14749309700126
H           13.41290167590018       -4.69635726031210       -0.08185613293626
H           12.59619846429524       -3.60816262899594       -1.20080438495564
H           11.76482882479908       -4.16791268890571        0.24687446601743
C           15.53930659906336       -3.49851460578027        1.50179448212631
H           15.71150296018115       -3.67306203066634        2.56347045368215
H           16.45978964329782       -3.09841398924251        1.07719268214016
H           15.33414191665183       -4.45479370094660        1.02970968102554
C            8.60682260327875       -0.59816708129164       -1.28343082432056
H            8.89229572971370       -1.63585848925542       -1.14242845539129
H            8.81255921540528       -0.33694646690927       -2.32239013927447
H            7.53275495680801       -0.50714744247993       -1.12556450623384
C            7.77450955062979        2.29739034353496       -0.39063099619548
H            7.28099226562508        2.92370527159962        0.34323691693710
C            7.27081559631362        2.21708881903219       -1.61895428797403
H            7.75315385113742        1.63240230143569       -2.37914430075705
H            6.38193513116271        2.74739478859875       -1.91298203947502
C            9.48412977198596        5.77391268053157        3.25639738176952
H            8.58555888988173        5.16159296709824        3.32668503885669
H            9.44824852419331        6.30630314080417        2.30606309359272
H            9.46895562703116        6.49909046228918        4.06343971352869
C           12.08920861559480        6.01100878912878        5.16120599255585
H           12.52420731057969        5.64367820991752        6.08574915367080
C           11.85933996064008        7.31468672696077        5.05466064040288
H           11.45953094859438        7.75373765415938        4.15761192313569
H           12.08195726384176        8.00054459518919        5.85762213111721
C           16.80501897294192        3.35358575522122        5.31590869166023
H           16.32002144301301        3.49740518006550        6.28333195650437
H           16.83835722370828        4.33040590219192        4.82751430257079
H           17.82761799836262        3.03483152445050        5.50032130557721
C           17.85439109883648        0.52076062162541        4.13977299513811
H           17.86197520300934       -0.22313443890899        4.94004205451169
H           18.61446695563744        1.26370613045613        4.37036872662755
H           18.15537796580793        0.01094877635774        3.22392277092353
O           11.69543637880221        0.17883420051069        3.77225392229234
H           11.82113637642730       -0.76429041862050        3.65655227659421
H           11.14514528961275        0.47760612017884        4.49567093254143
C           15.92990521865683        4.47039154901016       -1.13407298847994
H           15.49833340065829        5.34732075004311       -1.61293844309340
H           16.55010602719664        3.95118245039047       -1.86273710663965
H           16.55441052470862        4.79288728152762       -0.30951205292150
N           13.92626234347069        3.02179002530747       -1.46726621374340
H           13.87833864745478        3.16342349891655       -2.46330788348108
C           14.86080267536727        3.57297633463815       -0.63233004161133
C           13.10708899444828        2.25011027811214       -0.71955081919839
H           12.27018373938943        1.71780176863746       -1.12106961513363
N           13.47047808799464        2.27515691250449        0.54002514595785
C           14.55317919236088        3.10215056128195        0.61210263054677
H           15.02192153245772        3.30096428482968        1.55268986890881
78
 energy: -116.048818948522 gnorm: 0.019888131879 xtb: 6.7.1 (edcfbbe)
Fe          12.64714238565609        1.29891552283683        2.14247836199263
N           13.24810231989844       -0.53566678818534        1.52070353916532
N           10.95128435758150        1.09750378618063        1.09589654297420
N           12.01477482371534        3.06333023520343        2.87803538554346
N           14.34628200674815        1.46390238116793        3.22799060387037
C           14.39894287518254       -1.17591016419725        1.85706148811981
C           14.41685993974007       -2.51709424035414        1.30170315627426
C           13.24932582654040       -2.66382177910811        0.61702838789307
C           12.53489178620686       -1.41012796483174        0.76296395937449
C           10.58710460162896        0.03859085594807        0.32216204637619
C            9.34833419407437        0.31503785426646       -0.36294540461066
C            8.97041070229295        1.57888257212910        0.01662554210715
C            9.98491128234197        2.03901283624308        0.94520864231614
C           10.86491681048529        3.70119509003744        2.53961383386628
C           10.70339991149811        4.91059855036808        3.31483801341362
C           11.80016425500322        4.99709955624667        4.13205950129122
C           12.62120527872430        3.83417011115965        3.81974786844068
C           14.70481479098792        2.51412331126041        4.01450359951987
C           16.06395507853057        2.35069674532239        4.48685079939863
C           16.50656573166455        1.16998126828375        3.98193097960003
C           15.40776329069129        0.61496786978864        3.22092057561980
C           15.42491798601561       -0.63171637459355        2.61137787671660
H           16.30679766611051       -1.24023824714552        2.74899300218034
C           11.30277253899104       -1.14300404046836        0.19206747664903
H           10.86969615267778       -1.91950679696839       -0.42111087619060
C            9.95231493726285        3.26304805148211        1.58920457534427
H            9.13004516136926        3.92415835092440        1.35317865321539
C           13.88365557658530        3.58906943534961        4.33784885701361
H           14.27592984387912        4.31474231237364        5.03752967468857
C           12.73637562564133       -3.84065377776254       -0.13948501645720
H           13.42372881011449       -4.67935139460850       -0.07240469695301
H           12.60251188229161       -3.59399828284471       -1.19244414960293
H           11.77082850756828       -4.15899145113865        0.25329303656232
C           15.53149910911183       -3.48672480675042        1.49817421467983
H           15.70256227966187       -3.66496432085351        2.55941306807171
H           16.45545888650254       -3.09637731835673        1.07170557713178
H           15.31547402437327       -4.43968367466615        1.02349031511592
C            8.61893371814101       -0.60656225024640       -1.27700717151360
H            8.89645075939593       -1.64327311387129       -1.11007441772292
H            8.83555606458508       -0.36742842382023       -2.31947602424296
H            7.54454400529798       -0.50110779290588       -1.12915168876428
C            7.79017502722531        2.30277196997424       -0.39415745698836
H            7.31948267983453        2.93254597259449        0.35216712254684
C            7.26368584528599        2.23176226764797       -1.61463607237063
H            7.73102992494928        1.65723909082960       -2.39424077862110
H            6.36997651681263        2.76392053132257       -1.88901892429404
C            9.49422828699876        5.77553526331947        3.25622439988084
H            8.59422266897707        5.16547606335161        3.32719055684155
H            9.45435003883619        6.31930934363662        2.31197328107829
H            9.48899175817760        6.49358968482625        4.07064318145712
C           12.09814659012302        5.98985959994936        5.14236586479605
H           12.54798238630435        5.61321487897788        6.05536552013335
C           11.86109577110084        7.29302895058570        5.04184254301065
H           11.46080597512314        7.73802085004291        4.14761874748217
H           12.08078630057702        7.97424986902898        5.84728775377750
C           16.79527527323565        3.34709140977984        5.32020317423209
H           16.30485103436237        3.48122152706198        6.28380292796808
H           16.82335971618250        4.31640365731382        4.82138719162681
H           17.81696882240436        3.02434073429371        5.49980712185558
C           17.84446445717769        0.52811409228115        4.13852384311930
H           17.83195613742545       -0.21493452096873        4.93738850233269
H           18.60157213519885        1.27024037398520        4.37975164995387
H           18.14047303333290        0.02788754781843        3.21853219750703
O           11.72721659791357        0.18420516386149        3.81573903673921
H           11.77596688803174       -0.77149280187409        3.69078980638974
H           11.12181104422462        0.47177671443212        4.50617824395658
C           15.92879184813389        4.47555673388170       -1.13483673758239
H           15.49991091391054        5.35490013084649       -1.61227469641844
H           16.55330116820010        3.96198028559840       -1.86441668624992
H           16.55343875006533        4.79609091034588       -0.30913675818584
N           13.92681645380890        3.01716937520720       -1.46549250373905
H           13.86922363622182        3.16220335368323       -2.46094695542171
C           14.86263964773350        3.57276133311154       -0.63380519119822
C           13.12030715352396        2.23357407328613       -0.71137822552392
H           12.28850297971651        1.69047672817474       -1.10750140815193
N           13.48737231970721        2.26033605512678        0.54617868186236
C           14.56477124147086        3.09450938208835        0.61031071187129
H           15.04084319292252        3.29623971168206        1.54607062585816
78
 energy: -116.049844636755 gnorm: 0.056786235306 xtb: 6.7.1 (edcfbbe)
Fe          12.65019191237925        1.29559741405374        2.14214323348722
N           13.24360760436783       -0.51791521585441        1.52159023849517
N           10.95324372193594        1.09193215895589        1.10201346816906
N           12.00592580389301        3.03777776843493        2.87724088390265
N           14.34504214252106        1.47960802060187        3.20677428168611
C           14.39657800668748       -1.15555776497737        1.85027072691909
C           14.41792209179034       -2.49261550952831        1.30137777059466
C           13.24832544894936       -2.64503978949723        0.62263520566824
C           12.53354506489680       -1.39790558180950        0.76582865926706
C           10.59323149342977        0.04000231838374        0.31847501942455
C            9.36238219286390        0.31538532767074       -0.37357455196392
C            8.98282085438572        1.57829540594716        0.00510428013348
C            9.98667469352302        2.03114798227163        0.94638372913933
C           10.85691720807987        3.68057897082378        2.54323159867724
C           10.70615550927924        4.89625291165256        3.30167020585660
C           11.80498685091579        4.97657721185522        4.11461461346979
C           12.61471472510663        3.81202404754110        3.81173384591640
C           14.69549270209130        2.52357692914327        3.99897257338140
C           16.05205930785391        2.35850628948933        4.48187736062529
C           16.49862508816859        1.17643890436163        3.97158341070694
C           15.40214780174236        0.63015588500330        3.19734728617374
C           15.42449203361489       -0.61185351487666        2.59871600103924
H           16.30363710093144       -1.22051632412838        2.74610050454622
C           11.30747973570431       -1.13893445100765        0.18699009407116
H           10.88320066829220       -1.91361879812717       -0.43344615948680
C            9.93882847641355        3.24436939590536        1.60349792051799
H            9.10322102832272        3.89459555483272        1.38752196932205
C           13.88136762115288        3.59133694349599        4.32569198916388
H           14.27814615636613        4.32425273082956        5.01414386473285
C           12.74205318665986       -3.82485164989726       -0.13173998493991
H           13.43681626279778       -4.65818869728767       -0.06197877062932
H           12.60922890324301       -3.57831771946012       -1.18562321058052
H           11.77771703397685       -4.14938483002353        0.26049182424970
C           15.52506412279947       -3.47008761936403        1.49397910250438
H           15.69470229375750       -3.65389194897271        2.55509320228122
H           16.45328668864217       -3.09081464088350        1.06530640064030
H           15.29312677019408       -4.41898663897453        1.01553935377312
C            8.63351523541955       -0.61702191230181       -1.27437284125711
H            8.89308359448631       -1.65386691452881       -1.06622808898990
H            8.87058076105155       -0.41448372990106       -2.32207274432712
H            7.55806731924677       -0.48948084096515       -1.14483258453393
C            7.80722520543909        2.31233804251545       -0.39789892035019
H            7.36324925562073        2.94756575811202        0.36128891777157
C            7.25331492052175        2.25267438415252       -1.60652271242222
H            7.68868853731932        1.67282932110724       -2.40343049715209
H            6.35809615213067        2.79708600805249       -1.85577018993350
C            9.50642863377477        5.77554638079380        3.25577131607817
H            8.59913194897504        5.17451815648190        3.32367050799015
H            9.46634124663987        6.33806124861436        2.32133201137025
H            9.51762602386921        6.48114142226831        4.08342097385063
C           12.11681824955141        5.96543997218442        5.12015750939015
H           12.58466642437478        5.57972098666481        6.01995649681789
C           11.86638294655776        7.26751247773995        5.02761675690969
H           11.45173527953462        7.71343858512831        4.13978272359216
H           12.09351886526028        7.94520925913371        5.83312059161161
C           16.78097688076505        3.34327312666490        5.32367185784747
H           16.28759185995151        3.46783487881304        6.28576657132310
H           16.80865490227389        4.31159280268286        4.82572162975232
H           17.80195203630111        3.01624532614111        5.50254448572113
C           17.83047814235222        0.53530730454342        4.13882158534548
H           17.80089827204419       -0.21101564365175        4.93333684627710
H           18.58577022262981        1.27478056520157        4.39634542202511
H           18.13143359170828        0.04468473708166        3.21670355191015
O           11.81982778487176        0.19418688554723        3.90876527722266
H           11.68687531311045       -0.77644626183459        3.71735747022071
H           11.05144590943213        0.45505375948430        4.48865873900179
C           15.92536054129875        4.48136581151182       -1.13567182238736