77
 energy: -118.994890008341 gnorm: 0.000057047634 xtb: 6.7.1 (edcfbbe)
Fe          19.87484652452633      -20.79462991663176        2.91788688885723
N           18.38045693099116      -21.57894564252252        4.03173144901437
N           19.21354693626258      -18.92800338792583        3.34034373223826
N           21.46019812905940      -19.99254080451301        1.96129906797932
N           20.66858504728292      -22.63454893726587        2.73158928333562
C           18.15976530274203      -22.89301669238102        4.29203542791243
C           16.92356057268750      -23.05869820073345        5.02503484650143
C           16.40226929324070      -21.81199488400750        5.18709333742378
C           17.33205286534654      -20.89688658186525        4.56173516399747
C           18.06856176960225      -18.61625972801163        4.00181741006009
C           17.91104140794833      -17.18752499848565        4.08520290619506
C           19.01093399919890      -16.63914454509354        3.48058540131683
C           19.79872185265473      -17.75327852035602        2.99167854029687
C           21.67422067234093      -18.67682775186883        1.69931510156867
C           22.81182507733153      -18.51912430455745        0.82787446461302
C           23.25863398287775      -19.78047729692655        0.54093238771352
C           22.40412027318867      -20.68808181649171        1.28247888324252
C           21.79857305940319      -22.94616851884814        2.04705694423086
C           22.04283038936398      -24.37188863168941        2.10482203525071
C           21.02262590410610      -24.90689422478594        2.82848149095623
C           20.16562507264265      -23.80225200484076        3.20453744374495
C           18.99445145835452      -23.93584993023237        3.92885360533241
H           18.70032847812329      -24.93280018754300        4.22026951316948
C           17.17745982071895      -19.52380319962477        4.55231502439962
H           16.29131990101532      -19.12160061327645        5.01992441695945
C           20.92388867735560      -17.62519453215356        2.19686662167386
H           21.21979657982364      -16.62611628100039        1.91602384071724
C           22.60496452787762      -22.05478261806711        1.36445523684829
H           23.45872407318112      -22.45750068678856        0.84150999915460
C           15.13956090893172      -21.39617970548860        5.86018624278787
H           14.60571934602771      -22.25990722088413        6.24788999168465
H           14.48829119748722      -20.87724310216323        5.15745210145414
H           15.34857575805554      -20.72066158989638        6.69020509492531
C           16.38175797884350      -24.37346559029558        5.46886931996609
H           17.09166636834246      -24.88031771985647        6.12270734019618
H           16.19505153483987      -25.01634872290873        4.60907437549915
H           15.44775402504258      -24.24500913733931        6.00983613894584
C           16.78051377376786      -16.48948048540793        4.75846994851171
H           16.76157808776714      -16.72159362990690        5.82397230607586
H           15.82940474671565      -16.80273811951823        4.32842052826634
H           16.87589845890925      -15.41263251546982        4.64686743657552
C           19.32368776569312      -15.22946066421539        3.35528874272541
H           18.47497833867995      -14.58113934261696        3.16849027974471
C           20.53088607182166      -14.69297891618099        3.48927027071368
H           21.39695505749296      -15.28768070919975        3.72655962775841
H           20.69061276051345      -13.63243120144278        3.38853630389280
C           23.31978999693953      -17.21702286471858        0.31590009925206
H           23.54487884014216      -16.53968317017170        1.13994817519157
H           22.57058164043272      -16.74036236441121       -0.31620299366984
H           24.22064522933289      -17.36341859948140       -0.27439480873972
C           24.35168146135096      -20.14235431818669       -0.34038656253009
H           25.21911968512830      -19.49215311954227       -0.29912625497949
C           24.33524901489340      -21.15708018859886       -1.19615741158512
H           23.46947479516318      -21.78651756331399       -1.31090789396815
H           25.17589689361322      -21.36924662308756       -1.83592583502360
C           23.20163656930799      -25.04963850845086        1.45961856615131
H           24.14171206146391      -24.62736648605279        1.81466846915866
H           23.16046402967395      -24.92083277090723        0.37835113628600
H           23.19803163880676      -26.11451644168059        1.67796769811759
C           20.76336813446030      -26.32894118590970        3.18805023032537
H           21.56298473051300      -26.97101863752408        2.82778345098727
H           19.82661728290266      -26.66705531256616        2.74541484627551
H           20.68842155699445      -26.44424715785756        4.26940671875733
O           18.92772995082273      -20.88464932664345        1.54024688444104
O           19.45448986513955      -21.34443975175423        0.46700393773935
C           23.96677960858583      -21.01026533187976        7.15361001148018
H           23.80730052206177      -21.71407190971284        7.97046835683071
H           24.33464061042904      -20.07551688364431        7.57657020911120
H           24.72468910932550      -21.41396485915952        6.48956064400532
N           21.57597171724780      -20.28266294621863        6.98214365351064
H           21.48354207227663      -20.01835414999400        7.94970550012163
C           22.70945507138486      -20.78800539386380        6.39704448687751
C           20.62327083077372      -20.20779006041048        6.02869807059892
H           19.62878471530940      -19.84828175047887        6.19706495730134
N           21.07946311380149      -20.63203119636667        4.88055908811340
C           22.37457326500274      -20.99677202466001        5.08899667231395
H           22.97193522854931      -21.38163529137095        4.28847338314037
