78
 energy: -116.056792814405 gnorm: 0.000050453600 xtb: 6.7.1 (edcfbbe)
Fe          -1.45321741603951       18.44052780449299        0.11235785834044
N           -3.39760795435353       18.12767565854661        0.53912654286706
N           -1.91575501416894       20.27890032721500       -0.57805801081562
N            0.47429552623823       18.78396030331360       -0.25563744866764
N           -1.00740112599933       16.64634453586792        0.84860526158834
C           -3.94480339644421       16.99852283519458        1.06306058010402
C           -5.37795483513383       17.13568256038537        1.18831583076887
C           -5.68731303475106       18.37524371338447        0.71993158591227
C           -4.43850753365754       18.97776463939972        0.31212691926409
C           -3.15758237654076       20.83479806687474       -0.66123293712587
C           -3.09070262655181       22.14379831492511       -1.25197536963700
C           -1.76793552860954       22.38435289648096       -1.51427579907292
C           -1.05569441413617       21.19185699358626       -1.10422828814346
C            1.00198029342295       19.87491335994505       -0.87399614412311
C            2.42980777976844       19.74235567645321       -1.01160640649630
C            2.76600664120889       18.55481138239253       -0.42132686783994
C            1.51692173277835       17.96093941908815        0.01710437730543
C            0.22634306385482       16.08416248877848        0.92323088346383
C            0.14812660432302       14.74567151223488        1.46950985967019
C           -1.16621789377873       14.51641288419887        1.72688976245201
C           -1.87252365544600       15.71585924371199        1.32843565036603
C           -3.24163948864245       15.86765001379022        1.43389874923908
H           -3.80665620960152       15.04023154652697        1.83489253593594
C           -4.33667094991052       20.23923892940259       -0.24195096257929
H           -5.24873223044720       20.80175334815507       -0.37206375764821
C            0.29816537247455       20.99090000160851       -1.28886915382939
H            0.84911929366581       21.76846518709540       -1.79410224378898
C            1.40936477172901       16.68558499212877        0.54023751830177
H            2.31742908376701       16.11149377172996        0.63876187451823
C           -7.01633623494357       19.04249265863270        0.61708564537078
H           -7.80281557526619       18.39856301337490        1.00271916490247
H           -7.24814621365411       19.28147332438180       -0.42142470728981
H           -7.02471907688509       19.97228160617660        1.18651542270726
C           -6.27833113933037       16.08211869531709        1.73599959562289
H           -5.99822109261819       15.83305547727291        2.75975129615863
H           -6.21202547411681       15.17313787789542        1.13770751831217
H           -7.31263188820855       16.41749374477836        1.73603174092185
C           -4.25567139051905       23.04799737826117       -1.46580683658384
H           -4.71180995104467       23.32051922403208       -0.51326073221111
H           -5.01703973896429       22.55941940349528       -2.07487829882368
H           -3.94323016646631       23.96127286394569       -1.96573639748494
C           -1.20118402566453       23.59429234924752       -2.07497466454782
H           -1.79074720693109       24.06217063613390       -2.85657202309622
C           -0.07298064243071       24.17537558144626       -1.68399935014967
H            0.28339534234930       25.08163812217748       -2.14510263259597
H            0.52203327605328       23.78370775610425       -0.87654116750734
C            3.32890370880559       20.76199623085025       -1.62028051774471
H            3.33820389049122       21.67275000673035       -1.02033926330964
H            2.99061804051788       21.02374394515497       -2.62300712471375
H            4.34736944812405       20.38651746193808       -1.68121166750093
C            4.09858742054663       18.00972646802522       -0.26140066811655
H            4.77170767537484       18.17933890505552       -1.09545822766831
C            4.55202512935238       17.37851478438846        0.81556958224383
H            3.94235413581392       17.23561055320849        1.69138817557950
H            5.56189819994551       17.00623466746665        0.86789143229133
C            1.32491025965871       13.85795186249085        1.68754895303568
H            2.02582080455126       14.31747048972648        2.38453389165070
H            1.85102846515192       13.67989095741319        0.74939642144199
H            1.01615416717915       12.89844815185200        2.09520051384065
C           -1.82050090956102       13.30628459684777        2.30021258433259
H           -1.08534477539940       12.53480820967794        2.51555686208075
H           -2.55195587354143       12.89835681142996        1.60206300276090
H           -2.33892146477723       13.55375106218158        3.22681673475751
O           -1.30016723209018       19.41378889924896        2.18483524647143
H           -2.17081253135823       19.18614265561900        2.52891062440090
H           -1.32978855400607       20.34275629610025        1.93120119153041
C           -0.89063973186596       15.63888722061326       -4.67411294525680
H           -0.71751640936446       16.21429859435991       -5.58344941127322
H           -1.61574438332986       14.85667747772824       -4.89861611431804
H            0.04260564766800       15.17273944860139       -4.37429582920407
N           -2.54174892312015       17.23788930490302       -3.67985082893646
H           -3.16050821478718       17.25154305786240       -4.47388394800550
C           -1.38150797027302       16.51548072513216       -3.58083485598204
C           -2.69724021378010       17.92319282807723       -2.52472547584114
H           -3.52134848382249       18.57453323148018       -2.31959923052205
N           -1.70718953442297       17.67872956406038       -1.70123305666639
C           -0.88038610738781       16.80444510996061       -2.34396180742365
H            0.01295103934057       16.44461830223461       -1.87654021796326
