87
 energy: -124.720517679855 gnorm: 0.000180305585 xtb: 6.7.1 (edcfbbe)
Fe          11.10649869638973       24.00641121149593        1.95929566669652
N           11.55952515632053       25.94262597285011        2.14085283226599
N           12.38149966098642       23.85430594259211        0.42165875395973
N           10.65772477582639       22.05706243744854        1.77251804415147
N            9.89109295705163       24.13470455836974        3.54823185313414
C           11.06026932283076       26.81329065668714        3.05557964665695
C           11.58907074714315       28.14307910909011        2.83807489831245
C           12.42328602500612       28.05091730192097        1.76958540508903
C           12.39310364935857       26.66599579948873        1.35104080501016
C           13.14564673874892       24.84550024317810       -0.10760904785605
C           13.96377022098018       24.33953976126521       -1.18751252608803
C           13.67335260420236       23.01531493785335       -1.29731489135124
C           12.68319523642542       22.73222345305184       -0.28246127184024
C           11.17240030941049       21.18207927072810        0.87206392378663
C           10.58516811473464       19.86736870517793        1.04115217419801
C            9.72212775711039       19.97279733740966        2.09995640633925
C            9.79432933804841       21.34058884672274        2.54489262766866
C            9.16082545508081       23.13255255391580        4.10172474200976
C            8.41481966598450       23.61513858339409        5.24789019268435
C            8.73507519580976       24.94115408024559        5.37293631064398
C            9.65204997241368       25.23925843636581        4.30288327267387
C           10.18278547429802       26.49642947637664        4.07137344444899
H            9.88053317599372       27.29345247814559        4.73319967856214
C           13.14487375246673       26.16524189730884        0.30505046559118
H           13.78281141226108       26.85430754761609       -0.22732204552100
C           12.11676926347241       21.48659142640369       -0.09107640704252
H           12.43728584881195       20.69118451081908       -0.74617698380178
C            9.08875494912050       21.83653961343303        3.62842572747889
H            8.43254843774216       21.15365119864917        4.14608320805735
C           11.23975076876220       29.33258597134267        3.66483276303777
H           11.51707795559522       29.17081994308114        4.70694217916011
H           10.16712701957962       29.52266315249693        3.62602586952684
H           11.75776009407730       30.21888676550854        3.30662506872343
C           13.23331574766936       29.11212290502766        1.10692070555433
H           12.95154303032174       29.20800937953814        0.05828447936968
H           14.29600093992511       28.87065975530700        1.15043847934345
H           13.08157240544975       30.07348204233467        1.59141471215861
C            8.30482793897319       25.90166539937793        6.42588168693132
H            7.49029187237322       26.53344302597811        6.06744103210021
H            9.13060450848698       26.54939126103207        6.71629084130379
H            7.95902987486010       25.36176293887360        7.30514985294708
C            7.54681395283458       22.80088957411025        6.06902721634302
H            7.84213403251814       21.76348239176233        6.17845461499215
C            6.44000949040188       23.22041768984689        6.67373465440450
H            6.07188021744239       24.22528984414678        6.56225065806867
H            5.84656722333556       22.55984918712688        7.28392163106360
C            8.91372544465968       18.90120684481151        2.74428763556711
H            7.87467090749138       18.94228199893053        2.41238732024912
H            8.92400362120489       19.00782564768694        3.82814604874829
H            9.31791855368497       17.92412787887477        2.48749923432145
C           10.90965434874271       18.70901190969990        0.23878288734156
H           11.93321808841056       18.65508481002348       -0.11397827948299
C           10.06273244956876       17.74032854627339       -0.09418186001622
H            9.02409367771342       17.76506548864315        0.18631852097622
H           10.37661274778782       16.89654901302127       -0.68613226976396
C           14.21798715553039       22.00439834300043       -2.24686936658023
H           14.95123688597817       22.45376334354194       -2.91218907788604
H           13.41836637029374       21.58022724758753       -2.85484127726345
H           14.69926747975687       21.18931399400849       -1.70571491119963
C           14.91084477674472       25.16938694095813       -1.98489300989691
H           15.41583944295831       24.56615629201111       -2.73529837712836
H           15.66701496253598       25.61828834521335       -1.34000153862773
H           14.38002376634951       25.97492619912282       -2.49319348884091
C           14.33076396014442       21.80927575805569        5.94959626851788
H           14.65360788945740       22.46149224553381        6.76104525437565
H           15.18172726687552       21.20179812432701        5.64146490100554
H           13.55058716642868       21.15224078750192        6.32086908924191
N           14.57514476068161       23.52401451769079        4.14058719249924
H           15.53519230248168       23.74936889777737        4.34345725231905
C           13.80973308683101       22.60472682427544        4.80928317503685
C           13.80826466648216       24.06627359751143        3.16838990000457
H           14.14587884097698       24.81799485054398        2.48539676063908
N           12.60534474453488       23.54661879740593        3.18076284183051
C           12.59054509187168       22.63621553875625        4.19543395593813
H           11.71088230519080       22.06827835632313        4.41555395744480
C           10.16754372097278       24.58732631025285       -2.11443616789273
H           10.25968769887318       24.03271232132717       -3.04614759224423
H           11.16262131983459       24.83584655755856       -1.75768981015269
H            9.62917974161988       25.51239116039898       -2.30658357606261
C            9.43214794399691       23.75283899709775       -1.08389473221135
H            9.95267051632011       22.81673650904203       -0.88892155803527
H            8.41213299948331       23.54867056069157       -1.40955849848683
S            9.30663894256914       24.67312763973266        0.50405068999390
C            7.79663491884715       23.87727596178221        1.13309526314184
H            7.95283297733842       22.80678327803171        1.22002567160367
H            6.97246143821859       24.09898136730633        0.46007630764744
H            7.60006403391296       24.29933962278713        2.11238191237872
