87
 energy: -124.400078787263 gnorm: 0.368206986811 xtb: 6.7.1 (edcfbbe)
Fe          11.14000000000000       24.00400000000000        1.93800000000000
N           11.60400000000000       25.93300000000000        2.15700000000000
N           12.38300000000000       23.86400000000000        0.41600000000000
N           10.67600000000000       22.08300000000000        1.73500000000000
N            9.91300000000000       24.11700000000000        3.48100000000000
C           11.15900000000000       26.79200000000000        3.13200000000000
C           11.70800000000000       28.12200000000000        2.93300000000000
C           12.44900000000000       28.06300000000000        1.79700000000000
C           12.40600000000000       26.69900000000000        1.34500000000000
C           13.10300000000000       24.85800000000000       -0.15800000000000
C           13.94000000000000       24.32700000000000       -1.23700000000000
C           13.68300000000000       23.00500000000000       -1.33100000000000
C           12.72900000000000       22.72000000000000       -0.27500000000000
C           11.23200000000000       21.15700000000000        0.89700000000000
C           10.69500000000000       19.85000000000000        1.12500000000000
C            9.81900000000000       19.93600000000000        2.13000000000000
C            9.77900000000000       21.33000000000000        2.50400000000000
C            9.08500000000000       23.13300000000000        3.98900000000000
C            8.34000000000000       23.61700000000000        5.13500000000000
C            8.74900000000000       24.89300000000000        5.34600000000000
C            9.68500000000000       25.20499999999999        4.29100000000000
C           10.28500000000000       26.45000000000000        4.14400000000000
H           10.04700000000000       27.21400000000000        4.88400000000000
C           13.08000000000000       26.19900000000000        0.23400000000000
H           13.63400000000000       26.91000000000000       -0.37900000000000
C           12.19900000000000       21.45500000000000       -0.04300000000000
H           12.57700000000000       20.63300000000000       -0.65200000000000
C            9.03800000000000       21.82800000000000        3.52800000000000
H            8.35100000000000       21.14500000000000        4.02700000000000
C           11.45600000000000       29.28400000000000        3.83500000000000
H           11.81000000000000       28.79600000000000        4.76800000000000
H           10.34700000000000       29.23200000000000        3.80000000000000
H           11.78700000000000       30.34500000000000        3.83500000000000
C           13.21900000000000       29.18500000000000        1.12900000000000
H           12.72200000000000       29.11100000000000        0.13800000000000
H           14.18900000000000       28.64500000000000        1.08600000000000
H           13.39100000000000       30.25700000000000        1.36700000000000
C            8.38200000000000       25.85000000000000        6.44400000000000
H            7.31400000000000       25.75700000000000        6.15300000000000
H            8.56000000000000       26.87300000000000        6.83900000000000
H            8.60900000000000       25.09500000000000        7.22700000000000
C            7.36400000000000       22.79400000000000        5.92200000000000
H            7.67300000000000       22.29100000000000        6.84800000000000
C            5.93700000000000       23.39699999999999        5.93700000000000
H            5.54200000000000       23.92000000000000        5.05300000000000
H            5.30300000000000       23.30900000000000        6.83200000000000
C            9.04600000000000       18.84900000000000        2.83100000000000
H            8.02300000000000       19.22900000000000        2.62400000000000
H            9.34100000000000       19.15000000000000        3.85900000000000
H            9.04300000000000       17.74100000000000        2.74500000000000
C           11.21900000000000       18.57800000000000        0.47400000000000
H           12.27100000000000       18.57100000000000        0.25200000000000
C           10.05600000000000       17.73900000000000       -0.13500000000000
H            9.02300000000000       17.87900000000000        0.21700000000000
H           10.25500000000000       16.99800000000000       -0.92300000000000
C           14.18600000000000       21.96400000000000       -2.27300000000000
H           13.93800000000000       22.65900000000000       -3.10400000000000
H           14.05700000000000       20.91900000000000       -2.62700000000000
H           15.24000000000000       22.13300000000000       -1.96500000000000
C           14.80900000000000       25.22100000000000       -2.07100000000000
H           14.29200000000000       24.86700000000000       -2.98800000000000
H           15.68100000000000       24.56200000000000       -1.87200000000000
H           15.15100000000000       26.26600000000000       -2.23100000000000
C           14.33000000000000       22.02100000000000        6.12200000000000
H           14.80600000000000       22.79500000000000        6.76100000000000
H           15.08900000000000       21.25300000000000        5.86000000000000
H           13.49500000000000       21.55200000000000        6.68600000000000
N           14.60600000000000       23.31300000000000        4.00000000000000
H           15.59500000000000       23.41100000000000        4.10800000000000
C           13.79900000000000       22.66200000000000        4.86600000000000
C           13.86600000000000       23.79800000000000        2.98700000000000
H           14.26900000000000       24.37700000000000        2.15700000000000
N           12.61100000000000       23.46100000000000        3.17100000000000
C           12.55800000000000       22.73200000000000        4.32900000000000
H           11.61900000000000       22.31900000000000        4.67500000000000
C           10.18500000000000       23.95700000000000       -2.06600000000000
H           10.02600000000000       23.23200000000000       -2.89300000000000
H           11.25300000000000       23.92100000000000       -1.76200000000000
H            9.93500000000000       24.97500000000000       -2.43400000000000
C            9.30700000000000       23.60600000000000       -0.89500000000000
H            9.56800000000000       22.58400000000000       -0.54800000000000
H            8.24900000000000       23.60000000000000       -1.23200000000000
S            9.50500000000000       24.77900000000000        0.46600000000000
C            7.87800000000000       24.65000000000000        1.21900000000000
H            7.67100000000000       23.61200000000000        1.55700000000000
H            7.09300000000000       24.93600000000000        0.48700000000000
H            7.81000000000000       25.31900000000000        2.10300000000000
87
 energy: -124.557918627760 gnorm: 0.214567516361 xtb: 6.7.1 (edcfbbe)
Fe          11.12949672241555       24.00063795168136        1.94148711987505
N           11.61116930973140       25.94065351988176        2.15927173495235
N           12.37855438052120       23.85841353365894        0.42800719717259
N           10.66906469116510       22.06390264047725        1.73554195568618
N            9.90320743871413       24.11493295807044        3.48407911690461
C           11.16473725318293       26.79479934378528        3.12837230257799
C           11.71219350098895       28.12485938381040        2.91848652204353
C           12.45284530487514       28.06814384982077        1.79854019307541
C           12.40277602785988       26.69807397919718        1.33975321473922
C           13.09355414106604       24.86052095752596       -0.14055887107830
C           13.91239319724110       24.34433893010507       -1.21144742937013
C           13.65797008064800       23.00753637151289       -1.29865918277155
C           12.71386713866650       22.72034779643511       -0.25710918391653
C           11.24283145508719       21.15132650729118        0.89992587695456
C           10.71904464532421       19.82498829870798        1.12127280761052
C            9.82367457576256       19.92680613848503        2.12471431004492
C            9.78511713575403       21.32405291278111        2.50115251545488
C            9.08625325596947       23.13495343868193        3.99088992216990
C            8.33603559310991       23.61774623693710        5.13109845596064
C            8.76922297581807       24.90124178545474        5.32868736835289
C            9.70216026985608       25.20222792974909        4.28456640161535
C           10.29339608449084       26.44872759985840        4.14108560248638
H           10.04555559863101       27.20738405473639        4.87781623817596
C           13.07636475971595       26.19749537120467        0.23670536868321
H           13.63501461054593       26.90091751203512       -0.37379787253175
C           12.20044393816823       21.45600314863132       -0.04200126460881
H           12.57656320058787       20.64180991427299       -0.65306751373867
C            9.03071099786593       21.83084827199966        3.52946652620072
H            8.34962420906919       21.15165581551824        4.03156876615493
C           11.43504188584207       29.26279289238862        3.83189231383128
H           11.78759401451840       28.82121661641871        4.78071805676536
H           10.33839626467932       29.25860960421627        3.82748587453771
H           11.79497450927759       30.30329945258622        3.86196072054948
C           13.22789125564634       29.15427839348661        1.10175754430583
H           12.74778725250974       29.12915409478645        0.11589761577707
H           14.21030997958539       28.66986321680166        1.05734898687226
H           13.36092507419543       30.21134593748988        1.39441629254499
C            8.34971552131003       25.81273704200374        6.45101690263941
H            7.28194588262926       25.77261150560874        6.20494114852375
H            8.58837002660682       26.83880969575504        6.78534862941610
H            8.57860018404334       25.11560264330076        7.26741118401693
C            7.31682347009870       22.88242135900370        5.93979370220722
H            7.65277774121464       22.30425901063508        6.81701772465364
C            5.98988834321867       23.38087959577210        5.94266631879061
H            5.57566841368474       23.90729239302694        5.07763643495951
H            5.32468178299370       23.27880655794714        6.80449589760939
C            9.03066286359853       18.87887888471859        2.84901301480297
H            8.00445311306544       19.21159008588768        2.64875214572205
H            9.31189405201980       19.12660057444858        3.87999851248346
H            9.07259315765578       17.78349797226426        2.71996129641089
C           11.14217209917838       18.58419546454416        0.42154212865987
H           12.21826097463705       18.54236281283205        0.23775678099744
C           10.11104887846368       17.76894586655405       -0.11687978811502
H            9.07306429269600       17.89566008380069        0.20894078827075
H           10.27529636905790       17.00951159372886       -0.88540303095493
C           14.21085850940519       22.01237312295549       -2.28564659367178
H           13.97759362876531       22.63889000456055       -3.15652371970834
H           14.02745736945384       20.95862347652831       -2.57189874616371
H           15.26849449255588       22.11702933928540       -2.00867700946351
C           14.81491450585390       25.17177478281024       -2.09313467343168
H           14.33280971896004       24.87656718325077       -3.03426896839280
H           15.71841343545071       24.57310349594610       -1.91909698676022
H           15.10828240532278       26.23453833911725       -2.18314348389574
C           14.32816328784229       22.02229693308436        6.11890501853706
H           14.80127759081087       22.78425568889094        6.75522998726224
H           15.07942331340890       21.26026509391441        5.86702593457138
H           13.50738212136994       21.55687849054422        6.67771824985731
N           14.61385366824405       23.31616774577684        4.00241927699830
H           15.60581793378584       23.41502316422970        4.10911922587545
C           13.80034346784371       22.65501583992349        4.86972501213178
C           13.86457473547854       23.79755148590791        2.98944514160329
H           14.26167620700386       24.37122395047173        2.16619751523177
N           12.60853899314305       23.46119278802707        3.16742967278223
C           12.55334215622463       22.73602434453017        4.32628632389265
H           11.62214763001266       22.32526699703617        4.67224831963334
C           10.18586594717721       23.95936907948377       -2.07092567775966
H           10.02986958263686       23.24070912019731       -2.88676583067704
H           11.23878533856316       23.92587949639698       -1.77219703896759
H            9.94192251682080       24.96617539359058       -2.43307096895187
C            9.30148145668370       23.59474173080893       -0.89998397689252
H            9.56248213154401       22.58845254661840       -0.54446982848236
H            8.25082793422176       23.60080588378452       -1.22327874693127
S            9.49952181972608       24.78253247239734        0.46362045993028
C            7.86622974844279       24.64390079571821        1.22086900973597
H            7.67487377709742       23.61732140924337        1.55623485576736
H            7.09882850822892       24.93640448796148        0.49225402813007
H            7.81626617266217       25.31207581469381        2.09001882305556
87
 energy: -124.638243554767 gnorm: 0.168956542797 xtb: 6.7.1 (edcfbbe)
Fe          11.12440927129719       23.99698985026717        1.94447952417372
N           11.61584393168520       25.95218493395528        2.16291912726149
N           12.37627895726482       23.85288664005503        0.43512505268845
N           10.66083364016125       22.04087565387209        1.73793053935520
N            9.89456149630201       24.11153641899378        3.48954598192725
C           11.16995973418588       26.79818367236325        3.12887877809970
C           11.71596065255232       28.13349360952371        2.92536879148178
C           12.45354141754230       28.08028693909812        1.80601143191113
C           12.39921049005925       26.69918236289890        1.33911200128099
C           13.08797265735310       24.86347119032469       -0.13018583129355
C           13.89141079332192       24.36247139779300       -1.19560588224587
C           13.64041109679350       23.00839986556468       -1.27574806523233
C           12.70328824819830       22.72080433150893       -0.24549270729293
C           11.24881253236383       21.14172886385505        0.90379081153634
C           10.73372623599242       19.79676425960061        1.12135387321866
C            9.82329144279810       19.91796172201844        2.12209523521529
C            9.79329582271505       21.31861722774291        2.49968873212699
C            9.08513521288274       23.13639816132420        3.99096986553974
C            8.32838903012742       23.61780481120503        5.12491257294796
C            8.78184846863456       24.90917333663333        5.31564360544218
C            9.71738562475135       25.19775675743662        4.28255040964893
C           10.30163610598155       26.44688182743013        4.14066993897961
H           10.04349448807419       27.19926104542973        4.87341187743805
C           13.07294682972572       26.19890407344830        0.24182299151437
H           13.63645045882886       26.89295052460322       -0.36678731903480
C           12.20104960582040       21.45286085347248       -0.04044304252404
H           12.57614574965808       20.64806084722228       -0.65430684457748
C            9.02349522659957       21.83300034281455        3.52913552301117
H            8.34815576532115       21.15801286712454        4.03439313504054
C           11.41260065639882       29.23548297824904        3.88278973609787
H           11.77208306552126       28.84155834081779        4.83446387029843
H           10.32784829427158       29.28353789334656        3.86496222943351
H           11.80844508590712       30.25877378952089        3.74595555652160
C           13.23591257401365       29.12265296178639        1.07539414376499
H           12.77509168760160       29.14746222237085        0.09219270711313
H           14.23280584613878       28.69533994395117        1.02623048794108
H           13.32519231511215       30.16197239112776        1.42979356146851
C            8.31299070458257       25.76858982498537        6.45840569612943
H            7.24735559587232       25.78767141206826        6.25928199141338
H            8.62446293950619       26.79841723094805        6.71747180572939
H            8.54562387966921       25.13311207210240        7.30891877064117
C            7.26888391981772       22.97146427033853        5.96062795192029
H            7.64094268480893       22.32649772926420        6.78609353092765
C            6.05195513929956       23.36725883009303        5.94579044246542
H            5.61328075280669       23.91119139549259        5.10653030793983
H            5.34470074942512       23.23321856836771        6.76879939091331
C            9.01474370374169       18.90901041079672        2.86742654558791
H            7.98377004004648       19.19347380382289        2.67529304684167
H            9.28074326142679       19.10245030031301        3.90281361594971
H            9.10833817574305       17.82786192250062        2.68724404930353
C           11.07256618502639       18.58393350206941        0.37595590095080
H           12.16487770759271       18.51503198069864        0.21166998078430
C           10.16864431748716       17.81341188346493       -0.09875581414753
H            9.11784450490689       17.91895027623949        0.19092656398560
H           10.30219774449206       17.02004043506573       -0.83751078019108
C           14.23893509532710       22.06928139377044       -2.29896461215212
H           14.01910270454308       22.62322904454293       -3.20714753446183
H           13.98698926235923       21.00685858919209       -2.50189465594954
H           15.29738178285983       22.10647102758712       -2.05188580566498
C           14.81945860015004       25.11576963724405       -2.11632978182579
H           14.37467631275918       24.88263367822750       -3.08024815105573
H           15.75314296824540       24.58102627660402       -1.96571984679258
H           15.05288664929454       26.19934940609085       -2.12099132383110
C           14.32572602103171       22.02293622228103        6.11571669221533
H           14.79687304467019       22.77573926313961        6.74964646187855
H           15.07149583878539       21.26535745665830        5.87255012174465
H           13.51599541701208       21.56001236219688        6.67026320380839
N           14.62111816825224       23.31934126287596        4.00502197292218
H           15.61549575503709       23.41884756238358        4.11014979821089
C           13.80065337956333       22.64821306057037        4.87289608370087
C           13.86360191233074       23.79693197268363        2.99303906194796
H           14.25470182943323       24.36629084152053        2.17472238501169
N           12.60780281709198       23.46221450428372        3.16542772847325
C           12.55070125505931       22.74024539982867        4.32323754580417
H           11.62601305411477       22.33061181950022        4.67117214938363
C           10.18635697492903       23.96079616661610       -2.07709336509795
H           10.03277423294848       23.24765271044836       -2.88402103819304
H           11.22689684975138       23.93057245256501       -1.78044686899098
H            9.94569042831684       24.95926265158197       -2.43130119575097
C            9.29575835816964       23.58371730673879       -0.90633162174298
H            9.55799378575289       22.59315121865456       -0.54074025426684
H            8.25145509053583       23.60254497422061       -1.21529059983262
S            9.49695969893148       24.78598159531187        0.46348508157031
C            7.85301944096641       24.63841557652798        1.22345792155908
H            7.67908393973396       23.62076101316989        1.55510447130135
H            7.10273348619047       24.93677644704270        0.49622618851913
H            7.82268332764448       25.30673634855844        2.07928439013507
87
 energy: -124.679864857284 gnorm: 0.059012169012 xtb: 6.7.1 (edcfbbe)
Fe          11.12185649928063       23.99531876036823        1.94631713919137
N           11.61870485675703       25.95141141172465        2.16541754106838
N           12.37518325817993       23.85158891375391        0.44200421666939
N           10.66010816641259       22.03548450187073        1.74445033532140
N            9.89499118231204       24.11207205900799        3.49031343503948
C           11.17589715921541       26.79541827986494        3.12972312966818
C           11.71455200780347       28.13208130172028        2.92721356505670
C           12.45653431237200       28.07781339445480        1.80417746518961
C           12.39657904428231       26.69668415108685        1.34010114621394
C           13.08583998904991       24.86303017388332       -0.12642277815757
C           13.88610392683183       24.36435519253765       -1.19861303622061
C           13.63995028068692       23.01466441010494       -1.27489935613970
C           12.70173028023474       22.72211555296292       -0.24171752800625
C           11.25263204579729       21.14067354631826        0.91325761628163
C           10.73688774219857       19.80207107318085        1.13729455318085
C            9.82092186290517       19.92169404652835        2.13388625337946
C            9.79494158556840       21.31985789324549        2.50666452374851
C            9.08406840253578       23.13979728801475        3.98725088844189
C            8.33947876218597       23.62758562722260        5.11939646734733
C            8.77897393155128       24.91412049988031        5.31419087868812
C            9.72634402086531       25.19712061013397        4.28663725925950
C           10.31136970757529       26.44431214568545        4.14244365023729
H           10.04355157200297       27.19534149922798        4.87019622346315
C           13.07026925550562       26.19799065693047        0.24608866020699
H           13.64137420892181       26.88583855107443       -0.35959103813972
C           12.20128443309582       21.45170689111459       -0.03454930817003
H           12.57511843810928       20.65263292853232       -0.65532576983120
C            9.01832226640379       21.83654692954160        3.52933512655299
H            8.34313900162165       21.16563084979499        4.03901350107225
C           11.39968558163546       29.22059136129131        3.89655813522273
H           11.74878040052715       28.87026997408369        4.86848610010441
H           10.31351708192599       29.31181664917296        3.90731672918549
H           11.82669909522373       30.21823462703451        3.70111068130380
C           13.24212741491001       29.10160054511232        1.05884752099563
H           12.80782476442764       29.16453563520590        0.06052291338492
H           14.26167235435429       28.71972472292234        0.98744375225424
H           13.28708386789687       30.12159934656928        1.47284014599037
C            8.29097749675580       25.74529161210654        6.46135218846600
H            7.20899532562632       25.80044060238500        6.32211362016559
H            8.66504717806735       26.77224784273755        6.64874090633075
H            8.50395912946255       25.15086059751856        7.35338481261752
C            7.31398769189293       23.00559503712407        5.98206407551938
H            7.66899601867647       22.35274531244950        6.78954939440309
C            6.02111186955182       23.35259110396606        5.93429176377621
H            5.62367205018989       23.95242582379035        5.12073570718190
H            5.31707722017811       23.16417462182228        6.74107981288328
C            9.00339825643768       18.92670343054384        2.88001049458161
H            7.95579539709879       19.17497928483479        2.70741703973514
H            9.24109849194181       19.07688180311554        3.93444225012500
H            9.14735837138369       17.86157277666948        2.64698484847587
C           11.08271652133448       18.62503532117101        0.35879058287561
H           12.15633320511612       18.51706557916856        0.17107271347832
C           10.15664778974093       17.77813954146107       -0.09944477880111
H            9.11203334707167       17.93361625788274        0.15603991977510
H           10.32585329669798       16.97789808180569       -0.80685756939434
C           14.25430856260660       22.10638706082019       -2.30291108598954
H           14.07012047522398       22.61165638008004       -3.25717429898071
H           13.94140529104008       21.04602253869434       -2.42906324268021
H           15.32922477929527       22.10349408536079       -2.10152317086262
C           14.81885138793005       25.08198336764121       -2.12861211454702
H           14.42446750764666       24.88256674775287       -3.13010749780692
H           15.78595646066057       24.58338609552430       -2.02027783668665
H           14.99753352557849       26.17539473965255       -2.05664123200206
C           14.32393105653319       22.02208267095320        6.11263657906515
H           14.79460663559958       22.77210317587934        6.74773121777411
H           15.06861808799326       21.26363010751067        5.87557386330085
H           13.51564901419812       21.55889160919197        6.66611752417088
N           14.62428851784774       23.32154985001917        4.00685817319565
H           15.61998431248626       23.42289954865285        4.11194953257367
C           13.80123608242776       22.64685569661558        4.87101848224061
C           13.86417945395695       23.79762293685141        2.99631297372495
H           14.25179487787013       24.36663571577425        2.17835662376708
N           12.60851888670698       23.46373199019967        3.16545569806942
C           12.55197384066461       22.74317713711289        4.32221326970675
H           11.62698563972209       22.33630568088557        4.67244156622603
C           10.18098108673627       23.96086097478806       -2.08077161311188
H           10.03307068653928       23.25085366790744       -2.88973071527347
H           11.22142718252237       23.93598390007661       -1.78748439504177
H            9.94370078424894       24.95968282899175       -2.43287391662198
C            9.29168933079186       23.58053781127737       -0.90952282130322
H            9.55339769535102       22.59356771730516       -0.53566622165053
H            8.24542306665574       23.60350533098195       -1.20828988961869
S            9.49463775328630       24.78696102963116        0.46059562395498
C            7.84869146913107       24.63427811430947        1.22165379047993
H            7.68174581665887       23.61676836408273        1.55525102172802
H            7.10002342819542       24.93717789388464        0.49627511609213
H            7.82941988550602       25.30484859987786        2.07406047485715
87
 energy: -124.696874138096 gnorm: 0.048650659782 xtb: 6.7.1 (edcfbbe)
Fe          11.12398540269209       23.99233577443602        1.94853024819207
N           11.61991876433562       25.94544357682122        2.16926613211000
N           12.37903102455608       23.84826145777332        0.44014102014910
N           10.66464603323947       22.03039902260102        1.75304397594921
N            9.89551202387039       24.11392765761801        3.49820410216660
C           11.18090312786815       26.78832492747312        3.13263037885445
C           11.71261262485828       28.12648973431031        2.92988655379164
C           12.45913392590544       28.07075519511852        1.80242729584381
C           12.39483456397419       26.68925302838196        1.34395098194832
C           13.08854404339649       24.86170262635914       -0.13112848346826
C           13.88825363077636       24.36302711001741       -1.21109218310525
C           13.64659049626992       23.01691676302121       -1.28340702358017
C           12.70552388112011       22.71823753435614       -0.24502604969128
C           11.25720906286413       21.13446561396644        0.92473482161499
C           10.72887708017007       19.80004596596901        1.14832320373041
C            9.80994427975654       19.92579683524989        2.14617582075357
C            9.79712178564878       21.32223029382985        2.51552511066448
C            9.07948186696062       23.14252185125055        3.98850229653701
C            8.33208973716193       23.63259694814209        5.11573792250295
C            8.76630465606590       24.91456684033928        5.32389206853184
C            9.72670915310320       25.19752909934472        4.29809889403605
C           10.31788110851758       26.44055051862114        4.14837682659036
H           10.04526798582084       27.19282563513773        4.87086922245833
C           13.07054358140504       26.19441971598147        0.25007628089533
H           13.64877880350818       26.87979732816787       -0.34976797369360
C           12.20362585641798       21.44666069631164       -0.02773778247574
H           12.57429590663478       20.65164598811528       -0.65464679585882
C            9.01226940497350       21.84070443265753        3.53098139451607
H            8.33320411558440       21.17481783402199        4.04125931547418
C           11.39312656914310       29.21279102410866        3.89666417764110
H           11.73477286523707       28.90944567134802        4.88846293450126