79
 energy: -119.912965307643 gnorm: 0.387892916938 xtb: 6.7.1 (edcfbbe)
Fe          -0.63000000000000       27.02199999999999       15.30100000000000
N           -1.97900000000000       28.32500000000000       15.93700000000000
N           -2.14200000000000       25.71200000000000       14.82400000000000
N            0.74600000000000       25.75000000000000       14.69800000000000
N            0.79900000000000       28.29300000000000       15.74700000000000
C           -1.71600000000000       29.62700000000000       16.50800000000000
C           -3.06100000000000       30.23800000000000       16.76400000000000
C           -4.02900000000000       29.38400000000000       16.46600000000000
C           -3.36400000000000       28.18300000000000       15.94300000000000
C           -3.49200000000000       25.85600000000000       14.94900000000000
C           -4.17700000000000       24.76500000000000       14.50700000000000
C           -3.29200000000000       23.79300000000000       14.13600000000000
C           -1.96000000000000       24.44000000000000       14.29900000000000
C            0.58300000000000       24.40900000000000       14.26800000000000
C            1.74100000000000       23.69400000000000       14.12400000000000
C            2.72200000000000       24.53800000000000       14.45600000000000
C            2.09500000000000       25.80800000000000       14.80200000000000
C            2.14000000000000       28.15400000000000       15.69000000000000
C            2.84900000000000       29.24800000000000       16.20400000000000
C            1.92300000000000       30.11900000000000       16.68000000000000
C            0.74400000000000       29.54000000000000       16.39300000000000
C           -0.49200000000000       30.10800000000000       16.70000000000000
H           -0.44800000000000       31.09100000000000       17.16600000000000
C           -4.09300000000000       27.03900000000000       15.49800000000000
H           -5.18000000000000       27.06500000000000       15.58100000000000
C           -0.73700000000000       23.82900000000000       14.04100000000000
H           -0.76800000000000       22.82000000000000       13.63000000000000
C            2.76300000000000       26.95900000000000       15.22000000000000
H            3.85200000000000       26.94500000000000       15.18500000000000
C           -5.56800000000000       29.52700000000000       16.57800000000000
H           -5.81900000000000       30.53200000000000       16.97900000000000
H           -5.96800000000000       28.75300000000000       17.26800000000000
H           -6.02900000000000       29.41500000000000       15.57400000000000
C           -3.22900000000000       31.64700000000000       17.25700000000000
H           -2.30400000000000       32.22600000000000       17.04700000000000
H           -3.41000000000000       31.64200000000000       18.35300000000000
H           -4.08200000000000       32.12900000000000       16.73300000000000
C           -5.73000000000000       24.59400000000000       14.50600000000000
H           -6.20800000000000       25.55200000000000       14.21000000000000
H           -6.07800000000000       24.31700000000000       15.52400000000000
H           -6.02000000000000       23.80700000000000       13.77800000000000
C           -3.44300000000000       22.44000000000000       13.65900000000000
H           -2.74600000000000       22.06300000000000       12.89700000000000
C           -4.35100000000000       21.62900000000000       14.06900000000000
H           -5.07900000000000       21.94500000000000       14.83000000000000
H           -4.41200000000000       20.60800000000000       13.66400000000000
C            1.87100000000000       22.21100000000000       13.64900000000000
H            1.03900000000000       21.97000000000000       12.95300000000000
H            1.81600000000000       21.53000000000000       14.52500000000000
H            2.83700000000000       22.07000000000000       13.11800000000000
C            4.24000000000000       24.36500000000000       14.63600000000000
H            4.81600000000000       25.20200000000000       15.05500000000000
C            4.90000000000000       23.31700000000000       14.33600000000000
H            4.39100000000000       22.43900000000000       13.91200000000000
H            5.98700000000000       23.27700000000000       14.49700000000000
C            4.40200000000000       29.38200000000000       16.25200000000000
H            4.82500000000000       29.15400000000000       15.25000000000000
H            4.81800000000000       28.66400000000000       16.99100000000000
H            4.68100000000000       30.42000000000000       16.53300000000000
C            2.21400000000000       31.39900000000000       17.48600000000000
H            2.16200000000000       32.28100000000000       16.81300000000000
H            3.23200000000000       31.34200000000000       17.92700000000000
H            1.45700000000000       31.51600000000000       18.29100000000000
C            0.09300000000000       28.48000000000000        9.82200000000000
H            0.59900000000000       29.46099999999999        9.70100000000000
H           -0.77400000000000       28.43400000000000        9.12900000000000
H            0.81500000000000       27.67000000000000        9.58200000000000
N           -1.28000000000000       29.22800000000000       11.77700000000000
H           -1.70500000000000       29.98500000000000       11.28000000000000
C           -0.38200000000000       28.33300000000000       11.23800000000000
C           -1.47500000000000       28.91200000000000       13.04600000000000
H           -2.14500000000000       29.46800000000000       13.70200000000000
N           -0.76600000000000       27.86400000000000       13.39000000000000
C           -0.06300000000000       27.52600000000000       12.28100000000000
H            0.63900000000000       26.70200000000000       12.32500000000000
H           -0.26800000000000       27.19700000000000       17.14000000000000
O           -0.57200000000000       26.29400000000000       17.00100000000000
O            0.50700000000000       25.62700000000000       17.39300000000000
H            0.80800000000000       25.28500000000000       16.54500000000000
79
 energy: -119.996511971751 gnorm: 0.167569195958 xtb: 6.7.1 (edcfbbe)
Fe          -0.63909224873276       27.03225792978386       15.26039835775841
N           -2.00357470699717       28.32122082783301       15.94681533310902
N           -2.13632136295667       25.71196729038520       14.82067507629216
N            0.74293366119694       25.71282649029926       14.69667337920960
N            0.81236531896353       28.30056873407180       15.77234960490998
C           -1.76057045144229       29.60315034016364       16.49052766339257
C           -3.05897472162753       30.23980381937008       16.76386653602407
C           -4.03447397520102       29.36487968917227       16.45571377364436
C           -3.36722943035465       28.16748842316370       15.94057670721739
C           -3.48169956379273       25.88168467118522       14.95531143521098
C           -4.19208402498108       24.74897928353602       14.51600168937229
C           -3.27440740630791       23.80502744357176       14.12643863399031
C           -1.96044208527524       24.45065247532309       14.30493870414650
C            0.54108077271582       24.40297769932738       14.26063899477828
C            1.74832943513645       23.68780362474833       14.11483333147553
C            2.75018654794359       24.55451671966659       14.46708600701152
C            2.10310492886186       25.81239566200535       14.80164196574461
C            2.15983900048716       28.13391289687867       15.67671585205553
C            2.88105415331651       29.24053283072254       16.20428148779279
C            1.94319853184736       30.11994059175205       16.69033314456729
C            0.70976471764546       29.53778871026429       16.39712474743400
C           -0.52094706492596       30.11482507672548       16.69998047145345
H           -0.46281716587378       31.09429027717687       17.16579918674605
C           -4.06951442513217       27.04549132166250       15.49457043168992
H           -5.15263264660692       27.06646507733068       15.57933650605642
C           -0.74451823877016       23.84471080077352       14.04289309891338
H           -0.76883099310443       22.83584620018696       13.64327828949337
C            2.76741410579241       26.95996821113472       15.20783031713770
H            3.84830937234073       26.94740003722812       15.18834574347572
C           -5.54366391333517       29.52514371244412       16.57464277045872
H           -5.80624260694844       30.51361323295880       16.97226145166632
H           -5.95475921676609       28.76571240513780       17.25241373899822
H           -6.01767507471856       29.41340369273054       15.59112541130144
C           -3.22247319783840       31.64444167115897       17.25739636630922
H           -2.31703966973467       32.22628131697805       17.05349574030859
H           -3.40845819090561       31.64950487752744       18.33919887824142
H           -4.06784988123838       32.12479414012003       16.74814438135834
C           -5.71242355214138       24.59709921252804       14.50507123793862
H           -6.19633802322189       25.53791737612015       14.21488640934163
H           -6.06992604032381       24.32100888892387       15.50562491208380
H           -6.00977490313904       23.82012571383240       13.79178903436272
C           -3.43496985003792       22.45165567394731       13.64686747320848
H           -2.73391312362468       22.08136231251743       12.90007757211808
C           -4.36699258756550       21.61895976376091       14.07089051936546
H           -5.07953121912398       21.92381255126662       14.82819747934470
H           -4.42728032151638       20.60981502568422       13.67826828054400
C            1.86285984649423       22.23399674102928       13.65362498061423
H            1.04930771773791       21.97803667689008       12.96562765301862
H            1.81779025442957       21.54930087617270       14.51126856200007
H            2.80720876535680       22.07533416737181       13.12331720189770
C            4.21997767407470       24.38087839401999       14.63278252294723
H            4.78157111504378       25.21240149261652       15.05345690149164
C            4.90721940354634       23.30056793383904       14.33014012083040
H            4.42221580883710       22.42854191572761       13.91784184709034
H            5.97946656671949       23.26228963486831       14.49102908280030
C            4.39244525318349       29.37706951311355       16.24826546617059
H            4.81925746998746       29.15646431861307       15.26321165502804
H            4.81212816654831       28.67525806623819       16.97959967408082
H            4.67357982383346       30.39853873373058       16.52805699596875
C            2.20984124357059       31.38972884564892       17.47392228257581
H            2.16153786653044       32.27022379902103       16.82031679682316
H            3.20991579112778       31.34228063740924       17.91919677952294
H            1.47176803049090       31.51254306566335       18.27636119576162
C            0.09311733888477       28.47924913682795        9.82732748374708
H            0.59423090706939       29.44708274179627        9.69725375716870
H           -0.75801547584719       28.43255731558241        9.13570637729217
H            0.80182561018337       27.68126808227859        9.58466731303798
N           -1.28190097730531       29.23213063158034       11.76729451091493
H           -1.70991136297625       29.99105343243022       11.26934544547319
C           -0.37528628537199       28.34293127351633       11.23673800056115
C           -1.47936292805503       28.91321726566652       13.04947089155522
H           -2.14143093582836       29.45886266700413       13.70085277237559
N           -0.75885245325907       27.87350407016016       13.38901715639327
C           -0.06039397225105       27.52065681067261       12.27771652361111
H            0.63283445550850       26.70072589691678       12.31873938813071
H           -0.28762357497577       27.22826576835672       17.17237575405706
O           -0.59215198686329       26.31979893115718       17.02906232838991
O            0.52619913868722       25.59821889371310       17.40941232710856
H            0.82849304290233       25.25799754728763       16.55067212450806
79
 energy: -120.023019734818 gnorm: 0.046718154086 xtb: 6.7.1 (edcfbbe)
Fe          -0.65300492736748       27.03285559080361       15.23101807127511
N           -2.02337643950497       28.33491981136887       15.94000991259093
N           -2.12938676837353       25.71782954496765       14.79999196772825
N            0.74412297678506       25.68339710986198       14.68343968077581
N            0.81865535354869       28.31311328085082       15.78694315683845
C           -1.79321585685167       29.58072360522935       16.47043542998113
C           -3.05295540937620       30.23783474522564       16.75863307215740
C           -4.03654315418904       29.35094905179373       16.44570413409862
C           -3.37019597940293       28.16332447438580       15.93211645014325
C           -3.46840642881905       25.90194428551342       14.95497554671737
C           -4.19766567375373       24.73604564492008       14.52507602373571
C           -3.25632498472812       23.81757436275288       14.12463275564777
C           -1.95878112363709       24.46639145006367       14.29891163973621
C            0.51784305381189       24.40197514399918       14.25247543010349
C            1.75741606969321       23.68653083491593       14.10220860078989
C            2.76720282856416       24.56133825179488       14.46902608510129
C            2.10522846588690       25.81196490607783       14.79683525292579
C            2.16523254980606       28.12038736440508       15.66588964305631
C            2.89335251961956       29.23895784942834       16.20501128675936
C            1.95472156127461       30.11248520520837       16.69574660525979
C            0.67991298247775       29.53029665698327       16.39974616420041
C           -0.54239240467524       30.11734691600569       16.70044870647586
H           -0.48116810528036       31.09378687131064       17.16225017412805
C           -4.04862349895831       27.04673832122802       15.48716797754787
H           -5.12775132766502       27.06182760523892       15.57335585494044
C           -0.74252337151860       23.86031214266778       14.04173219378390
H           -0.76863328394993       22.84834656592396       13.66037565213568
C            2.76175808621034       26.96212878320186       15.19940826696094
H            3.83917997456615       26.95329067411632       15.18973464289364
C           -5.51878248448327       29.51929293178405       16.57003677854920
H           -5.77663811923813       30.49953422416064       16.96639669662753
H           -5.93709368811436       28.76908654796612       17.24125837871231
H           -6.00414397250583       29.40881186958105       15.59962205746797
C           -3.21560942359547       31.63700934767440       17.25724871572210
H           -2.32395616217545       32.22368505551537       17.05818075744081
H           -3.40455164551951       31.64887354224215       18.33057805898323
H           -4.05791909268544       32.11711501796024       16.76057210150476
C           -5.68722932232749       24.59950186522078       14.50744820473329
H           -6.17071668594166       25.53197167958135       14.21934123803735
H           -6.05849696057200       24.32457792455973       15.49570161888355
H           -5.99016356653884       23.82785133464574       13.80283943913479
C           -3.43102495402550       22.46264807714022       13.64599103514738
H           -2.72591494954448       22.10246257670184       12.90755050355731
C           -4.37335866819278       21.62185188737175       14.07145619573863
H           -5.07788720333686       21.91062495325290       14.82792556675892
H           -4.43727965821361       20.62039972537730       13.68490325573823
C            1.85662836696509       22.26111359381715       13.65554620814343
H            1.04489939916698       21.99904833651268       12.98099331725432
H            1.81944230185684       21.57785400917557       14.50611357579279
H            2.78554549125333       22.08641797134282       13.12181005431741
C            4.19159098507501       24.37911800652206       14.62260495402602
H            4.73888475481932       25.21367207885697       15.04063768665569
C            4.90313761564252       23.29079719027831       14.32900237020521
H            4.45032843918034       22.41222436929683       13.92323125189350
H            5.96653003075727       23.26340541302921       14.48975754626377
C            4.37596225789420       29.37202281667779       16.24518372257217
H            4.81125433435628       29.15525908814977       15.27151457254591
H            4.80611214394040       28.68053002724872       16.97015343176033
H            4.66406106090580       30.38219216559627       16.52502871664103
C            2.20511599777514       31.37425559058450       17.45934576388781
H            2.15541374479102       32.25390605771796       16.81648061788214
H            3.19453441882220       31.34286274588048       17.91052665671088
H            1.47735889646850       31.50085761647445       18.25905434534752
C            0.09368313533006       28.47731539912403        9.83407052674659
H            0.59257832642969       29.43615534537895        9.69226401976571
H           -0.74777948429561       28.42810481556087        9.14356456275338
H            0.79247445612648       27.68450810817760        9.59254609933039
N           -1.28220475058646       29.23564951313614       11.76196041381463
H           -1.71424084935333       29.99484747689642       11.26231340506975
C           -0.36934427465712       28.35353659410105       11.24049243500920
C           -1.48107344423829       28.91299232820086       13.05547512759422
H           -2.14037920143222       29.44913836569638       13.70298901299970
N           -0.75360502535357       27.87730985344314       13.39263923273669
C           -0.05594750014001       27.51924299377012       12.27782607570778
H            0.62769165833583       26.69832995223120       12.31031062456057
H           -0.30072933640723       27.25492449201028       17.24011047582879
O           -0.60595405239246       26.34199378524266       17.08250030532832
O            0.53947035715482       25.56864474159715       17.43738653132377
H            0.83564861862690       25.23685354729231       16.56521537830434
79
 energy: -120.028544965534 gnorm: 0.032812584906 xtb: 6.7.1 (edcfbbe)
Fe          -0.65944825954176       27.02920902446050       15.23316506589656
N           -2.02852935690836       28.34115318096026       15.93418768423297
N           -2.11816580582673       25.72937648415033       14.78046392552302
N            0.74631045535802       25.67720682372048       14.68250053756960
N            0.81669943013599       28.31496160115259       15.79424311577550
C           -1.80198436919976       29.57796381007487       16.45202964094953
C           -3.05179152736688       30.23777128682486       16.75003654195278
C           -4.03640501725523       29.34924130939673       16.43446354340623
C           -3.37318544523245       28.16918783499870       15.91904857578451
C           -3.45393661548041       25.91234891072972       14.94508245007807
C           -4.18639737390275       24.73433374280123       14.52755929163214
C           -3.24402853650958       23.82448966050647       14.12535714811670
C           -1.95459981905780       24.47875534338415       14.28777233918053
C            0.51331979388319       24.40826822109381       14.24088333935943
C            1.75690178062173       23.69175888789077       14.08363597921442
C            2.76633961453355       24.56307310059437       14.45229483902823
C            2.10346059156499       25.81135498778740       14.78881084641196
C            2.15955866536735       28.11528888364856       15.66436536699045
C            2.88921466825871       29.23736511692317       16.20651090404129
C            1.95503296145466       30.10579715156031       16.69614352849446
C            0.66608729793706       29.52546880723692       16.40027424724231
C           -0.55029659322331       30.12141868523968       16.69387282164263
H           -0.49838390516697       31.09609872154374       17.15575244012969
C           -4.04162769747404       27.04841087645811       15.47166474948052
H           -5.11825213056807       27.05486381669058       15.56130221446583
C           -0.74270226755646       23.86571954407987       14.03294295797173
H           -0.77681504041688       22.84728077620031       13.67352323845703
C            2.75642017125164       26.96318279289678       15.19195511605711
H            3.83414383829242       26.95733439163000       15.18377679410091
C           -5.50943068905614       29.51460423463026       16.56470328478570
H           -5.75229195667610       30.49567322186278       16.96440494195312
H           -5.92184614396536       28.76290688663782       17.23659175732492
H           -5.99880813649524       29.40415661603441       15.59684344315504
C           -3.21241733434983       31.63069251784897       17.26133041032474
H           -2.32435908332845       32.22325446087036       17.06334880007910
H           -3.39679425644477       31.63638644413616       18.33507074805031
H           -4.05815857858870       32.11270885196478       16.77391228122208
C           -5.66765229442068       24.60143961218506       14.51147797032917
H           -6.14148339289395       25.53724867089511       14.22042290985466
H           -6.04503995859666       24.32907574472673       15.49809964591716
H           -5.96860223458572       23.82840149795905       13.80778577406496
C           -3.42689288837741       22.47031586818611       13.64817506467517
H           -2.71609881071458       22.12012212034390       12.91033015367998
C           -4.37247945431403       21.63008238120115       14.06857791877186
H           -5.07417352801321       21.90507333429381       14.83399030964847
H           -4.44588988759782       20.63060946142123       13.67796262692459
C            1.84420838217724       22.27398139817864       13.64358623332149
H            1.01306448188037       22.01598039807259       12.99169667391861
H            1.82280471272211       21.60187562370118       14.50337328998688
H            2.76022452082292       22.09214503416849       13.09058829660259
C            4.18372635482495       24.37280888663384       14.60204945935483
H            4.71541716582772       25.21969939715567       15.01598675440767
C            4.91123225877193       23.28625139808303       14.32760641947032
H            4.48514854807076       22.38265543753225       13.93981155988850
H            5.97278156319770       23.27339762155811       14.49825015785748
C            4.37018793236048       29.36547499291768       16.24172668885043
H            4.80329616816660       29.14791791148065       15.26701666138847
H            4.80205223801050       28.67280821118868       16.96499749937224
H            4.65990339380416       30.37446265959355       16.52303229493751
C            2.19764001665668       31.36954547404294       17.44775367195916
H            2.13962106022459       32.24210354586909       16.79654933118917
H            3.18653755792145       31.34963565452293       17.90041722097333
H            1.46755992957706       31.49214568873823       18.24483415310721
C            0.09654204567778       28.47291078958313        9.84144520530619
H            0.59846485698146       29.42795429261331        9.68588630753320
H           -0.74514714274903       28.41814743656383        9.15249368944569
H            0.79082729602954       27.67446789063888        9.60701085760199
N           -1.28006496845792       29.23823098703286       11.76692254197296
H           -1.71610780274441       29.99556508227239       11.26616076224477
C           -0.36466091582186       28.36036601224784       11.24860034465755
C           -1.48047296141112       28.90991798545148       13.06220197076057
H           -2.14540842173006       29.43888833139261       13.70920484156472
N           -0.75050291943675       27.87496945499464       13.39875292749674
C           -0.05144379387932       27.52128658378375       12.28182748789762
H            0.62550447254656       26.69451816529397       12.30377025835601
H           -0.31587964528075       27.26705771973137       17.32392597871799
O           -0.61403457245472       26.35374481926361       17.13976187777652
O            0.53355477692086       25.55598188569417       17.48500207815557
H            0.82890253123961       25.22666753017165       16.61010921997836
79
 energy: -120.032077289775 gnorm: 0.026792099160 xtb: 6.7.1 (edcfbbe)
Fe          -0.66358719125399       27.02763992185759       15.23406706261115
N           -2.02958202148703       28.34369628458730       15.92482769740618
N           -2.10401896193948       25.73980273833268       14.77274174561618
N            0.74931987050887       25.67424584444543       14.68887475660700
N            0.81228227336731       28.31182522164947       15.79987364111963
C           -1.80356896178357       29.57679913159113       16.44062532523283
C           -3.05075966392901       30.23910615565123       16.73919487378276
C           -4.03526109986949       29.35102593853674       16.42102750979817
C           -3.37607648375494       28.17552227543139       15.90736141248722
C           -3.43845206976792       25.92033504138146       14.93909829832537
C           -4.17045446387261       24.73636516059389       14.53183953798674
C           -3.23094705451559       23.83025758085806       14.12880205473236
C           -1.94600394565849       24.48780204174940       14.28406266526288
C            0.51467407799500       24.41274916987699       14.23561146159664
C            1.75637115488262       23.69768701139288       14.06390937013824
C            2.76315241582109       24.56320008655878       14.43306955499592
C            2.10151747080393       25.80864106419865       14.78607547181807
C            2.15089565604415       28.10945590249266       15.66698430045057
C            2.88230985657488       29.23438355475338       16.20741174141793
C            1.95391253392930       30.09951403796835       16.69497563834091
C            0.65670703580763       29.51959781322388       16.40203704463234
C           -0.55301147617942       30.12380011442478       16.69041135543880
H           -0.51359569733248       31.10021885909951       17.14702553849145
C           -4.03841230363130       27.05041031248306       15.45820519455751
H           -5.11374188171533       27.05031795411929       15.54425837067018
C           -0.74004568196489       23.86617985272518       14.02975096614999
H           -0.78329146646742       22.84669493663831       13.68042723048926
C            2.75155038368798       26.96215646684933       15.18943551552058
H            3.82971662611003       26.96321992023093       15.17489190728615
C           -5.50619145902687       29.51343223552953       16.55938564524752
H           -5.74268674223773       30.49433240727742       16.96229665520790
H           -5.91157533945824       28.75906789546810       17.23280225275115
H           -6.00131214806918       29.40210064185882       15.59446598478600
C           -3.21022802187485       31.62483588380984       17.26699575832999
H           -2.32527783860909       32.22415695111940       17.06963145597762
H           -3.38506544643811       31.61745669390772       18.34325578772402
H           -4.06166750862533       32.11175265607485       16.79306088038971
C           -5.65041601490908       24.60664083820303       14.51529365672861
H           -6.11800565627559       25.54471755825003       14.22047050030361
H           -6.03079744556579       24.33710413396519       15.50175897235455
H           -5.94900630226577       23.83085444087117       13.81278966896112
C           -3.41990367835128       22.47759786151546       13.65074797091557
H           -2.70793865561550       22.13945172071033       12.90689192448158
C           -4.36727045404969       21.63999274510477       14.06416717410002
H           -5.06992638514048       21.90339394800800       14.83524952239157
H           -4.45420193791948       20.64358695198899       13.66389521710866
C            1.83660652419559       22.28198494557103       13.62356536065569
H            0.98297854472451       22.02217692953203       12.99964947120063
H            1.83969319654421       21.61729235960684       14.49037953503580
H            2.73939758650905       22.10096270681488       13.04734074356251
C            4.18187390930425       24.36473389978646       14.57815496999842
H            4.70714877124101       25.22689936591801       14.97099596324182
C            4.91426809056894       23.27734239567299       14.32959532183125
H            4.51012097228782       22.35386714738695       13.95572110195318
H            5.97720795400696       23.28016540950212       14.50104278028214
C            4.36596647128718       29.35647031531678       16.23745996890479
H            4.79221901818484       29.13802023331076       15.25934634427728
H            4.79661336182565       28.65936712381410       16.95798420633336
H            4.65964248423473       30.36445676753106       16.51992765763906
C            2.18620445921996       31.37116201897874       17.43440664316797
H            2.11547625905662       32.23466926036682       16.77153889713867
H            3.17648476597145       31.36757763045876       17.88546750732361
H            1.45424527237772       31.49154787800924       18.23044141292372