87
 energy: -124.720507863717 gnorm: 0.000050800929 xtb: 6.7.1 (edcfbbe)
Fe           2.58300636955215       20.86024353787227       13.20375415761671
N            3.96665805132108       19.69165869199783       12.36288725974711
N            3.22189052684805       20.30764520837069       15.01965014230314
N            1.19440918393801       22.03532602914786       14.05611416185788
N            1.99483026382743       21.47972280842787       11.39014372020616
C            4.19391026786571       19.52487225150860       11.03449906499963
C            5.24702153261516       18.55676299865289       10.81313849586104
C            5.65114135193734       18.14592623152241       12.04357204118188
C            4.84033237420271       18.87036725870989       12.99852694059673
C            4.23005317954829       19.44169498223688       15.30263742857769
C            4.41718676631868       19.32392892021826       16.73183917055713
C            3.49561390427296       20.14340908251231       17.30559672097390
C            2.75850929643940       20.74803374091031       16.21853539007796
C            0.98559712288929       22.22373088370938       15.38369390661950
C           -0.12348940129723       23.13091726135599       15.60458303430546
C           -0.55425526819757       23.51045885598873       14.36066116050613
C            0.28939888765512       22.82611249266480       13.41518557171713
C            1.01074338640629       22.37272886389984       11.11086676577164
C            0.89175676037080       22.57306974488189        9.67952859642371
C            1.85104658231808       21.77926785380703        9.10845099754354
C            2.52029825278751       21.10830987666706       10.19319194736380
C            3.53742114907963       20.18611645350351       10.01764826577179
H            3.83474342326415       19.96028764611742        9.00510668504913
C            4.97823730085019       18.74953592585915       14.36831313228105
H            5.73034334404456       18.06882126403764       14.73726331614039
C            1.71006711191296       21.62924933858127       16.40056690311360
H            1.43500203807792       21.86827627075534       17.41631599085408
C            0.19386178164229       22.98371271979772       12.04263127517022
H           -0.57815175179213       23.64101403279798       11.67267176126159
C            5.73791189306460       18.14062150173225        9.46913989911741
H            6.13246233400015       18.99743431463635        8.92206739462853
H            4.92619095883990       17.70984043929652        8.88289164142702
H            6.52747163185967       17.39840536744653        9.55795144684481
C            6.70339661943694       17.15712618004046       12.41298233893738
H            6.27388051345332       16.34335429112168       12.99733295536446
H            7.48295367386675       17.62869743952783       13.01251960690641
H            7.16527219072984       16.73388703028443       11.52443089755955
C            2.21411973581587       21.65569762745420        7.66993919428765
H            1.76987461993372       20.76042031096865        7.23147633263474
H            3.29443583833430       21.58866224366297        7.55043874909495
H            1.85522568344839       22.52237232990436        7.11836939375566
C           -0.05193978615410       23.46827828474913        9.04809870680958
H           -0.29902504227389       24.36171868570494        9.61031673619946
C           -0.62778088986604       23.27409792731805        7.86598466828071
H           -0.45837063795510       22.38426909733587        7.28526921813325
H           -1.31377148383717       23.99260531964235        7.44882917312990
C           -1.61965736708904       24.48946524463259       14.00930612880459
H           -2.54118006009367       23.97875978682848       13.72396856922160
H           -1.30974353448540       25.11429939999206       13.17273519032111
H           -1.83222983750894       25.13114276340875       14.86192688032187
C           -0.61163949064642       23.53683528968299       16.90379930839598
H            0.13822600169673       23.61576154024037       17.68258052310335
C           -1.87939744753314       23.80199358300267       17.20198089052286
H           -2.67227362224045       23.69393535443244       16.48241636722030
H           -2.17240385321212       24.11326111077394       18.19098362304014
C            3.23532395670043       20.40817263783693       18.74864747563749
H            3.92889872081000       19.85283940711544       19.37537251160766
H            2.22028734155708       20.11210198994915       19.01526848418939
H            3.34658572399038       21.46983654439300       18.97038083253056
C            5.43617919820298       18.44815733776887       17.37693903399457
H            5.39001494635217       18.53415155285877       18.45976263437508
H            6.44075088766255       18.72249365108813       17.05345913322722
H            5.26884788875263       17.40457535059301       17.10880322149227
C            5.09210669548053       25.83790903190788       12.93350752691104
H            5.87223232256886       25.97859735656094       12.18540640640397
H            5.43002005586450       26.28774642569472       13.86709815326719
H            4.19613412284248       26.35393495401024       12.60309291193320
N            5.74120569204334       23.49438104068082       13.53289672678151
H            6.70248117388507       23.70631398126507       13.74424991116693
C            4.79447893763970       24.39535214628599       13.12050463855866
C            5.14945949371552       22.28097872549322       13.60228535756015
H            5.65156154665521       21.38321013780184       13.89803208074632
N            3.88710523904415       22.35893273556547       13.25947256408495
C            3.65117145474216       23.66712371844114       12.95692056078576
H            2.68233077515303       23.99591585338174       12.64376140756145
C            1.09550519376865       17.63440398393796       15.48959748662337
H            0.65738188946299       17.48203558264343       16.47401922692138
H            2.13112098365777       17.93662590078165       15.61287113874154
H            1.07343272323050       16.69370189564173       14.94453506036204
C            0.32210309276554       18.69920436063940       14.73646100145763
H            0.32678111467096       19.64562350544062       15.27448432528853
H           -0.70463136248327       18.37809159380599       14.56081100004102
S            1.07732785089485       18.98310063955831       13.08308251342175
C           -0.41743274637567       19.56190186961794       12.22293955742680
H           -0.80830414967650       20.44533820308092       12.71758784104178
H           -1.15273675669141       18.76153121636363       12.21257555750393
H           -0.12391643720109       19.80957297947404       11.20886387986314
