87
 energy: -124.350635038374 gnorm: 0.409016560187 xtb: 6.7.1 (edcfbbe)
Fe           2.63800000000000       20.93600000000000       13.23800000000000
N            4.13300000000000       19.91900000000000       12.38100000000000
N            3.24300000000000       20.40000000000000       15.08400000000000
N            1.13300000000000       21.99700000000000       14.08300000000000
N            2.02400000000000       21.54000000000000       11.42600000000000
C            4.41000000000000       19.84200000000000       10.98400000000000
C            5.34300000000000       18.76500000000000       10.76100000000000
C            5.66400000000000       18.20600000000000       11.95100000000000
C            4.90600000000000       18.92600000000000       12.97300000000000
C            4.15500000000000       19.38000000000000       15.33100000000000
C            4.17600000000000       19.17400000000000       16.77800000000000
C            3.24900000000000       19.92000000000000       17.33500000000000
C            2.67900000000000       20.75400000000000       16.28700000000000
C            0.98900000000000       22.28800000000000       15.42800000000000
C           -0.03900000000000       23.31200000000000       15.59100000000000
C           -0.50100000000000       23.59800000000000       14.37500000000000
C            0.19700000000000       22.77900000000000       13.41200000000000
C            0.93800000000000       22.31300000000000       11.15000000000000
C            0.96100000000000       22.69000000000000        9.76700000000000
C            2.08400000000000       22.17600000000000        9.20400000000000
C            2.76200000000000       21.41200000000000       10.25500000000000
C            3.90300000000000       20.66000000000000       10.01300000000000
H            4.39700000000000       20.72200000000000        9.04400000000000
C            4.91900000000000       18.77200000000000       14.34700000000000
H            5.65000000000000       18.05500000000000       14.71700000000000
C            1.70100000000000       21.70499999999999       16.45200000000000
H            1.47200000000000       22.02100000000000       17.47000000000000
C           -0.00500000000000       22.73400000000000       12.06100000000000
H           -0.97500000000000       23.05200000000000       11.68000000000000
C            5.92200000000000       18.41300000000000        9.36100000000000
H            6.25200000000000       19.44200000000000        9.10200000000000
H            4.94600000000000       18.21400000000000        8.86900000000000
H            6.68400000000000       17.68900000000000        9.00100000000000
C            6.67400000000000       17.06800000000000       12.15900000000000
H            5.97100000000000       16.43700000000000       12.74400000000000
H            7.34600000000000       17.60500000000000       12.86200000000000
H            7.27100000000000       16.41500000000000       11.48800000000000
C            2.55800000000000       22.30300000000000        7.75500000000000
H            1.68300000000000       21.76700000000000        7.32800000000000
H            3.44800000000000       22.10000000000000        7.12200000000000
H            2.34200000000000       23.39300000000000        7.76900000000000
C           -0.09700000000000       23.53500000000000        8.98300000000000
H           -0.03200000000000       24.62500000000000        8.86900000000000
C           -0.72400000000000       22.80200000000000        7.75400000000000
H           -0.84000000000000       21.70800000000000        7.75600000000000
H           -1.05600000000000       23.37200000000000        6.87400000000000
C           -1.62000000000000       24.63300000000000       14.01000000000000
H           -2.27500000000000       23.92200000000000       13.46200000000000
H           -1.01900000000000       25.21000000000000       13.27500000000000
H           -2.25600000000000       25.32200000000000       14.60500000000000
C           -0.46200000000000       23.90000000000000       16.97500000000000
H            0.36900000000000       23.97400000000000       17.66300000000000
C           -1.99200000000000       23.94700000000000       17.28600000000000
H           -2.73000000000000       23.85800000000000       16.47500000000000
H           -2.34800000000000       24.07000000000000       18.32000000000000
C            2.84000000000000       20.03800000000000       18.83400000000000
H            2.82300000000000       18.93000000000000       18.90700000000000
H            2.06800000000000       20.45600000000000       19.51500000000000
H            3.84600000000000       20.40300000000000       19.13100000000000
C            5.08200000000000       18.11200000000000       17.43400000000000
H            4.21200000000000       17.67700000000000       17.97100000000000
H            5.55700000000000       18.88000000000000       18.08100000000000
H            5.80900000000000       17.30200000000000       17.21000000000000
C            5.20900000000000       25.83600000000000       12.40000000000000
H            5.76200000000000       25.78100000000000       11.43800000000000
H            5.84900000000000       26.34000000000000       13.15600000000000
H            4.27500000000000       26.41700000000000       12.24500000000000
N            5.85500000000000       23.45200000000000       13.14200000000000
H            6.84600000000000       23.54400000000000       13.05300000000000
C            4.87300000000000       24.45000000000000       12.86400000000000
C            5.17100000000000       22.41500000000000       13.53000000000000
H            5.65000000000000       21.51100000000000       13.90600000000000
N            3.84200000000000       22.58500000000000       13.41600000000000
C            3.66000000000000       23.87800000000000       12.96700000000000
H            2.67000000000000       24.26599999999999       12.76300000000000
C            0.81000000000000       18.12900000000000       15.87700000000000
H            0.46000000000000       18.28700000000000       16.92000000000000
H            1.92000000000000       18.17000000000000       15.86500000000000
H            0.46900000000000       17.12800000000000       15.53700000000000
C            0.23400000000000       19.22200000000000       14.95300000000000
H            0.41300000000000       20.22700000000000       15.39200000000000
H           -0.86200000000000       19.08500000000000       14.83700000000000
S            1.09400000000000       19.04700000000000       13.33800000000000
C           -0.00200000000000       17.87200000000000       12.55400000000000
H           -1.03300000000000       18.27700000000000       12.46800000000000
H           -0.04900000000000       16.93500000000000       13.14900000000000
H            0.35900000000000       17.63400000000000       11.53100000000000
87
 energy: -124.524262874336 gnorm: 0.233516261085 xtb: 6.7.1 (edcfbbe)
Fe           2.63098754246267       20.94865981654482       13.23665990264376
N            4.12360464516492       19.89597934828791       12.36245717418834
N            3.22941281950521       20.39130000692354       15.06805604661160
N            1.13696085008647       22.02703302963628       14.09338626818249
N            2.03580278282822       21.55112201709091       11.42370682958112
C            4.41805302226338       19.83249461929710       10.99732563221157
C            5.36465333080463       18.76607464823872       10.75829303550205
C            5.67243689485280       18.20861881622683       11.94581057489747
C            4.90331549468205       18.93070160498367       12.96298445649741
C            4.15378616033928       19.40107081699461       15.31469595486669
C            4.17853533893365       19.15801219521456       16.74382981188513
C            3.24062351972119       19.94386092926000       17.32094605696846
C            2.68189302862855       20.75401386006502       16.26675962726254
C            0.99582599111010       22.31710190953284       15.42953813902825
C           -0.05121111630787       23.32195878881179       15.62451153583505
C           -0.52570874835040       23.60204374794701       14.39149707824863
C            0.19079580000851       22.77918316274974       13.43120646100504
C            0.93857326909013       22.30775333832705       11.13859888602122
C            0.94232217140633       22.68518230640076        9.74182130556194
C            2.09562239852089       22.16806673806007        9.21057613326721
C            2.75850760318166       21.42618620967006       10.26088880086362
C            3.89595503681424       20.66471946910497       10.02931713241420
H            4.37829581255506       20.71541228220299        9.05432896199651
C            4.92378920138800       18.77133146378650       14.34474787103281
H            5.64598541728709       18.05038680536275       14.71980715824232
C            1.70616194209504       21.71531682704927       16.44919626654895
H            1.47089819872139       22.01222994979333       17.46683074612006
C           -0.00766846612393       22.73415774782284       12.06250064218286
H           -0.96409037870871       23.07398829793834       11.67654926164337
C            5.89521019387356       18.44294168914003        9.36023455066013
H            6.25526620353903       19.43716305757720        9.06904455001033
H            4.95705240476631       18.21673771590779        8.83932858923107
H            6.65836583731150       17.70201488981050        9.05617650402464
C            6.65489317915796       17.07745311969969       12.20211455884076
H            5.99491775645386       16.40986697111039       12.76605915209965
H            7.36042267202584       17.57811230981594       12.87652386817095
H            7.23063234026804       16.46489355177727       11.48111481150780
C            2.51935381606627       22.32134026570722        7.76032261063787
H            1.68563724318166       21.78283040058720        7.29233342879988
H            3.43678355067223       22.08995786676984        7.18729509260828
H            2.33945523356213       23.40209927577399        7.71653064170626
C           -0.07435263710784       23.47609520532497        8.90881669474222
H           -0.03714352670661       24.58046594894511        8.87679654275679
C           -0.69372119535890       22.82999753611753        7.80106735382568
H           -0.82253993374811       21.74315950767502        7.77088358747297
H           -1.05840112771222       23.37291015403914        6.92164380534784
C           -1.60558861378205       24.61169615457477       13.97609751592858
H           -2.29226817698737       23.94288378341703       13.44413112321342
H           -1.04379510047502       25.22273158459709       13.25945195889829
H           -2.20839140023488       25.28271930516957       14.61651053804941
C           -0.52665076150950       23.85549722167340       16.96003589293722
H            0.31204375307038       23.97579796610580       17.65584576730902
C           -1.91761967945155       23.94196810610931       17.27330968002719
H           -2.68265873369363       23.85177119146785       16.49324112961198
H           -2.30928225903842       24.08050760655158       18.28952740910921
C            2.88209992581409       20.00734557134627       18.81987768238901
H            2.82918345238119       18.92076358560516       18.95875042995275
H            2.08067504533337       20.46073760342214       19.43925587229110
H            3.84722296489677       20.39116655761154       19.17349608872741
C            5.05553799334540       18.13460727172079       17.46745824124554
H            4.23505757850139       17.65095053947920       18.01172291290417
H            5.57373267366090       18.85202755489346       18.11684592853861
H            5.77393698301523       17.34691927695683       17.16970871751280
C            5.21616483245199       25.83607349472362       12.39668993042142
H            5.76049831243412       25.78877340410325       11.44451524757184
H            5.84340030276949       26.33996958252796       13.14538545403844
H            4.29067641768864       26.40824671337670       12.24862533274491
N            5.84080822083337       23.47623398846956       13.14796330583565
H            6.83923783019989       23.56066363245451       13.05819062152680
C            4.88147409937323       24.45588181104424       12.84550535381435
C            5.15780654069394       22.40407343350173       13.52611952977309
H            5.63679207789632       21.51046927041891       13.89963060653424
N            3.84950382350908       22.57394502840440       13.41265684036231
C            3.66860162152387       23.86516717495912       12.97303102367693
H            2.68252312830244       24.25668930869409       12.77313401662604
C            0.80379354210936       18.12667506362325       15.88258548769575
H            0.46161183458051       18.28345815994568       16.91328007211748
H            1.90084714127571       18.16615206841864       15.86456608656406
H            0.47529348567751       17.13553719995109       15.54404482160703
C            0.23215702252119       19.20374214556897       14.96064319851177
H            0.41215344590986       20.20344127889496       15.37613912947917
H           -0.85261299014966       19.08293824671315       14.82968841427705
S            1.09228244380487       19.04439183233777       13.34814674378553
C           -0.01277442446126       17.86698461966316       12.54959586926830
H           -1.02793619544170       18.27605215978114       12.46654660058672
H           -0.04790107395470       16.94161917062641       13.14076676569929
H            0.35941134240028       17.63873011199281       11.54316856508213
87
 energy: -124.611267260223 gnorm: 0.141749960190 xtb: 6.7.1 (edcfbbe)
Fe           2.62257230762228       20.96613297371129       13.23778690401380
N            4.11986175309420       19.87730070774403       12.34420477877466
N            3.21955734088423       20.38489890658984       15.05476522138670
N            1.13783187673319       22.05935030831597       14.10488337586883
N            2.04465448296266       21.56848882222000       11.42179604880213
C            4.42118422331493       19.82430616285591       11.01275400408094
C            5.38509877546789       18.76765242599834       10.75340407172405
C            5.68161455793151       18.20974544179674       11.94429137256924
C            4.89661545258018       18.93420664242669       12.95584512051477
C            4.14776617306314       19.41526550775754       15.30234493339113
C            4.18201694873850       19.14485217347713       16.71743707288265
C            3.23921391956597       19.96277067295660       17.31075524665544
C            2.68416195226676       20.75176106065451       16.25182800015464
C            0.99787703443255       22.34642163768831       15.43210506351354
C           -0.07158898543109       23.33113792533243       15.64694901591139
C           -0.55368374227369       23.60345476020654       14.39964344586554
C            0.19004782288320       22.78284616391901       13.44652482582433
C            0.93508167463712       22.30595038242319       11.13025752990772
C            0.91713678347655       22.67227166720367        9.71899022234500
C            2.09935612631531       22.16017741649692        9.21318958008276
C            2.75518716730108       21.44503430283690       10.26533209134757
C            3.88743939013716       20.66823015586083       10.04905833138172
H            4.35700257931456       20.70556225035589        9.06876488586510
C            4.92560470038598       18.76525679165828       14.34111104730578
H            5.64132325145237       18.04591053626809       14.72087748925889
C            1.70879628712967       21.72536216998926       16.44660699989858
H            1.47029908676161       22.00349357600963       17.46411371447148
C           -0.00557701324563       22.73966611218168       12.06546906463553
H           -0.94903622425899       23.10134988721430       11.67518247462342
C            5.86997589408741       18.47433137201788        9.36132793287284
H            6.25754326536456       19.43588276015409        9.03004675141050
H            4.96636862909182       18.22128211451416        8.80971733608584
H            6.63329401501605       17.71347706391061        9.12341534108960
C            6.63561253553157       17.08962277904324       12.24664335413519
H            6.01887651642529       16.38284519182719       12.79257076654651
H            7.37612476280666       17.54931015471630       12.89848446079720
H            7.18262654048072       16.52322247466147       11.46866050356116
C            2.47825562649201       22.33954022191551        7.76647651876027
H            1.68650859451533       21.79880782640111        7.25230582105964
H            3.42901559674774       22.07553458385361        7.26812437684314
H            2.33540026125145       23.41253838025266        7.66214173425552
C           -0.05381834440951       23.42221346119544        8.84169161640850
H           -0.03013263985248       24.53376011498209        8.88804341474650
C           -0.65566566099620       22.85321408402084        7.85291548181429
H           -0.79115802231213       21.77069798873313        7.77958118969923
H           -1.07156372102679       23.37593050239626        6.98227984716206
C           -1.59261920259327       24.58709520136306       13.94458968263384
H           -2.31354747973743       23.96483926419745       13.41958256239195
H           -1.06740987612072       25.23249418975763       13.24234189497438
H           -2.15605960320300       25.23772749324495       14.63564836422908
C           -0.57871364525547       23.82258467940845       16.94706097185405
H            0.25450858912873       23.96892235439523       17.65789590226803
C           -1.83737726438188       23.92797249967165       17.25099350572413
H           -2.63776796734359       23.83346984668418       16.50753758105594
H           -2.25836690308040       24.09868265052583       18.25215606711046
C            2.92863343219145       19.97721973352425       18.79757407231407
H            2.83988127860047       18.91196593869591       19.00436777792674
H            2.09288699283059       20.46955316722677       19.34148254814812
H            3.85328778941815       20.37557222196173       19.21536382817555
C            5.02452490892818       18.16275313472316       17.49701253116160
H            4.25655602455154       17.62927078818014       18.05391962802893
H            5.58639122253782       18.82635833008517       18.15347353704783
H            5.73118656179599       17.40118803991770       17.11401632628020
C            5.22167479103426       25.83412407307071       12.39389416074529
H            5.76189978818282       25.79727421805479       11.44845044435718
H            5.84012631194640       26.33856363836568       13.13734611748637
H            4.30298313226961       26.40130809878023       12.25102381604002
N            5.82630523008870       23.50021950622730       13.15483354654118
H            6.82940214405623       23.57547716768149       13.06531864811463
C            4.88758054335102       24.45682932774570       12.83145043625523
C            5.14949320393159       22.39448244576641       13.52140325999884
H            5.63012458867648       21.51003231500160       13.89098232162332
N            3.85790724999666       22.56379171355379       13.40361845477013
C            3.67458728101117       23.85073374110331       12.97719266484659
H            2.69385437208030       24.24811313540628       12.78205899640339
C            0.79589909389853       18.12196269656898       15.88790552042982
H            0.46018497165814       18.27967840955005       16.91016158119997
H            1.88405530158083       18.16258770746443       15.86646934561224
H            0.47873224528692       17.13620475442171       15.55225407858157
C            0.23017823808574       19.18711340488477       14.96602342742001
H            0.41473223935646       20.18332471811524       15.36123639193687
H           -0.84571178123309       19.07661016110399       14.82058170696114
S            1.09447757203856       19.04073730911631       13.35753781645057
C           -0.02448067978952       17.86128039973418       12.54358369119736
H           -1.02526656650746       18.27757186627275       12.46456415114992
H           -0.04800366084671       16.94674809934052       13.13378712463935
H            0.36158997912239       17.64449294236142       11.55160713560856
87
 energy: -124.655482376019 gnorm: 0.060958312443 xtb: 6.7.1 (edcfbbe)
Fe           2.61324830483238       20.97799784925250       13.23726147288790
N            4.10471389425104       19.86422229208518       12.34172731720705
N            3.21026647751163       20.38009937197578       15.04149633289483
N            1.15127444099097       22.08941941801265       14.10637589240560
N            2.05065552577643       21.58682481943314       11.42662762787231
C            4.41791473207467       19.82562483911456       11.02323111782321
C            5.39395676998770       18.78034954454735       10.75791795425621
C            5.68455990621256       18.21808126180726       11.95331444586257
C            4.88842469261675       18.93550506327707       12.95669506265165
C            4.14403623644571       19.41904231720956       15.29219841728103
C            4.18213311305586       19.14418808409996       16.70518205599830
C            3.24831278958432       19.97061906668518       17.29916439886563
C            2.68605799598487       20.75533172303178       16.24095487089848
C            1.01057094897000       22.36893684828713       15.43001084882562
C           -0.07230101851418       23.33006535903726       15.63709570667423
C           -0.56724796713235       23.59521690956207       14.39263513865150
C            0.19266973179691       22.78781561655683       13.44762880243893
C            0.93287928793802       22.30609036009988       11.13239898798791
C            0.91709734797724       22.65595771114790        9.72194084154302
C            2.09387455379098       22.15477401635871        9.21200784776611
C            2.75715849162220       21.45917620489460       10.27103026662243
C            3.88151059504381       20.67177945644363       10.06467240434390
H            4.33303596698788       20.69082656233685        9.07915149447278
C            4.92407649889038       18.76176975780266       14.33697974410011
H            5.63387793120090       18.03998822579268       14.72026810766785
C            1.71765457837173       21.73765446897730       16.44048204834958
H            1.46967400205541       21.99362046722639       17.46115742059825
C           -0.00122619583215       22.74886871374154       12.06653663474951
H           -0.93002371325218       23.14458389602202       11.67204465834980
C            5.85267665209147       18.50088028343669        9.36397469692311
H            6.26034300122172       19.43937438931760        8.97987161278884
H            4.97382163967746       18.23057904260475        8.77520699352700
H            6.61348339866259       17.71853010266750        9.20406419163097
C            6.62048751943963       17.10166628955871       12.28475759469546
H            6.04517424820967       16.35335021933498       12.83110314235526
H            7.39455319894765       17.51593805988214       12.93418240759297
H            7.13120276842860       16.58665353798207       11.44868868753218
C            2.45056026091547       22.35102179098551        7.77002023341918
H            1.68591510959767       21.81850092881822        7.20037907717632
H            3.43441471094872       22.05360073728565        7.35819904029684
H            2.32709967897273       23.42437240578749        7.59724826160346
C           -0.00169254323453       23.41969360315602        8.85101439720364
H            0.00839881694323       24.51700299969923        8.91207916582148
C           -0.68984437825006       22.84190653391124        7.85469215883015
H           -0.76113332371375       21.76231092497327        7.76236033982603
H           -1.12601396853192       23.38541325248037        7.01995550089911
C           -1.58913052644642       24.56779912909948       13.91615869066254
H           -2.34619434367936       23.99013288820244       13.38252155010405
H           -1.09590983139979       25.24300484107694       13.21408121677969
H           -2.10300499047108       25.19133915130893       14.66668565256219
C           -0.55661510406691       23.78353481193101       16.93604630766115
H            0.23891235879242       23.94767395829799       17.67113753701331
C           -1.84334423122803       23.94165990821008       17.24728902846309
H           -2.62989221934566       23.80087036193465       16.51156922515916
H           -2.22801205225321       24.13853785444500       18.24435976486265
C            2.96634449540224       19.95817840024256       18.77614272515574
H            2.85854490247225       18.90257717654114       19.05397664736752
H            2.09746127997726       20.48919142731949       19.22871835195248
H            3.86632157814328       20.35281599476563       19.26343639445447
C            5.00245207083619       18.18373214612684       17.51341013605881
H            4.28219889117844       17.60722318221860       18.10464089021585
H            5.59769262818304       18.79752610302375       18.19792731657209
H            5.69104135266866       17.45416730290004       17.04229405623131
C            5.22558157594090       25.83265915328138       12.38981432348989
H            5.76799649391942       25.80798176065055       11.44646036738000
H            5.84036618314431       26.33827552573548       13.13290284428747
H            4.30979665690782       26.39893653518319       12.25062966529784
N            5.82167032539102       23.51300124293884       13.16416892248339
H            6.82323014744832       23.59424350670181       13.08155940596575
C            4.88671517518083       24.45520129781642       12.82221107795250
C            5.15131789592419       22.39054565053519       13.51417116377918
H            5.63010038698965       21.50557258678185       13.87829955719416
N            3.86158424305633       22.55546176811992       13.39067705129845
C            3.67638871606088       23.84122026612216       12.97396050482338
H            2.69789765691008       24.23934842323179       12.79086904820985
C            0.78601641586761       18.11018507824353       15.89599181966205
H            0.45168458765421       18.27349952848444       16.91590887303995
H            1.87111276116673       18.15508384582959       15.87299197209067
H            0.47792606916417       17.12295685472082       15.56466197319463
C            0.22714984319117       19.16510947571909       14.96446939117038
H            0.41719997868536       20.16180449889611       15.34632436394249
H           -0.84543532967700       19.06149481371304       14.80527483769211
S            1.10107981186804       19.02894271971389       13.36369824102371
C           -0.03087699885271       17.86027090991237       12.53920058104056
H           -1.02688266326694       18.28332062506546       12.45989613102074
H           -0.05196880945006       16.94641721192373       13.12561166192029
H            0.36619990844635       17.65127675633423       11.55286530859563
87
 energy: -124.674881647435 gnorm: 0.054053616651 xtb: 6.7.1 (edcfbbe)
Fe           2.60561072898961       20.99243184840835       13.23825660438198
N            4.08823007711854       19.86176574848351       12.34810373430183
N            3.20404628341271       20.37606009396062       15.03433206533095
N            1.16867753263952       22.11343163489464       14.10278693509744
N            2.05416069684957       21.61086547639739       11.43026718315155
C            4.40875629602308       19.83245683183227       11.03604902359407
C            5.39550614338427       18.79800751775511       10.76719026761679
C            5.68178903685617       18.23102439497877       11.96730096389893
C            4.87299258224271       18.93810889905386       12.96161495412664
C            4.13784567621462       19.41518682770455       15.28716402957585
C            4.18667876805757       19.14747854755326       16.70187484817282
C            3.26291368396856       19.97957692463488       17.29425411312023
C            2.68786676398924       20.76061616104803       16.23609119633216
C            1.02315486544544       22.38829194351753       15.42487510626909
C           -0.07521012141134       23.32743722190256       15.62460316737349
C           -0.57963898480711       23.58251838992000       14.37922431578970
C            0.20238279110914       22.79557782299949       13.44408079328579
C            0.93169601581328       22.31843722052707       11.13346102226427
C            0.90492896401760       22.64212390135240        9.72073630589523
C            2.07890679223414       22.15392779537599        9.20426259653025
C            2.75411581484052       21.47342866515057       10.27191971242289
C            3.87000695443760       20.67429219954837       10.07805747612932
H            4.30440074500682       20.66988350629020        9.08749721280422
C            4.91497993872264       18.75320622690993       14.33535321382717
H            5.62201256279818       18.03004792415052       14.71791701168033
C            1.72566832587110       21.74866394275716       16.43337506885857
H            1.46998593852653       21.98753873051794       17.45579917241133
C            0.00846126057915       22.77154189179951       12.06551765601815
H           -0.90385581361277       23.20478468530902       11.67066086670223
C            5.84456443379251       18.51937216406037        9.37518202626022
H            6.26751613194851       19.43445846265025        8.94573768953871