72
 energy: -105.980207809826 gnorm: 0.000071640477 xtb: 6.7.1 (edcfbbe)
Fe          21.63337785419855      -19.46165047446606      -23.23680225966321
N           20.29957655881381      -20.02620344892367      -21.87142065482477
N           23.05950101734664      -19.40226773841245      -21.83476570576454
N           22.95148273880376      -18.79383193298514      -24.60310708516062
N           20.20212352684304      -19.46947327621438      -24.63880999966850
C           18.99358135241818      -20.33039476007264      -22.08107374332141
C           18.34574705888516      -20.69056478095792      -20.83794266559228
C           19.29363073089684      -20.58501160238897      -19.86999699636787
C           20.50993182770068      -20.17284398084603      -20.53726758852897
C           22.90402721603750      -19.64114165092155      -20.50473433876985
C           24.16087507155866      -19.51927059777156      -19.81139556321171
C           25.09585014537705      -19.20502252007128      -20.76125555946934
C           24.37523240420690      -19.11623583571763      -22.01635618527480
C           24.28778052706823      -18.60420487434167      -24.41573036574020
C           24.91034435384766      -18.14592026958293      -25.62768927022472
C           23.91047022986115      -18.02654165202778      -26.55628186659735
C           22.69982883329043      -18.47381542178367      -25.90039755464802
C           20.34372714406909      -19.15393474382816      -25.95432667977723
C           19.11057744850410      -19.39148083951150      -26.67110124586061
C           18.22284276053216      -19.86622918207965      -25.75699752977165
C           18.92388932851197      -19.90769854855080      -24.49332136339632
C           18.34848041447438      -20.30646037371823      -23.30287283321807
H           17.31329882438671      -20.60914813229689      -23.32658269030774
C           21.71443656941988      -19.99064306216767      -19.88961589080154
H           21.73364248210541      -20.14938626378973      -18.82267502777245
C           24.96284137860490      -18.78177651339368      -23.22067496001364
H           26.02786383158476      -18.61022973035898      -23.22771233165155
C           21.49216746497701      -18.66527449767333      -26.54547266750539
H           21.45929958034454      -18.45691418919251      -27.60268250498413
C           19.18147164302934      -20.83006477470344      -18.40490787730328
H           18.16750917097392      -21.11666432604239      -18.13757918543573
H           19.44229338012782      -19.93088571110587      -17.84682782078753
H           19.85662059973908      -21.62850374869631      -18.09550331376942
C           16.91302341992071      -21.08145187489473      -20.72067870904380
H           16.70243474315238      -21.95662249301060      -21.33579657812933
H           16.26656188763300      -20.26984146447587      -21.05491161713554
H           16.66017070466169      -21.31832723758965      -19.69027814898217
C           24.34245210064223      -19.65213217282068      -18.34028398946230
H           24.41230397994592      -20.70143888137938      -18.04795443433456
H           23.50205018904249      -19.20889093935709      -17.80849263136274
H           25.25567710312173      -19.14820323787737      -18.03085792661781
C           26.51253650828064      -18.95932991248167      -20.60404523431168
H           26.93609675915006      -18.21446221914312      -21.26747792866443
C           27.30681119290323      -19.57284240442732      -19.73312895253328
H           26.95066041200909      -20.35265000641103      -19.08269454161757
H           28.35401562992470      -19.33128921493005      -19.65918598481045
C           26.35471000592412      -17.81501399088124      -25.77340941556325
H           26.97436145595366      -18.66298505683916      -25.48104634730195
H           26.62112797563299      -16.96849125071898      -25.13930600634742
H           26.58483512676361      -17.55322316586951      -26.80293230861038
C           24.03987844655028      -17.54760283013027      -27.91694804110926
H           24.95401247532914      -17.83647839378747      -28.42383890439198
C           23.16893813810664      -16.77070742530442      -28.55056909012037
H           22.27133899159071      -16.41054429069235      -28.07671857559012
H           23.33663642367484      -16.44677789754272      -29.56412558008635
C           18.92745780115041      -19.14310516551586      -28.12820347399431
H           19.62725681748440      -19.74478304476585      -28.70802677243179
H           19.10767437023338      -18.09432381364353      -28.36547451991729
H           17.91704064107760      -19.39583921321859      -28.43943026045692
C           16.80315324591912      -20.27731693592763      -25.94225305887798
H           16.66810468555364      -21.32102712065662      -25.65856138714885
H           16.49980774894001      -20.16216916026197      -26.97972747360195
H           16.14348838945962      -19.66996197339672      -25.32198577966172
O           21.13231400715158      -17.29944741303358      -22.89507070012214
H           21.87434447659911      -16.87393496120119      -23.34015522126298
H           20.36466593442120      -17.20396286276111      -23.47070327220916
C           22.12611277987878      -22.68887865828364      -22.29624396095859
H           22.66213283759989      -23.61793330013366      -22.46429632377104
H           21.07387484371739      -22.88899916557537      -22.12310283371581
H           22.53849054546457      -22.13988776952747      -21.45654339023182
S           22.21938146078787      -21.66248357265234      -23.80510537466381
H           23.54874227614195      -21.51395005429013      -23.76755392566593
