87
 energy: -127.695138087589 gnorm: 0.332754354025 xtb: 6.7.1 (edcfbbe)
Fe          13.71300000000000       28.90700000000000       74.83600000000000
N           15.20200000000000       29.74000000000000       73.83100000000000
N           12.43000000000000       30.00700000000000       73.85700000000000
N           12.20900000000000       28.04700000000000       75.82899999999999
N           14.99300000000000       27.85600000000000       75.83300000000000
C           16.54700000000000       29.43700000000000       73.89700000000001
C           17.35000000000000       30.32900000000000       73.08899999999998
C           16.49500000000000       31.16600000000000       72.50500000000000
C           15.14900000000000       30.78700000000000       72.95300000000000
C           12.70100000000000       31.07900000000000       73.02599999999998
C           11.48300000000000       31.73500000000000       72.59600000000000
C           10.45000000000000       31.02700000000000       73.14000000000000
C           11.04300000000000       29.95100000000000       73.90000000000001
C           10.86200000000000       28.16400000000000       75.59300000000000
C           10.09000000000000       27.33800000000000       76.51900000000001
C           10.98500000000000       26.79200000000000       77.39100000000001
C           12.30400000000000       27.21800000000000       76.91499999999999
C           14.76300000000000       27.02700000000000       76.91599999999998
C           15.99300000000000       26.42700000000000       77.39700000000001
C           16.98700000000000       26.85100000000000       76.58000000000000
C           16.37100000000000       27.74700000000000       75.63600000000000
C           17.08000000000000       28.48600000000000       74.71899999999998
H           18.15100000000000       28.29800000000000       74.64200000000000
C           13.97500000000000       31.41900000000000       72.59099999999998
H           14.05600000000000       32.26000000000000       71.90199999999999
C           10.31900000000000       29.05600000000000       74.67400000000001
H            9.23600000000000       29.05099999999999       74.55200000000001
C           13.49600000000000       26.76500000000000       77.42200000000000
H           13.44300000000000       26.13700000000000       78.31100000000001
C           18.86900000000000       30.35300000000000       72.95099999999999
H           18.97100000000000       29.30000000000000       72.61100000000000
H           19.08400000000000       30.40200000000000       74.04000000000001
H           19.59300000000000       30.98400000000000       72.39200000000000
C           16.86500000000000       32.31300000000000       71.57700000000000
H           16.37200000000000       33.11600000000000       72.16500000000001
H           16.18700000000000       32.00100000000000       70.75400000000000
H           17.81500000000000       32.70600000000000       71.15700000000000
C           18.44900000000000       26.39400000000000       76.61700000000000
H           18.59500000000000       26.70900000000000       77.67200000000000
H           19.40100000000000       26.53900000000000       76.06200000000000
H           18.15800000000000       25.32200000000000       76.59799999999998
C           16.17000000000000       25.48800000000000       78.59000000000000
H           16.23500000000000       24.40900000000000       78.38599999999998
C           17.00400000000000       26.04000000000000       79.73999999999999
H           16.97600000000000       27.11200000000000       79.98599999999999
H           17.64300000000000       25.37300000000000       80.33700000000000
C           10.69000000000000       25.92500000000000       78.60199999999999
H           11.30100000000000       26.53500000000000       79.30100000000000
H           11.27700000000000       25.03400000000000       78.29399999999998
H            9.76000000000000       25.60700000000000       79.12000000000000
C            8.59000000000000       27.07000000000000       76.41199999999999
H            8.26100000000000       26.86100000000000       75.39400000000001
C            7.71000000000000       27.58599999999999       77.53400000000001
H            8.13000000000000       27.76900000000000       78.53400000000001
H            6.64200000000000       27.78300000000000       77.36000000000000
C            8.95900000000000       31.31400000000000       72.99100000000000
H            7.98200000000000       31.05099999999999       73.44900000000000
H            8.93500000000000       31.04700000000000       71.91300000000000
H            9.13000000000000       32.40500000000000       73.10800000000000
C           11.37600000000000       32.95700000000000       71.67400000000001
H           10.68300000000000       33.46900000000000       72.37500000000000
H           10.77900000000000       32.39700000000000       70.92300000000000
H           12.00500000000000       33.72000000000000       71.16700000000000
C           12.92000000000000       32.89700000000000       78.75000000000000
H           13.56300000000000       33.80200000000000       78.77600000000000
H           12.88800000000000       32.44900000000000       79.76599999999999
H           11.89700000000000       33.19100000000000       78.43200000000000
N           14.74400000000000       31.35800000000000       77.88799999999999
H           15.41900000000000       31.59600000000000       78.58700000000000
C           13.48700000000000       31.90900000000000       77.77900000000000
C           14.89300000000000       30.46099999999999       76.90300000000001
H           15.80000000000000       29.87200000000000       76.76500000000000
N           13.81300000000000       30.39800000000000       76.14900000000000
C           12.92200000000000       31.31700000000000       76.69799999999998
H           11.94600000000000       31.46300000000000       76.25200000000000
C           13.70400000000000       23.99700000000000       72.05599999999998
H           14.55100000000000       23.85100000000000       71.35200000000000
H           12.76200000000000       23.68500000000000       71.55599999999998
H           13.87600000000000       23.37600000000000       72.96100000000000
N           13.41800000000000       26.46700000000000       71.53900000000000
H           13.31800000000000       26.35500000000000       70.54999999999998
C           13.61800000000000       25.44200000000000       72.44199999999999
C           13.38400000000000       27.62200000000000       72.22499999999999
H           13.23800000000000       28.59300000000000       71.75200000000000
N           13.54800000000000       27.41200000000000       73.51600000000001
C           13.69700000000000       26.03400000000000       73.65699999999998
H           13.84900000000000       25.60000000000000       74.63800000000001
87
 energy: -127.836518542082 gnorm: 0.189557068061 xtb: 6.7.1 (edcfbbe)
Fe          13.70918087292190       28.90449960247182       74.83557973608511
N           15.22029085757719       29.74668864338941       73.81696765903446
N           12.42467685638987       30.00661831709937       73.84865528378108
N           12.18876506356620       28.04389408077312       75.84182839756785
N           15.00262755126369       27.84072662896607       75.84367220844160
C           16.56064084756147       29.44290125357572       73.89201599059133
C           17.35713223710169       30.33317837375245       73.08363328208671
C           16.49385288576788       31.17870911638730       72.49696343863405
C           15.15735520694545       30.80289874470310       72.94774893106512
C           12.70734641010934       31.07506188432513       73.02707409104528
C           11.50686490939280       31.72683355423581       72.60411243737272
C           10.45913938335513       31.01301965971913       73.16010303961168
C           11.04600530183121       29.94833740471177       73.91010956651598
C           10.84793333609935       28.14822732921846       75.58296664078077
C           10.06523932509400       27.34071037418032       76.50797522521654
C           10.96964144757820       26.79744465347298       77.38692651112322
C           12.28757627926561       27.21203317521521       76.92685766878726
C           14.76353171354846       27.02155170694869       76.92841658698090
C           15.98875045256740       26.42894923956486       77.41615952766152
C           16.98421377182768       26.85781057585193       76.56529590462290
C           16.36986183184261       27.74045143952158       75.63023064354275
C           17.09156387677770       28.47556129799872       74.71242979459528
H           18.15560285871096       28.29618069265443       74.64896616441516
C           13.97953045635418       31.43034676746677       72.58684817108124
H           14.05194781910518       32.26252917919533       71.89960412278106
C           10.31073067429721       29.04554630601556       74.66796917824691
H            9.23465079519100       29.05684004234630       74.55539287069294
C           13.49472920272671       26.76021112215283       77.44133363375180
H           13.44717282759279       26.12737319356917       78.31574532319603
C           18.86203574283108       30.31278793476393       72.97963146972943
H           19.01419577614199       29.28886901959532       72.62009322807619
H           19.12681906646843       30.38850659173440       74.04076224535875
H           19.52197615851078       30.98306327055740       72.40018896402384
C           16.81318616793536       32.32175108968867       71.57530103737409
H           16.36426087648164       33.14954288331484       72.13507779323616
H           16.18111079982331       32.04267612569302       70.72555636714053
H           17.79745951775202       32.65237080845594       71.19837910735366
C           18.42169134041783       26.37883498343712       76.65025492383808
H           18.62960189071985       26.67947099682993       77.68518169522056
H           19.33010474515553       26.56870134044983       76.05039297225636
H           18.20354351915836       25.30345681134261       76.61751301001928
C           16.24523719718403       25.53174668332310       78.60006946431231
H           16.23332802740702       24.44774591285083       78.40596864814469
C           16.98026845114360       26.01972726092369       79.69053554781128
H           16.97209699244248       27.07978581657610       79.95536815713372
H           17.59245349731847       25.37358140158307       80.32435045459347
C           10.73487683419988       25.93145816961917       78.59844982056060
H           11.30869489111826       26.50558467772036       79.33638703404601
H           11.28099528586373       25.01905401403581       78.32769145848383
H            9.77422570594624       25.64249740021192       79.06039708387109
C            8.58817521770140       27.14763319938710       76.44588840868337
H            8.24584196957797       26.87901882495160       75.44031491168974
C            7.74380944327173       27.56581596141044       77.48985297657504
H            8.13663903882691       27.76555177637617       78.48873634835334
H            6.67556967047475       27.74839651194346       77.34952609120890
C            8.99012299497261       31.33834966524818       72.96296154079656
H            8.05582375276788       31.02534649593160       73.46459214070933
H            8.89981715609408       31.07438193768265       71.90003769780182
H            9.08061704895270       32.42545354092857       73.08161635288367
C           11.33460240703528       32.93331515689071       71.69101031212941
H           10.65877227883185       33.50407994125135       72.34167235929034
H           10.75600904988726       32.43620809375233       70.90056501069304
H           12.02338902903881       33.65527820307793       71.21363583583820
C           12.92468646106346       32.89630836257681       78.74567294264006
H           13.55480831869265       33.79480943696222       78.77899722103452
H           12.88663609998601       32.45827791194660       79.75298442667204
H           11.91278817696062       33.18574174025078       78.43818779664015
N           14.74030455070238       31.36283528709511       77.89270499687112
H           15.41941872863604       31.60115098276781       78.59344026227117
C           13.48331237807694       31.90769312343608       77.77995166320574
C           14.89576865142888       30.46703326738503       76.90758473460770
H           15.79399366565537       29.88453512913416       76.76771327003415
N           13.81587855213442       30.39473065625354       76.16114870711694
C           12.92410749226660       31.30661123562184       76.69383432668558
H           11.95438466493242       31.45566645294144       76.25174721731037
C           13.70452835040417       24.00323822521598       72.05498734198459
H           14.54021290345729       23.84939921681607       71.35870500753741
H           12.77536637391429       23.68527217171056       71.56235089037484
H           13.87162005083237       23.38605666247894       72.94609273281293
N           13.41794925104128       26.46174298565256       71.54051186625276
H           13.31739277099217       26.35089933804996       70.54667853037741
C           13.61689312618281       25.44087340334262       72.44276515411691
C           13.38563515555444       27.61892696710929       72.22293156557966
H           13.24038933999880       28.58305487089834       71.75735909400377
N           13.55427294052521       27.40994765244472       73.50921149083155
C           13.69656842668649       26.04342046898391       73.65953484758919
H           13.84717697605881       25.60859758990305       74.63236141490320
87
 energy: -127.908399592283 gnorm: 0.115499681855 xtb: 6.7.1 (edcfbbe)
Fe          13.70068734797121       28.90227563326427       74.83347915409918
N           15.23995938577013       29.75391276612252       73.80375918569695
N           12.41616812109839       30.00855928475648       73.84021907656215
N           12.16886118868180       28.03689811692992       75.85427561458629
N           15.01316354165817       27.82239835788450       75.85461757365751
C           16.57389953649148       29.44933992673100       73.88709881995041
C           17.36617493093766       30.33653225623189       73.07921339826706
C           16.49351740027750       31.19140111816363       72.49032716541012
C           15.16911642466310       30.81642283796024       72.94341372320184
C           12.70909625314623       31.07551439532388       73.02359250387099
C           11.52283047725801       31.72525721098634       72.60567870843619
C           10.45997878476212       31.00461059028006       73.17377496165145
C           11.04389218082558       29.95050428443123       73.91739064861359
C           10.83354131765853       28.13471284321817       75.58332991073993
C           10.04834315154532       27.33727367782464       76.50631803767881
C           10.96336330833013       26.79895202163176       77.38950284294060
C           12.27326906278227       27.20551219871440       76.93815034662842
C           14.76406242622098       27.01702791306165       76.94312390552247
C           15.98079133795511       26.43394882179048       77.43732548359226
C           16.98326790641756       26.86106346772004       76.55759606428839
C           16.36975476401883       27.72917102167466       75.62719294434902
C           17.10159633071356       28.46402006217941       74.70417752952989
H           18.16141183545035       28.29251216235780       74.65547772822096
C           13.98366676997163       31.44140659604397       72.58283506131258
H           14.04732905527709       32.26782904177432       71.89711999108249
C           10.30112696356045       29.03404290418555       74.66302041768317
H            9.23008622751945       29.06198930075402       74.55866541697837
C           13.49248234430186       26.75833411826713       77.46045763011622
H           13.44980978139183       26.11746477401561       78.32263512114478
C           18.85415909235258       30.27438376935855       73.00682363598035
H           19.05987926709271       29.27544924860933       72.63142912540027
H           19.17180428407818       30.37181137038974       74.04273582675421
H           19.44195180427246       30.98619126925335       72.40501028776208
C           16.76176698931606       32.33000293472097       71.57441002483019
H           16.35271273392205       33.18856072943355       72.10024824233734
H           16.17218853324545       32.09030157895737       70.69404778972998
H           17.78146477433486       32.59092709722061       71.24568159786078
C           18.39252666601308       26.36243829496253       76.68515445084239
H           18.66387843916414       26.65117398230585       77.69974668303297
H           19.24669854301885       26.60845692994629       76.03097825599177
H           18.24731367272350       25.28244592449401       76.63932456826817
C           16.31143145378774       25.56730780114250       78.60567749513783
H           16.23683151170737       24.48443561722121       78.41178465548303
C           16.95225882797705       26.00443382763516       79.64305379931301
H           16.98630018442766       27.05898219710259       79.91560564534888
H           17.52723521448134       25.37145666433511       80.32051672715376
C           10.77791437510951       25.93653830115430       78.59506180975885
H           11.31777986499563       26.47500872145651       79.37187924222111
H           11.28747999879974       25.00301761558487       78.36041222955409
H            9.78236777796945       25.68425763371200       78.99267626208000
C            8.58463729259527       27.20515271992835       76.47452287906707
H            8.22773221125197       26.91095801400212       75.47804040505426
C            7.78818454967281       27.56267527577404       77.44155205720055
H            8.14794668217619       27.77826301327201       78.44621328881352
H            6.70974509667781       27.69568629818248       77.33978930840387
C            9.02185536995557       31.36269063483984       72.93397490281100
H            8.14263115913462       30.98921538523683       73.48959235275919
H            8.86842825413640       31.10200487758958       71.88536212714270
H            9.03605018602916       32.44500394613684       73.05483727930491
C           11.29283289985410       32.90870247687932       71.70800365882080
H           10.63475878192889       33.53506799702602       72.31093634432939
H           10.73121011525350       32.47185956114937       70.88056880753254
H           12.05466682494258       33.57891432244213       71.26938564684393
C           12.92788179044883       32.89630842410188       78.74176547251062
H           13.55067200005076       33.78954535400566       78.77970464950292
H           12.88636012991604       32.46447611521385       79.74326526732814
H           11.92324898231592       33.18184622979455       78.44117667946792
N           14.73651465315956       31.37059737633678       77.89922356673809
H           15.41842855372644       31.60859912673348       78.60088454253925
C           13.47948614914042       31.90695009493673       77.78124634223992
C           14.90060999994640       30.47286605980857       76.91639985284043
H           15.79277963502027       29.89702223720527       76.77221988688370
N           13.82107841872455       30.39274496725765       76.17376801426174
C           12.92737930274072       31.29360624304244       76.69164354073089
H           11.96133574380843       31.44637689365590       76.25320235772817
C           13.70464636045114       24.00844275955064       72.05438767376738
H           14.53270371307787       23.85047800540327       71.36281905044395
H           12.78404394125550       23.68664733749659       71.56636992937484
H           13.86825636865297       23.39465901208629       72.93679928116251
N           13.41771679457636       26.45464517677181       71.54064048267948
H           13.31669550304812       26.34510038821210       70.54391512078045
C           13.61580658777853       25.43973806136135       72.44322314066804
C           13.38819487749242       27.61577931688498       72.21707799114658
H           13.24345389840966       28.57537957812742       71.75919992758757
N           13.55908384162718       27.40749004594216       73.50131148709829
C           13.69781055057284       26.05399149167049       73.66065760641730
H           13.84594061500434       25.61604596866514       74.62729175736473
87
 energy: -127.942593025910 gnorm: 0.052091262985 xtb: 6.7.1 (edcfbbe)
Fe          13.69721521059994       28.90107884435852       74.83122365001549
N           15.24801948670012       29.75665255625390       73.79668443801725
N           12.41276146244495       30.00739857031609       73.83520530916918
N           12.16690034582360       28.03445474535172       75.85982828223388
N           15.01646884252473       27.81073406163773       75.85732280412321
C           16.57818194938559       29.44856109305850       73.88349141423360
C           17.36698368244742       30.33510280242871       73.07824027435535
C           16.48780612592866       31.19814584420045       72.48854489775442
C           15.17310981212142       30.82321542052083       72.94338653583848
C           12.70914889417542       31.07648497368326       73.01932012129649
C           11.52293321232812       31.72391788949392       72.60512459981527
C           10.45957855808812       31.00385399160402       73.17492457309719
C           11.04122168931840       29.95137486087705       73.91902368585737
C           10.83480272451862       28.12920400703176       75.58082498634715
C           10.06122675630604       27.33940049715117       76.50393592880418
C           10.97385755855706       26.79836873963865       77.39171014964190
C           12.27414328325851       27.20595656243241       76.94474085531746
C           14.76206016964297       27.01794243413559       76.95245672991086
C           15.97218811365890       26.43789760850452       77.43503608307797
C           16.98110842569285       26.85789703866786       76.55873919931445
C           16.37008978676896       27.71736373223936       75.62222065569236
C           17.10413700542405       28.45290175064491       74.69508178618705
H           18.16645765287129       28.28714130821362       74.66050278539535
C           13.98474471181571       31.44829518492788       72.58262512343920
H           14.04275531319663       32.27492725640367       71.89585373423456
C           10.29874212740820       29.02485873941448       74.65756152938876
H            9.22630324459232       29.06604702866712       74.56358537122534
C           13.49225242617842       26.76130317356409       77.47534434911965
H           13.45205155562059       26.10851114078366       78.33114883117644
C           18.84855181095635       30.24792534940834       73.02349585274665
H           19.11029140025396       29.25853888643692       72.64484123153552
H           19.22137774059593       30.34992943633758       74.04496895661028
H           19.36481731417205       30.99576562607182       72.40152620274479
C           16.72469946311579       32.33766498254042       71.57169490548530
H           16.33639786003936       33.23359703909200       72.05851403840410
H           16.15810919668251       32.14481046170097       70.65917200651717
H           17.77286582712118       32.53192051495498       71.28937728085850
C           18.37394677145625       26.35174339906036       76.70824742004990
H           18.70238911803717       26.61932056762936       77.71612426665720
H           19.16666470730161       26.65800426158543       76.00052844200836
H           18.29649628644653       25.25926570377879       76.66520664671128
C           16.32668762613716       25.56495041847387       78.56539264149912
H           16.24010228346000       24.49165420239568       78.38482554154402
C           16.93459007322294       26.00755121070446       79.66901462033249
H           17.02182537145561       27.06772303492119       79.89078754117814
H           17.45868810545261       25.35917686552762       80.36451791722676
C           10.80669628286835       25.93893045452342       78.59254736674406
H           11.32887592847524       26.43907187774322       79.41251275863156
H           11.29730969172460       24.98327944459340       78.39762835121876
H            9.77799084433122       25.72686526417501       78.92279708315763
C            8.60567706414827       27.25068058678110       76.44991081070827
H            8.22078722314630       26.95486152616050       75.47207403467976
C            7.78159752247204       27.53854527189223       77.45836777263710
H            8.15733684565238       27.81725087988267       78.43675878352525
H            6.70806957671606       27.63314173526887       77.34796083091948
C            9.04221985197172       31.37618303692981       72.91551521621047
H            8.22560658272326       30.94185426345511       73.52356658369466
H            8.83375967030584       31.13288046636121       71.86860241184100
H            8.98548120552803       32.46443238903694       73.02510283277047
C           11.26728850411666       32.89185021696859       71.71845687566375
H           10.60938044162485       33.56855924947613       72.27539668587744
H           10.70221812222676       32.51185276395938       70.85958846833300
H           12.10200788961748       33.50307990285675       71.32390122429786
C           12.92897031791544       32.89762094679768       78.73826177596179
H           13.55039526192920       33.78979284400912       78.77783198855929
H           12.88615855551865       32.46986875800005       79.73920071417001
H           11.92589959978756       33.18146503189547       78.44022639557760
N           14.73583179698360       31.37952357207296       77.90793470460790
H           15.41593028045721       31.62197069103577       78.61048264907261
C           13.47739636023075       31.90574154287482       77.78309781329577
C           14.90886766696265       30.47898584738595       76.92886951473194
H           15.80369211642118       29.91241350035241       76.78117056281518
N           13.82958723137743       30.38628688113082       76.18628005821004
C           12.93124096475716       31.28074843663846       76.69536792513779
H           11.96663933078887       31.43061817346646       76.25479021323675
C           13.70382841513971       24.01196019498003       72.05475872944187
H           14.52948922531492       23.85148841124161       71.36359465053725
H           12.78613072704797       23.68690217290600       71.56787249905470
H           13.86587138449118       23.39938440662683       72.93510124664476
N           13.41707943007104       26.44860936102211       71.53741096894966
H           13.31499950346346       26.33625632985905       70.54084368345487
C           13.61471150668612       25.44015397842907       72.44356358023414
C           13.39148466842604       27.61329814111171       72.20791580589183
H           13.24708451061587       28.57149263473895       71.75257123188145
N           13.56424046204541       27.40966151241543       73.49310634193441
C           13.69915448386630       26.06133341912302       73.65888603972411
H           13.84526186874816       25.62457006499642       74.62524861977403
87
 energy: -127.955161934815 gnorm: 0.050320239179 xtb: 6.7.1 (edcfbbe)
Fe          13.69388608863216       28.89950427247834       74.83030014876488
N           15.24813075485715       29.75638071483690       73.79486620956025
N           12.40667937850925       30.00867659432600       73.83171707804240
N           12.17135693421159       28.03332591134145       75.85896282251964
N           15.01999003368171       27.79794182841863       75.85962777640434
C           16.57572841404713       29.44383648802647       73.88191629065398
C           17.36408300028609       30.33101987937009       73.07894561785599
C           16.47920470055034       31.20305138985070       72.48981419398982
C           15.17180173949803       30.82565594703291       72.94755102002118
C           12.70499061762316       31.07920471050980       73.01366661556241
C           11.51544114625592       31.72290181335921       72.59884883389701
C           10.45383445885756       31.00268569119993       73.16725602067174
C           11.03472566121915       29.95140533802399       73.91621550918035
C           10.83980514395498       28.12495571487020       75.57773693194967
C           10.07224782884497       27.34579287561349       76.50935728415608
C           10.98916144166179       26.80388432829145       77.40035530585985
C           12.28025168459536       27.20990537644337       76.94766848173597
C           14.76209376178828       27.01640996655927       76.96227587532863
C           15.96616046843937       26.43869349412372       77.44419896952814
C           16.98006752360816       26.84472898748794       76.56698666523576
C           16.37210009424763       27.70141777894925       75.62100490420806
C           17.10135907527891       28.43973499535225       74.68730727884601
H           18.16593493036739       28.27823124399278       74.66110338958791
C           13.98264414971234       31.45283703035745       72.58573750677697
H           14.03973988890783       32.28209857415318       71.90015523439894
C           10.29830021955290       29.01617961298712       74.65290484206864
H            9.22430335331019       29.06444645057789       74.56944797253408
C           13.49352446085390       26.76612033430147       77.48860052912094
H           13.45312954224311       26.10731134149210       78.34187333991173
C           18.84329615731084       30.23630457201913       73.02780343668776
H           19.14474447467921       29.25680665722363       72.64756962171958