87
 energy: -128.467559417738 gnorm: 0.000140899391 xtb: 6.7.1 (edcfbbe)
Fe          17.41199137141249       55.21707792935121       35.50615464972758
N           17.09557954897798       57.18762233986899       35.34234328567628
N           15.52375202756683       54.86329640802936       34.93686875530092
N           17.74578273534603       53.24372731071767       35.63640974771361
N           19.28758770060846       55.57156634286209       36.11147502367284
C           17.96932189477952       58.18274827694334       35.63773321255103
C           17.38362798634561       59.47728896970082       35.36167649510640
C           16.13400111976060       59.23610251056521       34.88417301578139
C           15.96996935701061       57.79789715992257       34.88682878800201
C           14.59982580754447       55.78760831324580       34.56384245080640
C           13.34498396440346       55.15683651784242       34.25075203636857
C           13.51665920429631       53.81734189776501       34.47910428645815
C           14.90190852034270       53.65748600888143       34.87940762894016
C           16.85263498222274       52.24929075779885       35.37875080897515
C           17.47030160099437       50.95663648558703       35.52092151377553
C           18.77203973933939       51.18987649287972       35.88312621495653
C           18.91666789975420       52.63161197119218       35.94186711307287
C           20.23679024262025       54.64721716646301       36.41026775020138
C           21.45737728000074       55.29045552402853       36.84628540467979
C           21.21876547507919       56.62851747389324       36.80371965410504
C           19.85845853831889       56.78309174185807       36.33597977943774
C           19.25295101968696       58.00773281135142       36.12218556007628
H           19.83265718992507       58.89429909578629       36.33150645904163
C           14.80654674396220       57.15686043360295       34.51013730590162
H           13.98448857497939       57.77015814217565       34.17227823510577
C           15.52080425179711       52.43355099559575       35.04642994976130
H           14.92022824107415       51.55162784833885       34.88540319998715
C           20.08124740182869       53.27663799824447       36.31992471290384
H           20.93269023193707       52.66360834345540       36.57509694136941
C           15.08929804648107       60.20174233249510       34.43848352128333
H           14.80483631228788       60.00804159204755       33.40393218448489
H           15.45210511818052       61.22448710119865       34.50781898361946
H           14.19501626267396       60.11313091570645       35.05636606975823
C           18.07773060708542       60.77873322650191       35.57834026180906
H           18.98200487613268       60.83778163050171       34.97167599385053
H           18.36543081949355       60.88993331293387       36.62411394345123
H           17.43186849126042       61.61171326344274       35.31100899683612
C           12.10884142108101       55.87291556489061       33.82647480901338
H           11.32076510048039       55.16542880066412       33.58028880459512
H           12.30574721452894       56.49481362998080       32.95272621481198
H           11.74594696404781       56.52098346868888       34.62538801499536
C           12.51515798414125       52.78021155502130       34.34917646023534
H           11.81279453704569       52.91400030881211       33.53254708535029
C           12.36919117355371       51.73435848814173       35.15558988276129
H           13.00122789580572       51.58248491222460       36.01394188180311
H           11.59191979377983       51.00468688301206       34.99773143763070
C           16.80479719453969       49.65195223162876       35.24947653246079
H           17.54946780719696       48.89532829325508       35.00945973789885
H           16.11189016415726       49.73764261409078       34.41363410661437
H           16.23988654721997       49.31360794650212       36.11994073160604
C           19.83531815932075       50.24458970744629       36.13763656787078
H           20.83167922929605       50.58119406876590       35.87409838235698
C           19.68695836776790       49.03249780155914       36.66390328024434
H           18.73091185441569       48.66126317668063       36.98911844200870
H           20.52838027715567       48.37552217705805       36.81119528490548
C           22.69572320769723       54.56383906278018       37.24790640736047
H           23.07545234886019       53.96692545650360       36.41813121089394
H           22.49461178143918       53.89106913746209       38.08226209052302
H           23.47324796271095       55.26124710607639       37.55051949438376
C           22.12521495459417       57.76144420094001       37.14654020753819
H           23.08474905020011       57.39563130552298       37.50425784028847
H           21.68323029210630       58.38418627672249       37.92469793534997
H           22.30278062397439       58.38931857933203       36.27270469803501
C           19.88595053089270       56.21886197279292       30.59332943424963
H           19.26156210849381       56.53990097210674       29.75941761855512
H           20.59682002817442       55.48054438431600       30.22205353661560
H           20.43763423170285       57.07659785042924       30.96520441530761
N           18.25057299279348       54.55589218818849       31.50544445940256
H           18.14077352910359       54.04029845490803       30.64777045240108
C           19.05631001306422       55.65009551744783       31.68585368531000
C           17.63910934063267       54.29973905768426       32.68420792898738
H           16.94863493413345       53.49661728457964       32.84003026793913
N           18.00807382160246       55.16326036637355       33.59765232499683
C           18.88886071311837       56.00966159724845       32.99224080275467
H           19.33968610844655       56.81444259979850       33.53468183302284
C           14.67106552690413       56.14697541086969       40.28928641357493
H           15.17824289306736       56.70615485616441       41.07568437311647
H           14.15666496080757       55.30292810206006       40.74891055017310
H           13.93265379436868       56.79244886911050       39.82403213524383
N           16.68805896079948       54.85075300319847       39.56521706018196
H           16.90492855490533       54.48270829075540       40.47681576628362
C           15.63913896201339       55.68038435564654       39.26436961831583
C           17.36797623565116       54.61927682057014       38.41933432155493
H           18.23961789337961       54.00147993990478       38.35256153037321
N           16.81457074205878       55.25073797762526       37.41384308288724
C           15.73861908490016       55.91529438620243       37.92314998008435
H           15.11265094639696       56.51346634547273       37.29417093257845
