87
 energy: -128.397089147246 gnorm: 0.231336116858 xtb: 6.7.1 (edcfbbe)
Fe          17.49100000000000       55.18000000000000       35.50100000000000
N           17.10100000000000       57.11100000000000       35.32399999999999
N           15.53000000000000       54.88300000000000       34.92000000000000
N           17.86900000000000       53.18299999999999       35.71200000000000
N           19.30100000000000       55.44800000000000       36.02500000000000
C           18.02500000000000       58.07700000000000       35.65800000000000
C           17.45799999999999       59.35400000000000       35.34000000000000
C           16.23900000000000       59.13100000000000       34.80100000000000
C           16.02700000000000       57.74700000000000       34.82099999999999
C           14.68700000000000       55.78000000000000       34.45000000000000
C           13.44400000000000       55.13800000000000       34.19000000000000
C           13.62200000000000       53.81199999999999       34.42600000000000
C           15.00100000000000       53.67700000000000       34.95300000000000
C           16.89700000000000       52.24200000000000       35.57700000000000
C           17.41600000000000       50.99500000000000       35.95600000000000
C           18.73900000000000       51.20700000000000       36.21300000000000
C           19.01000000000000       52.57800000000000       36.03200000000000
C           20.28600000000000       54.56900000000000       36.25100000000000
C           21.52100000000000       55.23499999999999       36.65499999999999
C           21.24600000000000       56.55599999999999       36.66900000000000
C           19.85600000000000       56.67699999999999       36.31000000000000
C           19.26300000000000       57.90900000000000       36.18300000000000
H           19.81100000000000       58.78900000000000       36.51900000000000
C           14.87700000000000       57.14500000000000       34.35700000000000
H           14.09900000000000       57.76100000000000       33.90600000000000
C           15.62100000000000       52.52300000000000       35.27499999999999
H           14.96200000000000       51.65800000000000       35.29299999999999
C           20.20300000000000       53.19899999999999       36.21400000000000
H           21.10700000000000       52.60299999999999       36.33200000000000
C           15.27000000000000       60.16999999999999       34.31600000000000
H           15.20400000000000       60.12700000000000       33.20800000000000
H           15.62100000000000       61.18000000000000       34.61699999999999
H           14.26400000000000       59.97400000000000       34.74499999999999
C           18.10400000000000       60.71700000000000       35.50500000000000
H           19.20700000000000       60.59900000000000       35.57100000000000
H           17.73700000000000       61.19600000000000       36.43800000000000
H           17.86200000000000       61.35600000000000       34.62900000000000
C           12.15100000000000       55.71700000000000       33.64000000000000
H           11.97900000000000       55.32999999999999       32.61300000000000
H           12.22300000000000       56.82500000000000       33.60100000000000
H           11.29900000000000       55.41400000000000       34.28600000000000
C           12.44700000000000       52.90800000000000       34.27300000000000
H           11.71700000000000       53.12299999999999       33.47900000000000
C           12.21300000000000       51.87800000000000       35.00700000000000
H           12.90100000000000       51.60399999999999       35.82000000000000
H           11.32100000000000       51.25800000000000       34.83100000000000
C           16.69500000000000       49.64900000000000       35.97900000000000
H           17.09900000000000       48.99800000000000       35.17400000000000
H           15.60800000000000       49.80199999999999       35.80700000000000
H           16.85800000000000       49.15300000000000       36.95900000000000
C           19.77900000000000       50.29000000000000       36.57800000000000
H           20.79900000000000       50.68100000000000       36.70700000000000
C           19.61500000000000       48.96999999999999       36.77999999999999
H           18.62300000000000       48.50700000000000       36.66900000000000
H           20.47100000000000       48.33700000000000       37.05900000000000
C           22.85700000000000       54.56499999999999       36.96699999999999
H           23.21300000000000       54.01200000000000       36.07100000000000
H           22.73000000000000       53.84800000000000       37.80600000000000
H           23.61000000000000       55.33600000000000       37.23700000000000
C           22.23900000000000       57.68099999999999       37.05800000000000
H           23.24300000000000       57.44899999999999       36.64300000000000
H           22.31300000000000       57.75000000000000       38.16400000000000
H           21.89100000000000       58.64999999999999       36.63999999999999
C           19.65300000000000       56.68900000000000       30.62800000000000
H           18.94300000000000       57.12100000000000       29.89000000000000
H           20.32000000000000       55.96900000000000       30.10700000000000
H           20.25400000000000       57.51100000000000       31.07300000000000
N           18.05300000000000       54.93300000000000       31.45400000000000
H           17.86000000000000       54.55200000000000       30.55000000000000
C           18.89700000000000       55.99099999999999       31.69100000000000
C           17.55100000000000       54.51300000000000       32.59700000000000
H           16.86000000000000       53.67700000000000       32.70000000000000
N           18.03000000000000       55.27400000000000       33.56300000000000
C           18.90500000000000       56.17400000000000       33.02800000000000
H           19.45600000000000       56.86599999999999       33.65300000000000
C           14.38300000000000       55.56900000000000       40.10299999999999
H           14.59600000000000       56.41099999999999       40.79600000000000
H           14.23500000000000       54.64200000000000       40.69700000000000
H           13.46200000000000       55.80099999999999       39.52600000000000
N           16.80100000000000       55.10700000000000       39.58000000000000
H           17.06900000000000       54.97800000000000       40.53500000000000
C           15.53100000000000       55.39100000000000       39.16900000000000
C           17.60300000000000       55.03199999999999       38.53699999999999
H           18.66000000000000       54.77300000000000       38.58199999999999
N           16.89800000000000       55.32200000000000       37.46800000000000
C           15.59600000000000       55.52200000000000       37.82400000000000
H           14.83400000000000       55.73999999999999       37.08600000000000
87
 energy: -128.444385129758 gnorm: 0.089658324003 xtb: 6.7.1 (edcfbbe)
Fe          17.49596647586000       55.19219877104908       35.50173654736613
N           17.11531888435357       57.11876448863920       35.32620205504848
N           15.55166618950452       54.88171541686808       34.91240362100678
N           17.85272933406545       53.20267151850440       35.69816770729661
N           19.32309668522706       55.47380249970260       36.04075280945261
C           18.00940964607028       58.09689028774225       35.66342403062558
C           17.45790623442693       59.38310449759403       35.33928333993954
C           16.23416649752595       59.15847097170818       34.80129587666493
C           16.03493921669705       57.75064709213227       34.81112694095483
C           14.67537721990637       55.78507972382184       34.45336307527776
C           13.43011615481858       55.13730895009732       34.15931074758067
C           13.59538688346936       53.81198567177135       34.43092055835559
C           14.97050022759122       53.67422180326180       34.93303999556755
C           16.88700366239698       52.24375283154510       35.60374701038807
C           17.42201588053864       50.97052955775345       35.95018365994010
C           18.75328794703600       51.17912418026521       36.20616296646109
C           18.99868042792647       52.57915463369773       36.02754378262528
C           20.31298582680204       54.57915185560847       36.25304302328529
C           21.54446938815294       55.23725997988337       36.65175952532411
C           21.26646759724544       56.56310135448094       36.68690074024342
C           19.87879219540182       56.69421749625177       36.31426521777821
C           19.26307157335508       57.91876129394377       36.19024419006499
H           19.81305935759203       58.79343077255179       36.50687364634003
C           14.88112810953589       57.14546062560710       34.35581609409627
H           14.10522329082731       57.75936687911585       33.91813307543614
C           15.58146183309310       52.49904223541466       35.27473397695400
H           14.93668290761948       51.63191439693663       35.27259259029017
C           20.20886851752000       53.20698029166241       36.20894932801998
H           21.10200431244823       52.61309610261289       36.34617533702860
C           15.26367143529242       60.17742404184008       34.31160147301330
H           15.19388582393240       60.13608035685723       33.21806608034503
H           15.59911391429453       61.17398322098735       34.60847818899899
H           14.27172231213823       59.98872970190191       34.73462756943194
C           18.11209030522651       60.71923723195840       35.50778276624015
H           19.19815595859794       60.61206336210597       35.57195200290903
H           17.74882992341745       61.19983012907477       36.42343786831575
H           17.87339603000690       61.35510218537029       34.64979073022434
C           12.15602693987684       55.72784749240257       33.63412412813474
H           11.97259682382003       55.34692892775382       32.62291468187369
H           12.21284603408400       56.81792762568374       33.59804272384941
H           11.31492247659656       55.43169393079231       34.27144193386874
C           12.46839212947570       52.89347003911274       34.26326607981353
H           11.74822074674156       53.13838145358162       33.48188391176119
C           12.21651562292828       51.84576191758178       35.02052346213055
H           12.87745069228304       51.58050890556139       35.83507181565504
H           11.33070361020807       51.24313936586761       34.85645147590211
C           16.68876435533545       49.65895269566995       35.97433490294068
H           17.08312021318052       49.00556513175002       35.18600996534597
H           15.61774276199836       49.79940657676068       35.80794185380860
H           16.82941267098108       49.16866248422715       36.94354001626466
C           19.78761767180937       50.26144130678917       36.58227914983062
H           20.78777910365995       50.67144846936104       36.70797586302959
C           19.63119717016411       48.95319541239268       36.78436687030398
H           18.66868319956215       48.48188449855719       36.67507538547049
H           20.46939784862069       48.32960687204537       37.06031312560778
C           22.85048805527482       54.56267693789549       36.96062099207656
H           23.21180635045174       54.01385687559406       36.08373501877440
H           22.73529113518467       53.85777899461374       37.79137244079249
H           23.59633231647745       55.31391904713203       37.23557404658198
C           22.22773595048140       57.67325248496377       37.05423213203305
H           23.22089630240291       57.45359293329104       36.64916834832210
H           22.30869946569262       57.75272868493300       38.14393716315305
H           21.89803014137449       58.63414276871079       36.65012363007421
C           19.65322350519360       56.68869061633761       30.61739417601617
H           18.96014094629294       57.12079376982383       29.88620315608810
H           20.31999106083378       55.98941942281995       30.10042412763139
H           20.24594412129751       57.49420511210215       31.05879509264513
N           18.05841392268325       54.93662841914605       31.43722432347109
H           17.86018174579698       54.55521505036449       30.52928515110264
C           18.90468001954534       55.98561750109347       31.68327202630551
C           17.55560600458287       54.51668302478885       32.60483776744984
H           16.86750906353511       53.69516700906365       32.70844778374693
N           18.04210742675966       55.24679562555913       33.58335181710267
C           18.89242524645268       56.16063718918070       33.03211649931794
H           19.43401762371735       56.85515279789583       33.64768285365356
C           14.38395492017311       55.57030210007041       40.11102046943169
H           14.58260084397459       56.40040782934352       40.79839665848925
H           14.22604582314460       54.65785647688375       40.69675209724861
H           13.47854722959539       55.79397277000458       39.54093723490549
N           16.79274486485534       55.10278700742787       39.59859911091562
H           17.06507882814931       54.97193928705969       40.55682056773863
C           15.52724989593504       55.39960739440347       39.17929993242330
C           17.59528729773010       55.03464440516891       38.52824433223446
H           18.64203882930447       54.78557830504028       38.57062713305343
N           16.89892897446491       55.28955690494460       37.44509242112366
C           15.61013566020577       55.52346810850874       37.82559108298165
H           14.85182817719622       55.74244562962374       37.09837491863259
87
 energy: -128.456601809070 gnorm: 0.024236363783 xtb: 6.7.1 (edcfbbe)
Fe          17.49117079058744       55.19720638128664       35.50137449892927
N           17.13390737767302       57.13001339202695       35.33107361745906
N           15.56922541414713       54.86690192731132       34.90423971116020
N           17.82682980421289       53.21677151891979       35.69712018226319
N           19.33986355397597       55.50132316269688       36.05484152725376
C           18.00347761319852       58.11762225076514       35.66857008144546
C           17.45765252499309       59.40920258174570       35.34094700431227
C           16.23182130890288       59.17889685976985       34.80127728495349
C           16.04601220215686       57.75298946514330       34.80562844652942
C           14.67149657880684       55.77758712437441       34.45194575441268
C           13.42586192523738       55.13328038145213       34.13415722556362
C           13.57932382229177       53.80597068164258       34.43662464738461
C           14.94706281878442       53.66149738236226       34.91500121703698
C           16.86890114161279       52.24756647058064       35.62268016093024
C           17.41949526169381       50.95923703759274       35.94241100950943
C           18.75776874238062       51.16426408467499       36.19173890391895
C           18.97912823804720       52.58453681602323       36.02276146236844
C           20.32873757957733       54.59065266693553       36.25592036651696
C           21.55985859174361       55.24191957390101       36.64580700696225
C           21.28508133739031       56.57225319768359       36.69851951859353
C           19.89831711566200       56.71339160089613       36.32095053759556
C           19.26640627841130       57.93263202981633       36.19533734461500
H           19.82018928034427       58.80866842142247       36.48975470854547
C           14.89324974544565       57.13856031874238       34.35652509235688
H           14.11430503786685       57.75608527934430       33.93697196188197
C           15.54615209200078       52.47091862950527       35.26946408879302
H           14.91217353302853       51.59925974582952       35.24221400134947
C           20.19724052178293       53.21771262081739       36.20541178849599
H           21.08246214721951       52.62295936843265       36.36543976158489
C           15.25451469586393       60.18464915823495       34.30542099021844
H           15.17854890296867       60.14361815547259       33.21913210363416
H           15.57360760730040       61.18055339781499       34.59537228274874
H           14.26852732121841       60.00009262570338       34.72499385134473
C           18.11930349168518       60.73062533676092       35.51432626062635
H           19.19708907608168       60.62569471731065       35.57685248439461
H           17.76410571548493       61.21604292878892       36.42271737518410
H           17.88585450216176       61.37107890726824       34.66732023070408
C           12.16484807842365       55.74399863557639       33.62560956043185
H           11.96054497996918       55.37398498962673       32.62021531792469
H           12.21732714142899       56.82573583490557       33.59277297453907
H           11.32797976468562       55.45689303971241       34.26126798304843
C           12.48836121234222       52.87303372006614       34.27568766915830
H           11.78839644871279       53.12808131659927       33.48740469266057
C           12.22198881537657       51.82080685032994       35.04156883907451
H           12.86133432783720       51.55333250320918       35.86065481218958
H           11.34937136603473       51.21709627295428       34.86916765958789
C           16.67748207005505       49.66900946614791       35.97017361271691
H           17.06462878424215       49.00464250527457       35.19643266834924
H           15.61562103040020       49.80961358548209       35.79981302167862
H           16.80021821437747       49.18179659131030       36.93651945276257
C           19.79147992386498       50.24123847393042       36.57419488724213
H           20.77655780767299       50.67034526265111       36.70605964088639
C           19.64937301726414       48.93367019275459       36.78232884113841
H           18.70717694211296       48.44000099291951       36.67871513782458
H           20.48295113358366       48.32090376832602       37.06917375220541
C           22.84751644897303       54.56104342445259       36.95377993743453
H           23.20940191492961       54.00829972607216       36.08839786199853
H           22.73222345172205       53.86115438537383       37.78003113159848
H           23.59727150799886       55.29581490125843       37.23389990456645
C           22.22612042428874       57.67015150695419       37.05607700257165
H           23.21568426785032       57.45881645768158       36.65636873599784
H           22.30920917602997       57.76218716115359       38.13890974499058
H           21.89786446881777       58.62375792250316       36.65580859013104
C           19.65355653297702       56.68898615201877       30.61062546467465
H           18.96830881803568       57.12028751869946       29.88289076844954
H           20.32095950283735       56.00353550372043       30.09079375796227
H           20.24328532077327       57.48604152860150       31.04956126854423
N           18.06152801164803       54.93533408890938       31.42656486644290
H           17.85653345806019       54.55572861629516       30.51692079545560
C           18.91106224006718       55.97830137263187       31.68024529572174
C           17.56329537610259       54.51280198455314       32.61010532705183
H           16.87355169786020       53.70224564867696       32.71486207875271
N           18.04577014436425       55.22774500636936       33.59566666156279
C           18.88815317432908       56.14278245297546       33.03516583491196
H           19.41955391213641       56.84586007391595       33.64186985201400
C           14.38471352580332       55.57536615651554       40.11752068919104
H           14.57118162413776       56.39746495322511       40.80671561072283
H           14.22363775428974       54.66877402294533       40.69815131672951
H           13.48566690759499       55.79113224889622       39.55100335910504
N           16.79060928980858       55.09979600863075       39.60907435637165
H           17.06868406836903       54.96672630609727       40.56760821636309
C           15.52668815383005       55.40855912429442       39.18563764847492
C           17.58640383845571       55.02657018942583       38.51829721521190
H           18.62817551305684       54.78681044442581       38.55675196959735
N           16.89810491942318       55.26840913015224       37.42933694646216
C           15.61830338954785       55.51722053263709       37.82791372852829
H           14.85861641555615       55.74487524911046       37.11183904741239
87
 energy: -128.459423097376 gnorm: 0.015208432201 xtb: 6.7.1 (edcfbbe)
Fe          17.48490441205993       55.19803196676461       35.50141303706055
N           17.14609124182653       57.14193566587089       35.33431746866063
N           15.57532460087842       54.85450456191280       34.90269609299011
N           17.80580718175633       53.21879184259581       35.69936753368945
N           19.34544775677288       55.51966692055579       36.06335227179828
C           18.00773183475032       58.13443553896075       35.67012587820289
C           17.45655299402193       59.42672452352168       35.34296599738040
C           16.23127328623158       59.18993636781941       34.80113400686007
C           16.05314174673657       57.75725225315120       34.80657610444349
C           14.67600330322078       55.76925521973497       34.44771044587680
C           13.42940468781168       55.13136739525941       34.12431984030368
C           13.57611343234367       53.80221862470206       34.43860790488991
C           14.93841839272726       53.65203143404224       34.90945513159814
C           16.85368488550542       52.24617999977031       35.62180050021334
C           17.41067787004671       50.95580533826219       35.93373657652871
C           18.75085721389515       51.15945211504650       36.18005959498031
C           18.96193857756180       52.58819376666056       36.02150566040865
C           20.32817431559706       54.59967094986707       36.26209821776220
C           21.56271360845679       55.24605728777815       36.64486499751998
C           21.29491747677792       56.57892057310887       36.70285290293084
C           19.90822529197867       56.72877435900488       36.32542294261317
C           19.27412320715001       57.94838260047315       36.19407543402888
H           19.83206579854012       58.82871223089199       36.47229820470078
C           14.90543320708510       57.13246975368849       34.35927677166115
H           14.12236708915882       57.75327042107224       33.95174414684530
C           15.52827487640741       52.45343496807512       35.26011517184929
H           14.89757382183285       51.57861192109866       35.20869947482883
C           20.17789683578394       53.22690760641044       36.21088894266203
H           21.05916458492732       52.63011593209319       36.38676674540337
C           15.24555526866947       60.18842192928789       34.29979062328580
H           15.16458617758935       60.14286219199732       33.21357565587079
H           15.55320345129738       61.19172273247577       34.58152519955460
H           14.25947911443290       60.00247509207836       34.72057443837384
C           18.12246939116491       60.74726823169041       35.52265151767745
H           19.20098419880580       60.63982977211475       35.58310373007640
H           17.77525790896258       61.23437192076647       36.43403764238612
H           17.89294728138024       61.39786426331537       34.68118535651402
C           12.17504356398019       55.76052877971163       33.61883307997961
H           11.95473529999541       55.40130715371504       32.61150935773101
H           12.24101564880153       56.84255390513948       33.58895292585221
H           11.33538109840231       55.48552684646140       34.25706346879610
C           12.50242708830424       52.84836514023116       34.28654930404417
H           11.81086566521390       53.09624164499646       33.48925965033724
C           12.23791750155362       51.79399822022989       35.05342141444340
H           12.85197526649999       51.54054994363724       35.89971548259902
H           11.37084708894455       51.18193624731133       34.87765274968738
C           16.65726724428938       49.67310490584471       35.96707957367227
H           17.04484340802125       48.99161973720496       35.20766934958316
H           15.59876805632391       49.82385159559261       35.78120384798733
H           16.75786212053412       49.19617367205087       36.94237039232087
C           19.78738749954459       50.23458753689338       36.56480361257834
H           20.76635348256577       50.67678737137845       36.69919874695865
C           19.67009649554661       48.92326928167905       36.77704849638864
H           18.74537140734150       48.39308717954847       36.66399126926468
H           20.51623422446958       48.32842107588061       37.07429311159404
C           22.84644307837975       54.55499337863714       36.94884801444307
H           23.20355801647153       53.99635151105478       36.08445590903583
H           22.72497168052340       53.85538449234662       37.77524842861011
H           23.60620902891869       55.27999913086573       37.22992058741430
C           22.23511641971743       57.67636378755116       37.06087808820001
H           23.22794113476282       57.46801514675047       36.66666533608639
H           22.31533733597466       57.77670766584529       38.14410312771912
H           21.90455982260389       58.62846981647851       36.65723109886339
C           19.65320405015741       56.68574584580441       30.60759706178402
H           18.96603025491696       57.11773639584328       29.88178646770449
H           20.32350769586897       56.00722976232920       30.08112134767033
H           20.24205465273799       57.48358328710636       31.04700069753674
N           18.06416277110586       54.92636193126587       31.42207646620882
H           17.85447034663535       54.54952600881953       30.51211719540216
C           18.91458178069600       55.96910419481715       31.67855913859613
C           17.56740580621739       54.50304941954650       32.60893872732295
H           16.87264501368924       53.69688090171501       32.71448862123029
N           18.04823943683981       55.21493157878857       33.59661429518326
C           18.88991447312223       56.12951258810449       33.03416148320741
H           19.41538925305154       56.83976905630858       33.63726783508722
C           14.38590594550156       55.57986494574443       40.12523646455336
H           14.56751577216701       56.40037219297268       40.81807698330281
H           14.22472223230574       54.67188605575439       40.70443067270962
H           13.48601344485293       55.79406025808434       39.55881774794608
N           16.79161198652856       55.09575471296767       39.61077617466672
H           17.07507851418472       54.95930808096959       40.56756218860465
C           15.52684805500524       55.41364371320845       39.19076426450322
C           17.57903498460438       55.01446496724050       38.51150030995873
H           18.62144025100032       54.77715373115539       38.54404826828395
N           16.88992978884545       55.25771921563624       37.42474225593155
C           15.61462461983054       55.51531308630192       37.83265931580240
H           14.85035386830470       55.75190463055784       37.12399743018239
87
 energy: -128.460713807952 gnorm: 0.009981084790 xtb: 6.7.1 (edcfbbe)
Fe          17.47723923508872       55.19752836103888       35.50287683357553
N           17.15650056508729       57.15531275798818       35.33647005268531
N           15.57895910305073       54.84572268370485       34.90387912720922
N           17.78603017693554       53.21827998242558       35.70034078962096
N           19.34844746611101       55.53707534104328       36.07233381347658
C           18.01522657393559       58.15132297233365       35.66909940014596
C           17.45520169236287       59.44339620223128       35.34394884893613
C           16.23091841879916       59.20007091109374       34.80174087415877
C           16.05895603567460       57.76354820427866       34.80975393738773
C           14.68213207100663       55.76343757070119       34.44477964223901
C           13.43406999248902       55.13208469798379       34.11915444237358
C           13.57430046654736       53.80255871549738       34.44076054742275
C           14.93382691389229       53.64661696426105       34.90737359096598
C           16.83904303008898       52.24315818298676       35.61432700405182
C           17.40176629289635       50.95292395669004       35.92115938528760
C           18.74062759931328       51.15879145429912       36.16819936448562
C           18.94520892209139       52.59288689768941       36.02195383879909
C           20.32318665973468       54.60945590527857       36.27198029224585
C           21.56235070636977       55.25036495317452       36.64871597041555
C           21.30391926890258       56.58557625068631       36.70522231163272
C           19.91709798902817       56.74450425897158       36.32811303619074
C           19.28475432040069       57.96570743303505       36.18793068012634
H           19.84574740531969       58.84939086930532       36.45336624514444
C           14.91701390627447       57.12832667203437       34.36449093782677
H           14.13147570239263       57.75093217187029       33.96346126563795
C           15.51485549775797       52.43989331109009       35.24680720042004
H           14.88438566838102       51.56626601298608       35.17338892588908
C           20.15559737291757       53.23763942207880       36.22269741811022
H           21.03324546452781       52.63840252590950       36.41137127574370
C           15.23654193717658       60.18981537039689       34.29521252753793
H           15.15104697330276       60.13470767556477       33.20867637554550