72
 energy: -105.899174944135 gnorm: 0.261323958106 xtb: 6.7.1 (edcfbbe)
Fe          -0.48000000000000       22.19700000000000       18.64099999999999
N            1.32500000000000       21.56800000000000       19.35600000000000
N            0.44400000000000       22.89900000000000       17.00600000000000
N           -2.28700000000000       22.95100000000000       17.98700000000000
N           -1.41600000000000       21.61700000000000       20.37600000000000
C            1.52200000000000       20.87600000000000       20.52700000000000
C            2.91700000000000       20.48200000000000       20.61100000000000
C            3.53100000000000       20.95200000000000       19.50700000000000
C            2.54800000000000       21.65100000000000       18.71400000000000
C            1.79100000000000       22.81200000000000       16.69200000000000
C            1.97200000000000       23.32600000000000       15.36800000000000
C            0.78600000000000       23.72500000000000       14.88400000000000
C           -0.19600000000000       23.43900000000000       15.89900000000000
C           -2.51300000000000       23.41300000000000       16.71300000000000
C           -3.93500000000000       23.65000000000000       16.56200000000000
C           -4.52200000000000       23.33900000000000       17.73100000000000
C           -3.50800000000000       22.88400000000000       18.63300000000000
C           -2.75500000000000       21.85700000000000       20.70400000000000
C           -2.96900000000000       21.39700000000000       22.04200000000000
C           -1.65900000000000       20.81200000000000       22.52900000000000
C           -0.74600000000000       20.99600000000000       21.43200000000000
C            0.56500000000000       20.58500000000000       21.46200000000000
H            0.87100000000000       19.97000000000000       22.30800000000000
C            2.76000000000000       22.28200000000000       17.49800000000000
H            3.79100000000000       22.36300000000000       17.15400000000000
C           -1.54300000000000       23.66800000000000       15.76000000000000
H           -1.87900000000000       24.08900000000000       14.81200000000000
C           -3.69900000000000       22.45200000000000       19.91600000000000
H           -4.69000000000000       22.59500000000000       20.34700000000000
C            5.02000000000000       20.81400000000000       19.11700000000000
H            5.51900000000000       20.09800000000000       19.80500000000000
H            5.52300000000000       21.80100000000000       19.19900000000000
H            5.10200000000000       20.43100000000000       18.07700000000000
C            3.53300000000000       19.65200000000000       21.77100000000000
H            3.30200000000000       18.57600000000000       21.62000000000000
H            3.10000000000000       19.98100000000000       22.73900000000000
H            4.63600000000000       19.78600000000000       21.78400000000000
C            3.34700000000000       23.41600000000000       14.69400000000000
H            3.47500000000000       22.56000000000000       13.99700000000000
H            4.14600000000000       23.37600000000000       15.46500000000000
H            3.42200000000000       24.36300000000000       14.11900000000000
C            0.44900000000000       24.37400000000000       13.53100000000000
H           -0.54000000000000       24.83700000000000       13.40700000000000
C            1.26600000000000       24.42700000000000       12.47100000000000
H            2.27200000000000       23.98500000000000       12.51900000000000
H            0.94100000000000       24.91300000000000       11.53900000000000
C           -4.61300000000000       24.16700000000000       15.28200000000000
H           -4.90600000000000       23.30600000000000       14.64400000000000
H           -3.90600000000000       24.81100000000000       14.71600000000000
H           -5.52400000000000       24.74500000000000       15.54700000000000
C           -6.01000000000000       23.39500000000000       18.14400000000000
H           -6.27100000000000       23.53100000000000       19.20400000000000
C           -7.00800000000000       23.28700000000000       17.28100000000000
H           -6.80600000000000       23.15000000000000       16.20800000000000
H           -8.05200000000000       23.33299999999999       17.62600000000000
C           -4.29100000000000       21.46200000000000       22.82400000000000
H           -5.07100000000000       20.88400000000000       22.28300000000000
H           -4.62300000000000       22.51899999999999       22.91300000000000
H           -4.15200000000000       21.02100000000000       23.83400000000000
C           -1.33800000000000       20.19000000000000       23.90600000000000
H           -1.37300000000000       19.08200000000000       23.83000000000000
H           -2.09000000000000       20.52400000000000       24.65300000000000
H           -0.32000000000000       20.49700000000000       24.22800000000000
O           -0.07600000000000       24.13900000000000       19.54200000000000
H            0.37800000000000       24.65100000000000       18.87300000000000
H           -0.28400000000000       24.41200000000000       20.36200000000000
C            0.21000000000000       18.96400000000000       17.90300000000000
H            0.10800000000000       18.07000000000000       17.25100000000000
H            0.05000000000000       18.64200000000000       18.95400000000000
H            1.24600000000000       19.35100000000000       17.79500000000000
S           -0.98600000000000       20.24600000000000       17.45400000000000
H           -0.40400000000000       20.54900000000000       16.30300000000000
72
 energy: -105.952883850374 gnorm: 0.107904801529 xtb: 6.7.1 (edcfbbe)
Fe          -0.48530332695555       22.20324811150284       18.63941629319542
N            1.31858506142056       21.55752110539444       19.34891595207868
N            0.43327216451989       22.89146818770607       16.99078742456322
N           -2.28866471492774       22.93040232547674       17.98071051633343
N           -1.40260639579907       21.61954956787357       20.36923682086382
C            1.52023441684456       20.86742892738405       20.51311731926940
C            2.91849683667109       20.47552217926136       20.61631132109669
C            3.54052186522779       20.95691132130384       19.50933846965781
C            2.53677440848310       21.64680436056260       18.72335817313874
C            1.77358741249796       22.81674774358397       16.68474344066060
C            1.98847260732670       23.34131785925728       15.35918007184361
C            0.78195551568781       23.73671614383148       14.86270270947917
C           -0.19368669130520       23.44262075446025       15.89706346636340
C           -2.52687743638984       23.41209356673815       16.72543791599196
C           -3.94873841291724       23.65597339319055       16.55917540817790
C           -4.54309895171974       23.34221101812248       17.74442862728154
C           -3.49604474913806       22.88437953334046       18.63213504336529
C           -2.71384439715929       21.84855145618719       20.73305148043455
C           -2.93581220490754       21.37486642870823       22.07155490915648
C           -1.70176617963680       20.82658515189161       22.52020446488191
C           -0.77984456998580       20.99857733099402       21.42663708265114
C            0.54940810246009       20.58706778351711       21.45527042232014
H            0.86053008246275       19.99032141369652       22.30685481781613
C            2.74903943933642       22.27927043363843       17.50577482714707
H            3.77641397992100       22.34388018370430       17.16068104350144
C           -1.55124604457509       23.66668726588405       15.77016005252257
H           -1.88431599436925       24.08169425552382       14.82604619489005
C           -3.67580728513630       22.44524574540048       19.92901616153843
H           -4.66934005292835       22.57202170800915       20.35007010965697
C            5.00005514341251       20.81647394138190       19.12207519055865
H            5.50589330123271       20.11220261967456       19.79050539069802
H            5.50963955771016       21.78445650358585       19.19337601713880
H            5.09591954099466       20.44261057098274       18.09643575635063
C            3.52035966788947       19.66449017576964       21.75240552178295
H            3.30163690689778       18.59784708820695       21.61804432536006
H            3.10775408898742       19.97971587178270       22.71597854200851
H            4.60781753805588       19.78848026821119       21.78205729242815
C            3.34225010149296       23.41745367710087       14.69996399342719
H            3.47603802689799       22.57475552946861       14.00965623721529
H            4.13799971928545       23.38025832813140       15.44844452167587
H            3.43050861220448       24.35137128787482       14.13753820128508
C            0.46043501784914       24.36148759675974       13.54765492653214
H           -0.52322062972112       24.81767143012322       13.44133011981011
C            1.26379293733272       24.42072493195198       12.48692448558301
H            2.25233773032353       23.98422723492929       12.49924242367862
H            0.94625144388399       24.90287083967964       11.56667529363006
C           -4.60274717764574       24.16400827438759       15.29500764851852
H           -4.89644207695319       23.32190158746806       14.65533544669285
H           -3.91770848910732       24.80172580432006       14.72751942337091
H           -5.49991314418133       24.74030953486730       15.54292168358921
C           -5.98717004903843       23.39900281536218       18.12974388026701
H           -6.22812048179162       23.52803504046691       19.18483639551785
C           -6.99758301800178       23.28947349684004       17.27673128954442
H           -6.82451402090096       23.13883505383236       16.21958564927726
H           -8.02910641029213       23.33218643724074       17.61563239887878
C           -4.25503992385359       21.45348490273099       22.81472482102782
H           -5.04133399860371       20.89364494609683       22.28935279399422
H           -4.60101580528243       22.49246248883717       22.90932217672559
H           -4.15199450053953       21.02930552854502       23.81753313877514
C           -1.36089766849428       20.20846507713473       23.86793833481962
H           -1.37999400157680       19.11028109190331       23.81893136271981
H           -2.07927581526778       20.52153899638198       24.63267446566229
H           -0.35676298954461       20.50078081753399       24.20456492350724
O           -0.06971679435607       24.13130515376654       19.52549152555749
H            0.38247349338648       24.67143458203321       18.87963221917045
H           -0.28579678309361       24.43570373641664       20.38802273184790
C            0.22478065244466       18.95105408105249       17.90098722136695
H            0.10303452444614       18.07713449255767       17.25202639959073
H            0.04873871135410       18.65482733355097       18.93911165965955
H            1.23910101275156       19.34765420962707       17.80320714702559
S           -0.98413714347846       20.23218544280410       17.46755569293062
H           -0.40762129211820       20.54547592248180       16.30692079092143
72
 energy: -105.967774410808 gnorm: 0.038553651189 xtb: 6.7.1 (edcfbbe)
Fe          -0.49498136482096       22.20486969124877       18.64045781509352
N            1.30513829979297       21.54590361281106       19.34246871233604
N            0.42164815795373       22.88623627020398       16.98013226770263
N           -2.28560507441275       22.91825239776794       17.98030664330266
N           -1.39020720289181       21.62695462762902       20.36732532288297
C            1.51046945034030       20.85851251784588       20.49934657126287
C            2.90878374228147       20.47128867991477       20.61500206466459
C            3.53580913547812       20.96240128366477       19.50780823588591
C            2.51592767417248       21.64108746885114       18.72638741907555
C            1.75403505485632       22.81757062905150       16.68232244298040
C            1.99842601085112       23.34977348557776       15.36084629105494
C            0.77972720074496       23.74191127864830       14.85435129124189
C           -0.19377633755979       23.44081694971664       15.89703247134399
C           -2.53257027136719       23.40572110214613       16.73634995532900
C           -3.95009978519084       23.65679283884015       16.56167971892404
C           -4.54983080484289       23.33804154820234       17.75596850702073
C           -3.47894173507166       22.87938640242191       18.63242393924631
C           -2.68053598451968       21.84538741740302       20.74359142606636
C           -2.90399535153756       21.35984767478704       22.08846625186488
C           -1.73386444513947       20.83793902712551       22.50935701780586
C           -0.79636679221409       21.00359602741645       21.41872917903489
C            0.53637365770298       20.59069945062088       21.44911421418590
H            0.85116569770139       20.01585421985713       22.30983503286229
C            2.73127146679462       22.27136306454271       17.50965390357834
H            3.75508435014357       22.31848205742491       17.16273914881729
C           -1.55775670859123       23.65933708005391       15.77817164139541
H           -1.89228823722547       24.07414562840948       14.83929647071835
C           -3.65269388030515       22.43356838706203       19.93450396866610
H           -4.64610622275249       22.54066152715605       20.35116003556408
C            4.97408606836120       20.82454448447875       19.12542312509786
H            5.48259371506922       20.12566129830159       19.78458457923503
H            5.48955841458915       21.78282253081776       19.18788020654873
H            5.07534336460270       20.45482327890749       18.10648971152699
C            3.50259619428018       19.67816378583856       21.73287496870005
H            3.28957478971748       18.61546828813802       21.60876157699613
H            3.10103000747957       19.98871821508270       22.69446883847714
H            4.58269436091484       19.79920911860203       21.76721129772268
C            3.33714392360939       23.42290179821147       14.71232841151977
H            3.47318595815668       22.58923858757225       14.02192345822580
H            4.13326011701026       23.38189577589903       15.44845342622491
H            3.43651565747942       24.35008634979743       14.15431643622478
C            0.47123090950294       24.34840812812102       13.57704971920298
H           -0.51139808549392       24.79768769078945       13.48950359492330
C            1.26001490506568       24.40979608876016       12.50577937477023
H            2.23914318431201       23.97350759204483       12.47919505272786
H            0.94138484072225       24.89573345452839       11.59790841921093
C           -4.58930861748435       24.16358255282877       15.31331231264735
H           -4.88358962338600       23.33206091468209       14.67080906163616
H           -3.91248755443189       24.79643997732517       14.74589305859136
H           -5.48058485047873       24.73989240085829       15.55020261964778
C           -5.95226780595206       23.39540829687837       18.11738275613565
H           -6.17407127580064       23.52561182318176       19.17041105402317
C           -6.97791393068835       23.28768501775956       17.27561776660740
H           -6.83654074048094       23.12319139886637       16.22458759400513
H           -7.99943629920470       23.33857597610192       17.61570035358098
C           -4.21589190814896       21.44576211356773       22.80711245352919
H           -4.99499574611157       20.89368884520714       22.27809452079800
H           -4.55928700910304       22.47845769457668       22.89542241188627
H           -4.13560305510118       21.03022755675450       23.80797418820072
C           -1.38584442211584       20.22424175149033       23.83308710639942
H           -1.39603971345229       19.13273601285919       23.78411131961274
H           -2.09038578182515       20.52788890062651       24.60369948892246
H           -0.38882091165364       20.52083406706912       24.16247876434643
O           -0.06210207762294       24.12543704614559       19.51837046754009
H            0.38456445416073       24.71148903760163       18.90493309219065
H           -0.28313927328063       24.45881325995578       20.38798022332653
C            0.23784097820212       18.93787697509088       17.90299165198967
H            0.10226888366961       18.08051500828026       17.25147634831428
H            0.05096383976110       18.65728446927415       18.93330331560153
H            1.23754133831951       19.34351775368125       17.80980979334510
S           -0.98850499984639       20.21707305166413       17.48046586033061
H           -0.42156192369404       20.54163928538062       16.31079225954832
72
 energy: -105.971301349610 gnorm: 0.019085397691 xtb: 6.7.1 (edcfbbe)
Fe          -0.49708982333832       22.21067063048266       18.64396910788508
N            1.28991629412665       21.53465381558593       19.33550857666966
N            0.41603667974712       22.87832984052045       16.97767657062502
N           -2.27585331258766       22.91017313663832       17.97937536230964
N           -1.38217546315594       21.63147213746197       20.36414577250754
C            1.50023274211752       20.85091374409619       20.49007929996949
C            2.89533233498824       20.47047689739146       20.60679423526781
C            3.52037420612858       20.96308147962574       19.50151399902332
C            2.49803187624248       21.63255830552013       18.72063801937389
C            1.74614516378062       22.81063083586450       16.68375415097249
C            2.00148821549284       23.34876194658323       15.37040803256560
C            0.78310841255072       23.73905246965083       14.86147062483290
C           -0.19362237493005       23.43643776898666       15.89779020872104
C           -2.52415381477423       23.39892602431429       16.73703701628033
C           -3.93653648406219       23.65106474233108       16.56212853474427
C           -4.53626882481172       23.32819606019323       17.75431532779272
C           -3.46512834595979       22.87229988422257       18.62938648502812
C           -2.67089813360980       21.85077601999640       20.73384094542452
C           -2.90259216415713       21.36474606537825       22.07893185422359
C           -1.72568903892778       20.83490049489930       22.50215772910594
C           -0.78858546684875       21.00345322446860       21.41090609657610
C            0.53538342402439       20.58930801570222       21.44649530440637
H            0.85264603247324       20.03418528720390       22.31848610236771
C            2.71932230763202       22.25781601222515       17.50709542306691
H            3.74130908279325       22.28817861319855       17.15707064975728
C           -1.55589892768903       23.65434926995768       15.77773567642737
H           -1.89626788164712       24.06770904858292       14.84102567384399
C           -3.64297406577113       22.42723435648979       19.92866480950953
H           -4.63822010413477       22.51164970444556       20.34314331215807
C            4.95527976667009       20.83490382667827       19.11927457075031
H            5.46530453897748       20.13855280729626       19.78007427409733
H            5.46509344956937       21.79662433284256       19.17890827566283
H            5.05376805348239       20.46515355315406       18.09988238273189
C            3.48687638354023       19.68431023859903       21.72498470099057
H            3.27089341024593       18.62163456565021       21.60408686803169
H            3.08535554176769       20.00210379652349       22.68437449457183
H            4.56664530318731       19.80801239299748       21.75440917497699
C            3.34159265237870       23.43166673974607       14.72942416706937
H            3.47956323473977       22.60497982620768       14.03019130086624
H            4.13734440933746       23.38348396644359       15.46669955624164
H            3.44403700780610       24.36501426801054       14.18055161916821
C            0.47189799013410       24.34484547595616       13.59260431548840
H           -0.50940024371003       24.79963577615566       13.52486933508092
C            1.24734012617351       24.40264414350699       12.51070775708837
H            2.21783660405555       23.94406275291805       12.45479578710521
H            0.91844755070884       24.89971097841613       11.61374892813195
C           -4.57360694573806       24.16992529467326       15.32181223503612
H           -4.87107116622082       23.34279041516925       14.67472664747264
H           -3.89266964287614       24.80402247016412       14.76015847388277
H           -5.46229319714147       24.74823489144925       15.56488149214727
C           -5.93126927039825       23.39235890022388       18.11641912334215
H           -6.13874142622863       23.52542821546106       19.17181352893188
C           -6.96388037595484       23.28683779421710       17.28232060526975
H           -6.83885713025394       23.09533300787927       16.23131003216083
H           -7.98080367763875       23.34862868584119       17.63132367421235
C           -4.20581656710201       21.44758636392860       22.79783012822296
H           -4.97439628071816       20.89168791783148       22.26094443191167
H           -4.53757841099454       22.48249696888789       22.88223031866419
H           -4.12202599617134       21.03096732915541       23.79791621899541
C           -1.39121527093448       20.22317308150376       23.82004098368738
H           -1.40259405013928       19.13418312180530       23.75735385109396
H           -2.10544474352759       20.52712346798849       24.58068969238811
H           -0.39877963414696       20.53197145291370       24.14459654025902
O           -0.04375110920925       24.13620496684959       19.52651010804404
H            0.37979623912225       24.75862519007471       18.92793450381654
H           -0.28805700911600       24.48509073067389       20.38613787491937
C            0.24413637749681       18.92740575337777       17.90812112379628
H            0.10521407299425       18.07564948677094       17.24980089870688
H            0.06011622162219       18.64407906740281       18.93772356516367
H            1.24116965487123       19.34044499109698       17.81368302302800
S           -0.99634198444356       20.20408069952288       17.50365338739604
H           -0.44948700190993       20.53132446201752       16.32393512796060
72
 energy: -105.973581584881 gnorm: 0.021729505538 xtb: 6.7.1 (edcfbbe)
Fe          -0.49628944158095       22.20508221157792       18.64387061159255
N            1.27063666895529       21.52550948593143       19.32973040654301
N            0.41088267878239       22.86506603223225       16.97529195452686
N           -2.25667473762540       22.90375030441742       17.98200523693316
N           -1.36848320467672       21.64218819139356       20.35724394568253
C            1.48835578115713       20.84682865760761       20.48329013110418
C            2.87907402991889       20.47030136509157       20.59786863337235
C            3.50041797644569       20.96177535816788       19.49275377099237
C            2.47638809884513       21.62203604053401       18.71298043785847
C            1.73920091420268       22.80037048015545       16.68468494231742
C            2.00437818292266       23.34403139592753       15.38048988462373
C            0.78798977898280       23.73373980747051       14.86936157384134
C           -0.19146356795294       23.42885691847014       15.89752816918371
C           -2.50830497977818       23.39222933063940       16.73874978200394
C           -3.91571698135941       23.64288115608761       16.56370131696767
C           -4.51541529110719       23.31435424628470       17.75246280235234
C           -3.44561628534469       22.86185753501362       18.62588707731549
C           -2.65730338224184       21.85709993962013       20.72007412031122
C           -2.89628453688833       21.37006240225306       22.06356094203395
C           -1.71799695478895       20.83647126184439       22.49032905325328
C           -0.77826988267447       21.01015688871849       21.40297502462441
C            0.53551574525057       20.59324677156554       21.44980760639771
H            0.85219139636248       20.05276039980024       22.32914115923388
C            2.70718301632864       22.23718028291057       17.50090100281739
H            3.72701815582203       22.24840622054922       17.14804361227231
C           -1.55075498450885       23.64709547915089       15.77455445318967
H           -1.90035936494614       24.05620999215016       14.83971960064681
C           -3.63281117458861       22.41518062919848       19.92003411174293
H           -4.62919987107253       22.47451244272456       20.33267254597085
C            4.93394764861063       20.84743521584817       19.10703505302108
H            5.45174989000694       20.15771995402721       19.76961692582895
H            5.43223630393967       21.81628173907963       19.16249626304021
H            5.03089688143403       20.47659427797529       18.08702938059804
C            3.46874287516537       19.68985974930717       21.71981644727137
H            3.24445653113017       18.62746175273832       21.60700045644549
H            3.06930306668275       20.01948284133562       22.67692333715859
H            4.54942793283218       19.80995462028029       21.74350326668318
C            3.34622695684897       23.44447883112065       14.74649924700886
H            3.49318900582404       22.62708799985641       14.03693093983760
H            4.14001533602624       23.39301378182967       15.48798346416848
H            3.44200668948310       24.38544737989541       14.20672957876051
C            0.47181300899611       24.34646714535408       13.60671115804756
H           -0.50072452580392       24.82383749821551       13.56268205076987
C            1.23044030223342       24.38778907266451       12.51241178094599
H            2.19617129569165       23.92192013845875       12.43926704694793
H            0.89177071839089       24.89889168357741       11.62659180488499
C           -4.55303871970209       24.17922552286690       15.33195431735460
H           -4.85500039082568       23.36184833292156       14.67354468052214
H           -3.86897867369346       24.81952615754258       14.77908118634092
H           -5.43984542131367       24.75693475130817       15.58674656506310
C           -5.90756299277949       23.38366273305962       18.12050684682773
H           -6.10156387382804       23.53711274450864       19.17618804302370
C           -6.94589996786951       23.27269220537469       17.29533521102669
H           -6.83597456980986       23.07788873866636       16.24324433221789
H           -7.95844273910654       23.36078467621644       17.65341025896582
C           -4.19566996472117       21.45170857824683       22.78155177628065
H           -4.95992570286354       20.89317661178815       22.24297831603839
H           -4.52322725661554       22.48716725929976       22.86483839458854
H           -4.11031704970384       21.03456134034685       23.78187983378290
C           -1.39661823907569       20.21911992662772       23.80451693106855
H           -1.40242070483375       19.13143768999080       23.73170193430139
H           -2.12458587826770       20.51469941503325       24.55624923849338
H           -0.41144084247519       20.53563900910529       24.13966716411067
O            0.01128366772231       24.13394144475551       19.54678765503947
H            0.34609257844236       24.82544845058064       18.95038688341262
H           -0.31985425853224       24.52812714793482       20.36815861589252
C            0.24939901802528       18.91282263493187       17.91622145162330
H            0.11329600883050       18.06740847655838       17.24939008510082
H            0.07601159237660       18.61855279261179       18.94506607844457
H            1.24159778849383       19.33869267846595       17.81672532004574
S           -1.01453906919484       20.17910103454846       17.53082104880707
H           -0.49573203901351       20.51075473765650       16.33910572050258
72
 energy: -105.974356020911 gnorm: 0.018533048198 xtb: 6.7.1 (edcfbbe)
Fe          -0.49072740714650       22.20834394088468       18.64959397948928
N            1.26134911894139       21.51660504349069       19.32566010912109
N            0.40948193821276       22.85114344227290       16.97209762388339
N           -2.24500384825255       22.90067669211340       17.98302538536518
N           -1.36084097526267       21.64737420459731       20.35403298036938
C            1.48434227074134       20.84396548076890       20.48219865487578
C            2.87412931472578       20.46836830370844       20.59493219825263
C            3.49220560194036       20.95529745678141       19.48697088920694
C            2.46713632106928       21.61008358543226       18.70636678064651
C            1.73792433758080       22.78825530643966       16.68111978578797
C            2.00573483754838       23.34074898200054       15.38262882193571
C            0.79162976049489       23.73277829785577       14.87178405327361
C           -0.18905587187248       23.42048641571710       15.89402101786845
C           -2.49865933523162       23.38777961799420       16.73734976909087
C           -3.90480521003098       23.63967658041034       16.56368037361008
C           -4.50434414850662       23.30846738517490       17.75019795416480
C           -3.43754154164751       22.85349946943662       18.62214848791023
C           -2.65202335292421       21.85756182736787       20.71382459549675
C           -2.89345053964023       21.37078473817982       22.05559995099571