72
 energy: -105.980471306216 gnorm: 0.000098806072 xtb: 6.7.1 (edcfbbe)
Fe          -0.46713160573044       22.15151698062813       18.70751317397500
N            1.28877985718583       21.51876565802386       19.39489375778967
N            0.41077347313923       22.72539918357503       16.98903286278271
N           -2.22864824798690       22.86994364114262       18.03297418173213
N           -1.33622795296321       21.65210819973869       20.42890580298260
C            1.52724311235285       20.92747894244853       20.59165030989822
C            2.93104475684917       20.60361735616511       20.73343744745718
C            3.53683160245223       21.02864294720062       19.59405194765185
C            2.49232868708962       21.59694934341749       18.76854500089489
C            1.73419922374295       22.63433111622578       16.67842332546404
C            1.98258444745199       23.12356238502108       15.34840888074302
C            0.76775120104724       23.51112384589236       14.84602393121583
C           -0.19682177940534       23.26704301712833       15.89878351815038
C           -2.48414889918498       23.37857623095132       16.79364805439685
C           -3.87241063820856       23.73476276027034       16.66434515028930
C           -4.46179055610495       23.42766269360869       17.86273814778931
C           -3.41201519044209       22.88526816517145       18.69927392512519
C           -2.63902876192660       21.82562766085369       20.77178381420125
C           -2.89469802943466       21.29746703245682       22.09508261526350
C           -1.71418976192552       20.79006750066379       22.53629426194184
C           -0.75212344412195       21.02463817457687       21.48080964876749
C            0.57991038128473       20.67285420978445       21.56420621929085
H            0.91081313984700       20.18228455612859       22.46629650186532
C            2.71296982411086       22.11689120062132       17.50965638073549
H            3.72532769081755       22.10429183695000       17.13709807562900
C           -1.54572429671245       23.54747660181292       15.79055935053450
H           -1.89542557193167       23.94146599732998       14.84932461678293
C           -3.61068885148890       22.40590889601246       19.98050664067375
H           -4.60939975930107       22.46295237684214       20.38394194067148
C            4.97226970847937       20.95748556203134       19.20168867361717
H            5.56457591714373       20.49493921526107       19.98708012924820
H            5.36786873772761       21.95635792862291       19.01743919418621
H            5.09371014621465       20.37151067275100       18.29009188812870
C            3.52295664894630       19.94167594387372       21.92937425186713
H            3.05245896026011       18.97397836498703       22.10456682785135
H            3.37459739589884       20.55568498500886       22.81771830745837
H            4.59039622106223       19.78467047887231       21.79596642148025
C            3.32420672109618       23.23158313133870       14.71338342850686
H            3.63394737904149       22.27481962604705       14.28931123897565
H            4.07231197138124       23.53416002327981       15.44448654236693
H            3.29961078818867       23.96912365872391       13.91383887414770
C            0.45380026685865       24.08716317229772       13.55690387721075
H           -0.35203964995874       24.81195229897022       13.55002714311850
C            1.06271977746911       23.79025562913882       12.41383963987008
H            1.83635950699372       23.04483280474975       12.35311449960187
H            0.78684820078684       24.26813644171563       11.48869898206307
C           -4.48398929792478       24.38008745269262       15.47072010657012
H           -4.73187354520096       23.63680749854909       14.71126861623528
H           -3.79846359551902       25.09997235574078       15.02587000313547
H           -5.39721514642762       24.89892321732857       15.75460954480640
C           -5.83513859958823       23.60684616660390       18.28040292921746
H           -5.97773949441503       23.84971779637412       19.32708551304038
C           -6.89980664556948       23.48887912772200       17.49444702913428
H           -6.81986133791345       23.20142918564091       16.46067780608555
H           -7.89681418808857       23.64881339899123       17.86978846014890
C           -4.22151502889170       21.33339343751470       22.77119023685860
H           -4.96347365272630       20.79065312671224       22.18532392428842
H           -4.56643811689753       22.36126571610862       22.88606435000258
H           -4.16464612720234       20.87964894071009       23.75734510982949
C           -1.39518975858597       20.12236545237181       23.82895239255473
H           -1.01837615278016       19.11434786098914       23.65556817817956
H           -2.27954806002076       20.05410841318429       24.45740932282865
H           -0.63139891911348       20.68129887074065       24.36991570833717
O           -0.11088041180043       24.22149578662145       19.49210674111260
H            0.02092153850370       24.71176531031549       18.67272399255222
H           -0.98521148049645       24.45290969029989       19.82512325629380
C            0.49962451922215       19.26208936889627       17.19182224067412
H            0.24114907843025       18.46209471445319       16.50488419277739
H            0.98729790749966       18.85737695118023       18.07248937000134
H            1.14379028274624       19.99600828007161       16.71992931642236
S           -1.03280914552769       20.07226427251118       17.77023455882360
H           -1.39207736981927       20.52342915937507       16.56330769567980
