72
 energy: -105.926410163292 gnorm: 0.214931535172 xtb: 6.7.1 (edcfbbe)
Fe          26.74900000000000       30.81900000000000       63.26900000000000
N           25.94600000000000       29.08100000000000       62.65900000000000
N           24.92500000000000       31.44000000000000       63.91100000000000
N           27.48700000000000       32.63700000000000       63.76500000000000
N           28.48300000000000       30.28300000000000       62.50699999999999
C           26.61200000000000       27.99900000000000       62.10700000000000
C           25.71500000000000       26.88400000000000       61.91399999999999
C           24.47500000000000       27.31600000000000       62.28499999999999
C           24.63000000000000       28.68400000000000       62.76200000000000
C           23.74300000000000       30.73100000000000       63.89100000000000
C           22.68700000000000       31.45900000000000       64.57599999999999
C           23.22300000000000       32.64500000000000       65.00400000000000
C           24.61000000000000       32.63400000000000       64.56399999999999
C           26.86500000000000       33.65900000000000       64.46500000000000
C           27.80500000000000       34.72000000000000       64.76000000000001
C           28.99400000000000       34.37000000000000       64.19700000000000
C           28.78600000000000       33.07400000000000       63.58200000000000
C           29.63000000000000       31.05099999999999       62.39999999999999
C           30.68700000000000       30.32600000000000       61.72099999999999
C           30.19400000000000       29.08200000000000       61.44600000000000
C           28.82700000000000       29.07200000000000       61.93100000000000
C           27.95499999999999       27.99500000000000       61.77500000000000
H           28.36500000000000       27.07500000000000       61.35800000000000
C           23.61000000000000       29.44700000000000       63.34200000000000
H           22.61600000000000       29.00000000000000       63.36999999999999
C           25.51899999999999       33.65500000000000       64.81100000000001
H           25.14000000000000       34.53800000000000       65.32599999999999
C           29.76300000000000       32.33400000000000       62.93600000000000
H           30.74100000000000       32.80400000000000       62.83499999999999
C           23.16200000000000       26.52600000000000       62.17999999999999
H           22.90600000000000       26.09800000000000       63.17300000000000
H           23.28000000000000       25.69700000000000       61.45000000000000
H           22.34200000000000       27.20200000000000       61.85700000000000
C           26.09100000000000       25.46500000000000       61.46900000000000
H           27.12000000000000       25.22800000000000       61.81600000000000
H           26.06000000000000       25.39900000000000       60.35999999999999
H           25.38300000000000       24.73300000000000       61.91299999999999
C           21.26700000000000       30.95400000000000       64.84399999999999
H           21.23900000000000       30.42900000000000       65.82299999999999
H           20.96400000000000       30.24299999999999       64.04500000000000
H           20.56300000000000       31.81300000000000       64.87500000000000
C           22.59200000000000       33.69000000000000       65.68899999999999
H           22.84700000000000       34.71600000000000       65.39100000000001
C           21.66700000000000       33.58300000000000       66.71700000000000
H           21.35000000000000       32.59500000000000       67.08300000000000
H           21.23900000000000       34.48500000000000       67.17900000000000
C           27.47100000000000       36.00600000000000       65.53200000000000
H           27.64300000000000       35.84199999999999       66.61700000000000
H           26.40400000000000       36.27300000000000       65.37300000000000
H           28.12600000000000       36.83300000000000       65.18400000000000
C           30.19000000000000       35.09800000000000       64.11700000000000
H           30.75900000000000       35.05799999999999       63.17700000000000
C           30.73000000000000       35.87100000000000       65.11799999999999
H           30.22100000000000       35.96300000000000       66.08900000000000
H           31.67700000000000       36.40700000000000       64.95999999999999
C           32.08600000000000       30.84900000000000       61.40400000000000
H           32.66700000000000       30.95000000000000       62.34600000000000
H           32.01300000000000       31.84500000000000       60.91800000000000
H           32.61000000000000       30.13600000000000       60.73200000000000
C           30.90500000000000       27.91800000000000       60.75200000000000
H           31.99500000000000       27.97400000000000       60.95799999999999
H           30.74200000000000       27.97900000000000       59.65499999999999
H           30.51400000000000       26.95400000000000       61.14099999999999
O           25.96600000000000       31.63400000000000       61.31600000000000
H           25.15300000000000       32.09200000000000       61.52800000000000
H           26.32900000000000       31.55300000000000       60.50800000000000
C           26.97100000000000       28.49900000000000       65.72000000000000
H           26.76100000000000       28.29500000000000       66.79200000000000
H           27.85700000000000       27.89900000000000       65.42300000000000
H           26.09200000000000       28.16500000000000       65.12800000000000
S           27.28600000000000       30.26800000000000       65.43400000000000
H           26.03500000000000       30.64500000000000       65.65300000000001
72
 energy: -105.960187868887 gnorm: 0.078885052299 xtb: 6.7.1 (edcfbbe)
Fe          26.73856479349210       30.84160408561830       63.23135631110566
N           25.94470984112422       29.06794676561248       62.67347440263789
N           24.91234255350474       31.44092053413804       63.92075526167575
N           27.48980319634024       32.64621027873567       63.76358186964708
N           28.49382146889954       30.28229658767862       62.49212004076269
C           26.61288514644753       27.99782320309469       62.13030063530979
C           25.71195041320659       26.88585803356280       61.92573748210048
C           24.47122355613604       27.32188643136898       62.28645414596939
C           24.63335648803741       28.68249158976886       62.77285290301212
C           23.74704861424731       30.71691188763311       63.90047729036644
C           22.69246592290281       31.43619239972703       64.58044875339047
C           23.22652265425402       32.63146684560308       64.99843193517117
C           24.61227197927910       32.62667643336568       64.55929471965919
C           26.86360323109394       33.64982199448765       64.46324795554230
C           27.79043550808215       34.71741238082168       64.75869284246360
C           28.98683339500394       34.36539014056439       64.19286209921398
C           28.77895477884083       33.06504619983915       63.57758279553697
C           29.62805942765306       31.04962136234199       62.40331538502767
C           30.68557259959892       30.32360947323957       61.72998208481299
C           30.19052642013374       29.08288522593056       61.45295902239057
C           28.82250977502975       29.07550522654972       61.92801458685430
C           27.95431469224701       27.99977890485428       61.79003141443575
H           28.35706242499175       27.08998649883749       61.35924728463987
C           23.61756934085505       29.44644500264711       63.34018398521906
H           22.63034549560088       29.00028413638563       63.36932224584577
C           25.51916420865857       33.64434633231703       64.80888279287353
H           25.14194784741574       34.51966590747633       65.32619170874989
C           29.75855414171550       32.32963165795881       62.93073064153003
H           30.73319243055900       32.79602730097781       62.83524206805732
C           23.17928622888597       26.54476516471896       62.18976005227323
H           22.91000816834389       26.11139516828290       63.16031911865731
H           23.28230720023304       25.72745160199960       61.46950583192333
H           22.36058923933361       27.19256089137434       61.86359551722892
C           26.09036700270318       25.49392348632277       61.47376828229233
H           27.10028041459613       25.23866552679664       61.81016309917194
H           26.06150169916321       25.40659828414626       60.38157702064343
H           25.39872940594811       24.75993163709872       61.89866451629282
C           21.28846957899720       30.95136678782682       64.83064262933213
H           21.24039628268570       30.43369554157108       65.79600934113708
H           20.96631808666474       30.25451645516520       64.05223185724222
H           20.59098553742201       31.79546894192486       64.86643200911345
C           22.58138471064308       33.69779287125220       65.69926890591533
H           22.85467331682927       34.71199718092815       65.40699806823432
C           21.67633499724450       33.58364019201919       66.68737830883492
H           21.36964671840249       32.61811104299109       67.07018777120166
H           21.25121635258783       34.46259092560700       67.15615552848628
C           27.46931884983217       35.98288410486463       65.51757155641106
H           27.63543587162680       35.83835376068926       66.59152128375727
H           26.42417384283557       36.26976038019116       65.37138593399008
H           28.11245297058512       36.80368754645071       65.18305042320027
C           30.20657885534216       35.10786272477085       64.12609103403648
H           30.76941085805086       35.04913295498901       63.19468872063224
C           30.71885922947079       35.87078857327543       65.10285376547488
H           30.23469435095091       35.95250322543628       66.06786606064590
H           31.65335885322271       36.39947723129799       64.96376724384194
C           32.06406944806375       30.84629974561149       61.41670645520199
H           32.65341045327467       30.95201090671195       62.33492867645240
H           32.01112892446930       31.82522123821612       60.93001609355440
H           32.59048537069254       30.15623918551980       60.75068774115097
C           30.89315543533609       27.93585633128900       60.76821106342165
H           31.96995330401243       27.97617663783710       60.95974786647782
H           30.73956988823350       27.97760896486907       59.68351717854245
H           30.52080010608163       26.97519232627029       61.13437129461295
O           25.97571805028563       31.64543992489976       61.32888111108134
H           25.15175977574414       32.09514189070759       61.50864595684242
H           26.33218965708720       31.56023150832592       60.46308485823320
C           26.95702431755524       28.47778418903610       65.72654316824396
H           26.76157658043619       28.30388154827138       66.78938445206742
H           27.84269669460575       27.91393335033718       65.42442451620363
H           26.09920182585072       28.16169725546532       65.12860435749229
S           27.28146868856698       30.24134165267041       65.42716380911601
H           26.04040051175150       30.63927832083392       65.69985285733215
72
 energy: -105.969052741194 gnorm: 0.023210777454 xtb: 6.7.1 (edcfbbe)
Fe          26.73043750716535       30.84762290884496       63.22682945986677
N           25.94254971255947       29.06363259577762       62.68171013042043
N           24.90246791657125       31.44351655666181       63.91650007288654
N           27.48752807645133       32.65061608604845       63.74919188823282
N           28.49519533136095       30.28769708962448       62.47375732170069
C           26.61262844215882       28.00296976137794       62.15057327858154
C           25.71190190333878       26.89068826529407       61.94123762335991
C           24.47098490167429       27.32876190999997       62.29448547326716
C           24.63717587290803       28.68423531547464       62.78314669943443
C           23.75144114154401       30.70795903880412       63.90547851813857
C           22.69820098719223       31.42142855705097       64.58199184878798
C           23.23332407443649       32.62040249434292       64.98765083876370
C           24.61527934563966       32.61629680730842       64.55079902488687
C           26.86111439200512       33.63950851573213       64.44919824633106
C           27.78091276326908       34.71063429165035       64.74834243739542
C           28.97857717832617       34.35649491132555       64.18159865249430
C           28.76799390283341       33.05739206081618       63.56440630036984
C           29.61943583442905       31.05204197052924       62.39858275701161
C           30.68241202179832       30.32219573426386       61.73954491404604
C           30.18543320984464       29.08510774418724       61.45998318870969
C           28.81412874289412       29.08405482265935       61.92314943528046
C           27.95158277393803       28.00740453472548       61.80275111272542
H           28.34900064943178       27.10308029700433       61.36534180849434
C           23.62348425081995       29.44459387480238       63.34325143981757
H           22.64096989074981       28.99715438812746       63.37298225995901
C           25.52092379241892       33.63165624322086       64.80431369383855
H           25.14705611899997       34.49701906108681       65.33251744224705
C           29.75221411082702       32.32836274738143       62.91944654714234
H           30.72613398677191       32.78960431113613       62.83353561189404
C           23.19195579456399       26.56594705987153       62.20161841530632
H           22.91874439189400       26.13437035974115       63.16452046029935
H           23.29265609145620       25.75403736443897       61.48584487946925
H           22.37663392075989       27.20504852611287       61.87340033617159
C           26.09138246736939       25.52150428411670       61.47899078875092
H           27.09407247077639       25.26433926441701       61.81007877251334
H           26.06239594959564       25.43838102499800       60.39310366932298
H           25.40407526501007       24.78566129607495       61.89027970184698
C           21.30687127435133       30.94522492666150       64.81658841106297
H           21.24372774904544       30.42513218546089       65.77313820678084
H           20.97861223085085       30.26104523323178       64.04030763636369
H           20.62139794917029       31.78967111170772       64.85266615551949
C           22.58657648758726       33.70320257494655       65.69947186862400
H           22.87687838793468       34.70546934970780       65.40058318085890
C           21.69367461254535       33.58115031419726       66.66957622424997
H           21.37545669045145       32.62760022043960       67.04911067798584
H           21.25252174746070       34.44582130047325       67.13330421836059
C           27.46591891011857       35.95907892646578       65.49929854144617
H           27.62733134555358       35.81830244022346       66.56835002745348
H           26.43122156697621       36.25807872076573       65.35602585108900
H           28.11066199706259       36.77095189080931       65.16937199285559
C           30.21698514835935       35.10337336569459       64.12977997102355
H           30.77221499441639       35.02832327364496       63.20123347164616
C           30.71321126922365       35.85829942295958       65.09964319202987
H           30.23320306484306       35.95187256340683       66.05594566476853
H           31.63276594481257       36.40114022244148       64.97006973446497
C           32.04591514958513       30.84567858662494       61.43391752598172
H           32.63364345744001       30.95679435920913       62.34440773484945
H           31.99260079613818       31.81662723677222       60.94690563028859
H           32.57190640415461       30.16466130196351       60.77055992930140
C           30.88184661857187       27.94925270351257       60.78556982157026
H           31.95204909382430       27.98937966210112       60.97216520183247
H           30.72752390842751       27.98514087184932       59.70674841228850
H           30.51466388049570       26.99233543324102       61.14476045459660
O           26.02680163257676       31.69106789023604       61.34205148466331
H           25.15464251103101       32.08210635655682       61.46325555216941
H           26.32425422221311       31.55135155403433       60.43794106693722
C           26.94359700862571       28.45562509570865       65.73006516130334
H           26.75439258663925       28.30129903978406       66.78697414431467
H           27.82960022916117       27.91111694687909       65.42695511720952
H           26.09663336083774       28.14883418538557       65.12989868434843
S           27.28564459908925       30.22093904085617       65.43908825592116
H           26.05964798664135       30.63862961701731       65.78213574607474
72
 energy: -105.970700629666 gnorm: 0.055614588393 xtb: 6.7.1 (edcfbbe)
Fe          26.72483634497649       30.85785701728387       63.21668876129190
N           25.94239284580324       29.07081622086930       62.68779416673208
N           24.90543154180851       31.43838744602439       63.91821238313705
N           27.48776962990641       32.64667430886133       63.74197719262181
N           28.49283609197381       30.29341765783287       62.46742920363131
C           26.61292504339772       28.01219159487168       62.16507793360653
C           25.71417448465859       26.89927834373797       61.95506072066425
C           24.47387578267047       27.33670891581102       62.30598909014346
C           24.64074633366389       28.68948120848382       62.79243614483211
C           23.75758153409443       30.70339354129755       63.91048899991853
C           22.70465354732521       31.41564480278723       64.58356850056364
C           23.24150798968036       32.61400588265297       64.98305863004906
C           24.62136415884459       32.60604893374524       64.54937250903599
C           26.86080342966896       33.63034052769748       64.43942181159056
C           27.77806041656131       34.70372777962100       64.73659704592828
C           28.97504563624323       34.34937341616126       64.17149716987466
C           28.76341403764479       33.05223264264820       63.55516810819822
C           29.61338029183619       31.05436681839384       62.39676932987302
C           30.67908291659586       30.32167065305610       61.74755263784927
C           30.18129010738116       29.08695455019976       61.46740152589958
C           28.80835821984383       29.09042409867207       61.92441708477829
C           27.94942144190655       28.01360864068377       61.81189206594311
H           28.34321433163389       27.10969862927172       61.37347185978556
C           23.62564599362227       29.44343122845259       63.34926120182348
H           22.64575304891953       28.99241715795402       63.38234492871535
C           25.52497211195681       33.62198554706814       64.80355190164867
H           25.15361125194338       34.48010597996493       65.34254373229541
C           29.75071207362982       32.32955873012351       62.91094360011260
H           30.72425926401122       32.78853570003309       62.82823347566962
C           23.19514773603798       26.58246630886194       62.21571704187962
H           22.91903773233025       26.15604398525982       63.17974792521956
H           23.29344576921979       25.76928247699495       61.50181721690991
H           22.38344618084827       27.22462812099559       61.88514071035457
C           26.09576587409946       25.54122882349706       61.47905053335803
H           27.09821886089526       25.28354939110011       61.80815658210828
H           26.06785549439494       25.47401564990285       60.39218555031345
H           25.40830072336828       24.79943788405941       61.87871539741706
C           21.31434233424822       30.94050830649002       64.80148474937614
H           21.23943048629518       30.40843112396599       65.75068589039080
H           20.98896134701926       30.26682298428724       64.01476143168431
H           20.63509864644948       31.78889103402630       64.84033497197947
C           22.59558276297036       33.70767076232188       65.68949394274928
H           22.90582143807850       34.70278953851827       65.39022461895144
C           21.68943250041613       33.58101429621075       66.64724969137217
H           21.37875511350224       32.62759205383411       67.03252000749195
H           21.25341409293997       34.44154126723700       67.12340284641432
C           27.46115864318091       35.94683803681785       65.48400069591882
H           27.61513793464317       35.80218938030436       66.55343580472490
H           26.42899807624163       36.25094898327567       65.33467788706254
H           28.11313255178299       36.75355719052394       65.15743499332663
C           30.21893411753354       35.09766536198751       64.12511687122827
H           30.77838355406229       35.00375865938718       63.20170205509186
C           30.70103424609371       35.86204419567825       65.09478423583201
H           30.22386651495811       35.94854222000235       66.05297376423405
H           31.62697936427110       36.39760848061467       64.97918783964934
C           32.03735168950701       30.84991371338945       61.44990074588885
H           32.61956778800285       30.96639610114784       62.36267524977879
H           31.97727141414080       31.82002169000354       60.96260381986909
H           32.56845417548161       30.17187133328286       60.78856473771184
C           30.87473014532804       27.95271021922062       60.79832347899232
H           31.94451769170619       27.99692153907744       60.98217308943275
H           30.71527134714731       27.98592219629479       59.72032359713682
H           30.50888792685071       26.99710014202040       61.16101699908275
O           26.10726301461430       31.79337318489970       61.34197901538740
H           25.13925050355051       32.03290522628969       61.39781807907297
H           26.29928350835337       31.50971478135764       60.40514831402715
C           26.93098542594718       28.43497438177285       65.73238975221207
H           26.74655964614490       28.28598506466329       66.78958378418004
H           27.81726384033388       27.89533524482141       65.42432871259491
H           26.08349865674258       28.13237803237421       65.13256556779416
S           27.28076827712779       30.20292572173093       65.44121635914721
H           26.07927295093656       30.63614693723799       65.88516372643757
72
 energy: -105.972667729570 gnorm: 0.021281230393 xtb: 6.7.1 (edcfbbe)
Fe          26.72119412403133       30.86268010207169       63.21370067106982
N           25.94192878542166       29.07957330791821       62.69025047555998
N           24.91026421523601       31.43322214402912       63.91673131243509
N           27.48707451034143       32.64032763820491       63.73649299611355
N           28.48763660441758       30.29825658395942       62.46584672084577
C           26.61283324571511       28.01921924438264       62.17302204742942
C           25.71650875177615       26.90540449573918       61.96562482982900
C           24.47686468884761       27.34100508554663       62.31734757815325
C           24.64224537071054       28.69304229603924       62.79953769761225
C           23.76127037244167       30.70142100088627       63.91333940551208
C           22.70898707407325       31.41444445541118       64.58516681939206
C           23.24754630142833       32.61112165692045       64.98219686531417
C           24.62580585331668       32.59959646722201       64.54824318115777
C           26.86046389552860       33.62418492144150       64.43187767796607
C           27.77745500125797       34.69876162046018       64.72572011034663
C           28.97326900623367       34.34514744109867       64.16228075872195
C           28.76064170172247       33.05003136600252       63.54657385856880
C           29.60824812821492       31.05659530083589       62.39412570745026
C           30.67536094912699       30.32201795917941       61.75149091330720
C           30.17772278373990       29.08829355630929       61.47235148648292
C           28.80417657343251       29.09432314987209       61.92668287451522
C           27.94773284438874       28.01690637795926       61.81716548975991
H           28.34017967337318       27.11140326975598       61.38111807572041
C           23.62494993846234       29.44137859864448       63.35625047056642
H           22.64675971158024       28.98646000859299       63.39434104644813
C           25.52812941452061       33.61602273597919       64.80311459453466
H           25.15874645621287       34.46980186675422       65.35020178244820
C           29.74974284369463       32.33185540093424       62.90320293874038
H           30.72323295093642       32.79009359700029       62.82058274346430
C           23.19408701220996       26.59129630606842       62.22973563686157
H           22.91694450217178       26.17102288224109       63.19788774938257
H           23.29044846555228       25.77472306718902       61.51721727914148
H           22.38566576009896       27.23967656188472       61.89708737485631
C           26.10073242994376       25.55176987061588       61.47861355563878
H           27.10508847763387       25.29472709434471       61.80757635613350
H           26.07430504832891       25.50053622127558       60.38893093085528
H           25.41185195839862       24.80467362096913       61.87019691520803
C           21.31609496606539       30.93706973013315       64.79129915468110
H           21.23463175977450       30.39256003452113       65.73488233519120
H           20.99630360688733       30.27131947932654       63.99223729903741
H           20.63940396938854       31.78897540897399       64.83369189798614
C           22.60596513744659       33.70958292539859       65.68184583015888
H           22.92667684694787       34.70150096566636       65.38226690908061
C           21.68806694371442       33.58180098792538       66.63566456526038
H           21.37682532355818       32.62468404580360       67.01613315929974
H           21.25057655311534       34.44273725349692       67.11398837844115
C           27.45643712303494       35.94227348099467       65.47187265155507
H           27.60322823110221       35.79286026163273       66.54322908185881
H           26.42398874329519       36.24753393686017       65.31405217212135
H           28.11530107519378       36.74634303666438       65.14773717096770
C           30.21770299970784       35.09065348173539       64.11835417918178
H           30.78297222421197       34.98710877114067       63.19874386888011
C           30.69307025553050       35.86254317299502       65.09096547418265
H           30.20912276409054       35.95045106125145       66.04781501565871
H           31.62273248479364       36.39726918085135       64.98134005980097
C           32.03335082490563       30.85521136690604       61.46022147360753
H           32.60944709916531       30.97610810380358       62.37816994135556
H           31.96651993679129       31.82645425524233       60.97216904378580
H           32.57061638649783       30.17743973234747       60.80107647735158
C           30.87049612804569       27.95155348473033       60.80628395108041
H           31.94183411665563       28.00064876815102       60.98835691932231
H           30.70556194759153       27.98278881861204       59.72752708466258
H           30.50498006765439       26.99657883083969       61.17599003560143
O           26.07937432977692       31.73033762975734       61.31167327532228
H           25.19510416092862       32.08363595528638       61.37551864530809
H           26.31743558314234       31.54067405439786       60.40074536924159
C           26.92431421566523       28.42160317447535       65.73420544698013
H           26.74182980825591       28.27063157169646       66.79293537531360
H           27.80999793540390       27.87964912557085       65.42206761604147
H           26.07282549929302       28.12038487143784       65.13547588498210
S           27.27996061019012       30.19134004257112       65.44487485461863
H           26.09815491765526       30.63267572506401       65.95276247453641
72
 energy: -105.973653106858 gnorm: 0.009352426103 xtb: 6.7.1 (edcfbbe)
Fe          26.72246259364044       30.85606666235226       63.23586474376932
N           25.94066635634176       29.08664868011543       62.69140363147690
N           24.91414743270450       31.43180477040467       63.91727778104224
N           27.48602613746904       32.63571258919413       63.73503383506129
N           28.48346845174131       30.29991031892783       62.47103652440108
C           26.61041512039397       28.02518550443150       62.17168504852662
C           25.71579454494103       26.90980882569837       61.96765638760662
C           24.47667266859568       27.34339235979479       62.32374835944351
C           24.64122869460409       28.69617167229067       62.80333126591815
C           23.76251678824074       30.70283681432800       63.91606169696114
C           22.71032208700867       31.41667110088646       64.58819563069169
C           23.25049543819633       32.61173944916079       64.98742234899589
C           24.62860028090489       32.59865892963963       64.55088781052653
C           26.86122168229689       33.62194251989094       64.43142993388113
C           27.77776047053715       34.69800618237552       64.72175790753707
C           28.97276057594786       34.34524472356787       64.15711031088689
C           28.75931746218250       33.05044948595913       63.54165536413875
C           29.60505811142684       31.05797912310359       62.39296905946641
C           30.67222720649525       30.32370555828242       61.75067278058091