78
 energy: -115.967072891026 gnorm: 0.270136295949 xtb: 6.7.1 (edcfbbe)
Fe          14.68100000000000       28.07800000000000        4.80800000000000
N           15.02600000000000       29.34900000000000        6.33000000000000
N           13.95200000000000       26.72200000000000        6.03200000000000
N           14.65100000000000       26.67600000000000        3.23500000000000
N           15.73500000000000       29.34600000000000        3.53000000000000
C           15.60700000000000       30.59400000000000        6.24000000000000
C           15.51900000000000       31.23100000000000        7.49200000000000
C           14.91500000000000       30.32500000000000        8.36900000000000
C           14.61500000000000       29.16500000000000        7.62500000000000
C           13.72700000000000       26.89099999999999        7.38000000000000
C           13.17400000000000       25.73900000000000        7.89900000000000
C           13.10300000000000       24.81400000000000        6.82500000000000
C           13.55300000000000       25.45700000000000        5.69700000000000
C           14.15600000000000       25.41100000000000        3.31400000000000
C           14.33700000000000       24.74900000000000        2.09100000000000
C           14.98900000000000       25.68200000000000        1.23400000000000
C           15.11900000000000       26.86700000000000        1.95800000000000
C           16.02500000000000       29.13200000000000        2.19900000000000
C           16.73000000000000       30.22500000000000        1.69600000000000
C           16.92600000000000       31.10300000000000        2.75300000000000
C           16.25500000000000       30.56800000000000        3.86400000000000
C           16.17300000000000       31.15900000000000        5.11000000000000
H           16.59200000000000       32.16000000000000        5.21300000000000
C           14.01200000000000       28.02300000000000        8.11700000000000
H           13.73900000000000       28.01500000000000        9.17200000000000
C           13.63500000000000       24.84800000000000        4.45800000000000
H           13.25300000000000       23.83000000000000        4.38000000000000
C           15.72800000000000       28.00700000000000        1.46800000000000
H           15.99600000000000       28.01400000000000        0.41100000000000
C           14.58800000000000       30.55600000000000        9.82500000000000
H           13.48600000000000       30.62700000000000        9.95100000000000
H           15.05200000000000       31.50600000000000       10.16800000000000
H           14.96600000000000       29.70700000000000       10.43400000000000
C           15.94000000000000       32.65500000000000        7.78700000000000
H           15.81100000000000       33.27600000000000        6.87500000000000
H           17.00900000000000       32.67500000000000        8.08900000000000
H           15.30800000000000       33.07300000000000        8.59900000000000
C           12.78900000000000       25.59200000000000        9.36700000000000
H           12.33100000000000       26.53800000000000        9.72700000000000
H           13.69500000000000       25.37700000000000        9.97300000000000
H           12.05200000000000       24.76900000000000        9.48100000000000
C           12.75000000000000       23.46900000000000        6.82200000000000
H           12.66300000000000       22.94300000000000        5.86000000000000
C           12.49500000000000       22.72900000000000        7.97300000000000
H           12.06300000000000       21.72000000000000        7.90400000000000
H           12.72200000000000       23.14500000000000        8.96600000000000
C           13.91900000000000       23.30000000000000        1.83500000000000
H           13.03900000000000       23.05099999999999        2.46500000000000
H           14.75500000000000       22.61600000000000        2.09700000000000
H           13.64500000000000       23.17200000000000        0.76600000000000
C           15.46800000000000       25.51200000000000       -0.06800000000000
H           15.94500000000000       26.35700000000000       -0.58600000000000
C           15.37000000000000       24.28600000000000       -0.76900000000000
H           15.60800000000000       24.23600000000000       -1.84200000000000
H           15.05500000000000       23.36900000000000       -0.24900000000000
C           17.17800000000000       30.39400000000000        0.25200000000000
H           16.31800000000000       30.20900000000000       -0.42700000000000
H           17.98300000000000       29.66400000000000        0.02100000000000
H           17.54700000000000       31.43000000000000        0.09200000000000
C           17.78300000000000       32.35500000000000        2.70400000000000
H           17.16100000000000       33.21800000000000        2.38300000000000
H           18.60900000000000       32.21600000000000        1.97500000000000
H           18.19800000000000       32.56500000000000        3.71300000000000
O           16.62300000000000       27.33599999999999        5.07700000000000
H           16.68300000000000       26.55100000000000        4.53200000000000
H           17.26800000000000       27.67200000000000        5.58900000000000
C            9.63900000000000       29.61300000000000        2.50900000000000
H            9.65600000000000       30.62200000000000        2.04400000000000
H            8.68600000000000       29.48900000000000        3.06600000000000
H            9.71400000000000       28.84600000000000        1.70900000000000
N           10.96500000000000       30.28100000000000        4.50600000000000
H           10.31800000000000       30.98300000000000        4.80500000000000
C           10.80200000000000       29.47600000000000        3.45500000000000
C           12.15800000000000       29.97000000000000        5.08300000000000
H           12.55200000000000       30.46500000000000        5.97000000000000
N           12.75100000000000       28.97500000000000        4.39100000000000
C           11.90400000000000       28.64600000000000        3.36500000000000
H           12.15000000000000       27.85900000000000        2.66300000000000
78
 energy: -116.021447979964 gnorm: 0.106786828347 xtb: 6.7.1 (edcfbbe)
Fe          14.68847102837251       28.09369358982940        4.78523895977786
N           15.02011322074254       29.34728492451589        6.31414118457363
N           13.95334031825851       26.74582699863863        6.01572167012985
N           14.63900048679317       26.70021110584840        3.23786519013431
N           15.70886436228472       29.35486208842966        3.52718785816229
C           15.58932607709496       30.58959662576538        6.23772220192843
C           15.50877124463290       31.23842575047776        7.50662074667755
C           14.91616099683920       30.34704329165242        8.37166264849315
C           14.61814350519528       29.17636970964067        7.60990885458195
C           13.72285642348186       26.89895502462581        7.36145588780855
C           13.17377686868005       25.72192690526887        7.91014990921379
C           13.10308143722092       24.80238130853129        6.86168099258550
C           13.56241117406676       25.47555234185491        5.70052023630561
C           14.15985870469004       25.42669558005068        3.30960376627480
C           14.33955225094666       24.74112060229197        2.07973660072946
C           14.98434851515059       25.64829488514435        1.22912077373410
C           15.12073583474752       26.86064229458211        1.97151000235663
C           16.00793111124951       29.14389014111124        2.20761805387049
C           16.73991127657269       30.24530928206876        1.68921120260778
C           16.93684390030053       31.11308745899005        2.73389600262339
C           16.25812550324730       30.55864737241266        3.86003886019669
C           16.16868208211076       31.15063537168159        5.10883783012418
H           16.59185782246000       32.14429285159649        5.21354917322232
C           14.01224037053937       28.03517109163271        8.10201634813733
H           13.75005089393429       28.02151587550521        9.15503687819314
C           13.63553532947401       24.86721532148716        4.45873102792746
H           13.26471848472666       23.85222741448976        4.37786520921376
C           15.71632461166533       28.00973131707786        1.47858935294638
H           15.99721157717816       28.01642981160562        0.43133848716239
C           14.58956946367330       30.55847046245117        9.81856902510764
H           13.50224868686716       30.62523584147221        9.95555397351044
H           15.04430571108013       31.48812974779132       10.17278938394846
H           14.96067593843948       29.72517393445742       10.42659374939812
C           15.93819661490574       32.64762525207150        7.78991814334856
H           15.81352046393979       33.26848567888271        6.89559778029084
H           16.99316143421442       32.68052107474674        8.08876714293076
H           15.32549788891696       33.07255978358747        8.59074707831890
C           12.78648992673029       25.59038918066246        9.35741982842609
H           12.33987496698777       26.52349294333787        9.71915914909388
H           13.67411209925196       25.37481464702927        9.96623775799087
H           12.05239106076537       24.79323527252195        9.48945769910938
C           12.72538094553557       23.44043237803890        6.86258069798309
H           12.63349084519017       22.93847174474372        5.89978733455977
C           12.49164850746005       22.71182279448809        7.97017524551438
H           12.08628595854764       21.71256155342536        7.90482018617911
H           12.71066260331243       23.11067832093927        8.94874275457896
C           13.91728804276463       23.31485425253972        1.84010472637438
H           13.05359096468052       23.05769207508989        2.46132479160963
H           14.73769753661531       22.62713665057615        2.08684585034033
H           13.62876004588667       23.17000884083782        0.79563294711566
C           15.45690305921861       25.46976780111265       -0.09521375883431
H           15.91340576638329       26.32371473354114       -0.59675345182098
C           15.38413693058865       24.30120803339165       -0.77758892756413
H           15.63068429160578       24.24420958697751       -1.82859384527653
H           15.07408460795193       23.39254799487180       -0.28705299638624
C           17.18008047354748       30.39683701000923        0.26055255307591
H           16.33525265222641       30.21438481534310       -0.41503959067704
H           17.97366055375715       29.67865186954094        0.02089826957168
H           17.54716390701052       31.41225650605462        0.08797301749970
C           17.77525923146542       32.35694114675812        2.70248498223231
H           17.17217579885163       33.21707487621364        2.38774684407216
H           18.59673998823200       32.22653354211356        1.99091576935726
H           18.19345123535553       32.56506479529531        3.69284342147144
O           16.61350993952947       27.30593258685439        5.09032292020978
H           16.71488564917593       26.53642473540160        4.53049871341638
H           17.31154776212414       27.66784051264766        5.60534597563886
C            9.63976857546215       29.60984578988845        2.50947775545969
H            9.64940337257985       30.60484075217608        2.04741538302291
H            8.69470546759561       29.48824365246852        3.05146660995138
H            9.70649154231247       28.85685135098953        1.72129645147895
N           10.97644006781403       30.27647170211662        4.50560025133496
H           10.32771672649105       30.98297696074351        4.81035688360484
C           10.80405221626119       29.47129492235300        3.43504841660383
C           12.16449928794051       29.95796343593933        5.07761915361999
H           12.55506842335709       30.44724822255822        5.95343264330039
N           12.74758270910090       28.97513048905828        4.40515254381818
C           11.90862254180245       28.65737049925088        3.37412425529776
H           12.15261210383652       27.87454290983223        2.67926860109889
78
 energy: -116.038034230907 gnorm: 0.031801081597 xtb: 6.7.1 (edcfbbe)
Fe          14.70573691095352       28.09825382821940        4.76963035604625
N           15.00531689641745       29.35558585924447        6.29536484417566
N           13.94300299295533       26.76378562333235        6.00548517637333
N           14.62455754681862       26.72260160761636        3.23711349631605
N           15.68002186275386       29.36347625873879        3.52440738383652
C           15.56866415509180       30.59232614876791        6.22832502136214
C           15.49599778769125       31.24835950623726        7.51112850140388
C           14.91170271305732       30.36492020776933        8.36686762063262
C           14.61145309895249       29.18814057279056        7.58976018334276
C           13.71495068873652       26.91183234700005        7.34429702858940
C           13.17596081048194       25.71377921454077        7.91564019349046
C           13.10806957671314       24.79817189749774        6.89061188299175
C           13.56654853440787       25.49044241793364        5.70645706795557
C           14.15426033195729       25.44589274670654        3.31285993646804
C           14.33976481877934       24.74268801920138        2.07775885108851
C           14.97956950052709       25.62670151939507        1.23236847282672
C           15.11630337081387       26.86046236319572        1.97994622895291
C           15.98029556910754       29.15481416706103        2.21297169745311
C           16.73914009600778       30.25960150557781        1.68541892421370
C           16.94080180827808       31.11823775858998        2.72183254102884
C           16.24933958603988       30.55414355070314        3.85699726302617
C           16.16089193374284       31.14816289308749        5.10431685099614
H           16.59978670523145       32.13020979952391        5.21335619614927
C           14.00736296027173       28.04852010883206        8.08476340288781
H           13.76168473415345       28.03093187430235        9.13764535055507
C           13.63215071969055       24.88493561025613        4.46538211873380
H           13.27789493052372       23.86873070442755        4.38535197792085
C           15.70032206401742       28.01437609546720        1.48415018228843
H           16.00435545691556       28.01584435479839        0.44746378811746
C           14.58998821632578       30.55800735548376        9.81095366248082
H           13.51078465529536       30.62050849218457        9.95715021671067
H           15.03988262152237       31.47598521161492       10.17694814333854
H           14.96096247981743       29.73066289292978       10.41298792788697
C           15.93752980191605       32.64536821129943        7.79132608175297
H           15.81569091179824       33.26722335411244        6.90765422850525
H           16.98577731021222       32.67831325158754        8.08792729745699
H           15.34075104453592       33.07410667659217        8.59201842076862
C           12.78469292406954       25.59334241623909        9.34898698807963
H           12.35100377294834       26.52461785271331        9.70829283831626
H           13.65787720661901       25.36880866601371        9.96378623600602
H           12.04625671671747       24.81275693121833        9.49006120463608
C           12.70489848508538       23.42196460131749        6.89471057916055
H           12.57955694440841       22.95230665909631        5.92507137560394
C           12.48940823929816       22.68544141153786        7.97665639819089
H           12.12307947645641       21.67848245639951        7.90764414646559
H           12.68571580505401       23.06630794081607        8.95721253718673
C           13.91200215354386       23.33187210049193        1.84891794179269
H           13.06330604019865       23.07257616837218        2.47663728118703
H           14.72547459971409       22.63985237340799        2.07783415213468
H           13.60761407411150       23.17759352878789        0.81825100984702
C           15.44399457215277       25.44246125821334       -0.11426550695846
H           15.85898989558200       26.31723832889631       -0.60565784912472
C           15.39959805165413       24.30695187835542       -0.79504487621395
H           15.68603531919927       24.24806911049271       -1.82885956486452
H           15.08066666350702       23.39268148286957       -0.34038349870832
C           17.18140872202159       30.39812217372651        0.26821419505506
H           16.34559656781601       30.21712605033663       -0.40646866703298
H           17.96890423716660       29.68457011582156        0.02667409175459
H           17.55335345214051       31.40147982792228        0.08585782672300
C           17.76683785285852       32.35971871195043        2.70432791643227
H           17.17467362271249       33.22035736085682        2.39466374658760
H           18.58850927516049       32.24169997564289        2.00161386865073
H           18.18517033471442       32.56593002452018        3.68551745163708
O           16.60846038564782       27.24054309197868        5.15405904506006
H           16.79387464278587       26.52704223749712        4.52525635810319
H           17.36248044917895       27.66012945354284        5.58782782895737
C            9.64398899359165       29.60568822337204        2.51026242801978
H            9.64385784709914       30.59301649398135        2.04872407588385
H            8.70580105443302       29.48346715319712        3.04871812982916
H            9.70128232889717       28.85853013812281        1.72809991505622
N           10.99266035530108       30.27273605316702        4.50529707694907
H           10.34480722541033       30.98072511023505        4.81622926667145
C           10.81330930450844       29.46731966097707        3.41757167430123
C           12.17604576605189       29.94275047987329        5.07270901839859
H           12.56427656496757       30.42625708063729        5.94405452483009
N           12.75837897088481       28.97628661388806        4.40797457727119
C           11.91969010957894       28.66361668264868        3.37848805111979
H           12.16218579424029       27.88445811424628        2.68683768888029
78
 energy: -116.042402817676 gnorm: 0.059841947063 xtb: 6.7.1 (edcfbbe)
Fe          14.72162198941376       28.09262137305038        4.76573141381363
N           14.99230004464240       29.36671248705809        6.28166723350301
N           13.92786474005409       26.76963732039374        6.00388882509321
N           14.61765366232129       26.73432517346930        3.23622207874228
N           15.67092111399603       29.36441733104251        3.52574632128965
C           15.55335134779175       30.60146920916742        6.21799912080474
C           15.48352354987871       31.25953013792991        7.50596349583704
C           14.90086084739933       30.37564460054402        8.35781112368405
C           14.59836343698083       29.19834057469980        7.57349176855826
C           13.70564835031795       26.92254467399886        7.33765967229166
C           13.17111750186843       25.71706069996039        7.92113565919027
C           13.09911789063298       24.79813600340321        6.90728758816021
C           13.56009274122062       25.49507514833410        5.71265087544290
C           14.14587471950173       25.45970275561190        3.31986543279668
C           14.32986610437752       24.74983412563114        2.08189911592763
C           14.96264620745304       25.62413121094503        1.23074232019744
C           15.10717442275898       26.86532615007842        1.97953216423928
C           15.96305237727954       29.15984781374870        2.21432717461296
C           16.73081174236882       30.26658877146044        1.68343909071849
C           16.93659067597552       31.12178650779878        2.71810215003597
C           16.24075427644831       30.55453255365067        3.85610604642920
C           16.15542707395585       31.15265253328035        5.09941762549565
H           16.60952222311496       32.12594102430028        5.21160028565688
C           13.99876179895834       28.06019795399389        8.07333834395069
H           13.76710231889751       28.04378108989481        9.12757760268409
C           13.62776656476779       24.89418064390915        4.47226187574443
H           13.28883364765303       23.87446329329432        4.39254081610761
C           15.68960718343755       28.01889001098736        1.48380858548226
H           16.00971926040502       28.01782212403462        0.45344821531629
C           14.58765640551400       30.55504683675951        9.80436199064133
H           13.51013905016147       30.61281241205583        9.95951446712409
H           15.03732507378933       31.46936903664754       10.17982771251074
H           14.96553426465624       29.72418737374359       10.39584169485233
C           15.93908897310938       32.64941941008180        7.79108709684942
H           15.81891374436337       33.27763729550482        6.91306704495785
H           16.98817008821987       32.67152380084718        8.08413688030530
H           15.35382147057886       33.08027228762122        8.59924106331221
C           12.77783327169011       25.60504851047081        9.35130409639427
H           12.36332932622254       26.54532305717331        9.70733943621342
H           13.64316888592636       25.36020092095251        9.96915507495352
H           12.02148852683444       24.84093091001250        9.49269067024425
C           12.67859037397123       23.41696855064401        6.91606268503531
H           12.52211125394035       22.96806632885095        5.94213910272777
C           12.49064247050158       22.65305460812263        7.98831018871614
H           12.15666903799179       21.63356358681090        7.90383739481941
H           12.68988297022998       23.00232281046523        8.98073837842856
C           13.89757914090000       23.34287399861110        1.86121206413396
H           13.06464821681721       23.08425224527024        2.50952466776627
H           14.71570395827580       22.64955794236469        2.06750055046562
H           13.56892179445920       23.19019272516271        0.83730288218238
C           15.41957914079627       25.43971715362632       -0.12692021117316
H           15.80604276893519       26.32964129586298       -0.61131024006259
C           15.42297740276186       24.30367711405520       -0.81995142448684
H           15.75235370694671       24.25965775794442       -1.84436671555272
H           15.10806464146302       23.37061237729766       -0.39733454620751
C           17.18136167468420       30.39739007149943        0.27034900251395
H           16.34973420607406       30.21731478843399       -0.40806908201634
H           17.96795399793742       29.68127535917736        0.03520041761496
H           17.56132055892422       31.39710252444930        0.08377702414511
C           17.75673371267603       32.36620665228920        2.70857056525225
H           17.16448333576224       33.22840450557790        2.40426181434505
H           18.58105408584927       32.25931803354486        2.00701868753293
H           18.17464916851589       32.56841781651590        3.68997938387713
O           16.60607115374345       27.15342481031350        5.24702071660614
H           16.88009037490544       26.53942824738834        4.50309903668529
H           17.41705310015624       27.66103311094090        5.54622495102421
C            9.65190353904029       29.59903724491680        2.51272181451777
H            9.64068845503571       30.58488463863242        2.04926588196752
H            8.71899066754840       29.47341461349258        3.05860024936517
H            9.70058624189690       28.85151943241290        1.73016599324690
N           11.01182575045752       30.26865291544174        4.50357187098997
H           10.36582210450068       30.97542701021662        4.82022800340908
C           10.82964624123457       29.46415664397632        3.40737733359236
C           12.19381454896093       29.93229285114094        5.06699367634474
H           12.58147115414322       30.40932624242610        5.94155607075685
N           12.77497927219471       28.96918887990342        4.40204733193656
C           11.93730483306277       28.66476673810626        3.37019903925253
H           12.17927804976733       27.88789322657211        2.67726619008162
78
 energy: -116.045429463923 gnorm: 0.029174398591 xtb: 6.7.1 (edcfbbe)
Fe          14.73720366512854       28.08711557761395        4.76260239953187
N           14.98342318464785       29.37754087211585        6.27002597069713
N           13.91655580565956       26.77114381274342        6.00419571590099
N           14.61551473266940       26.74237680436244        3.23469484409612
N           15.67017497125697       29.36405295519774        3.52674344972435
C           15.54185486398071       30.61251666993500        6.20792480381066
C           15.47185556670993       31.27077307227125        7.49781052435528
C           14.88886413444560       30.38404854221107        8.34724662857853
C           14.58622843989342       29.20743943762913        7.55896268333750
C           13.69911548870405       26.93168757909034        7.33407295245506
C           13.16638918150106       25.72389204806303        7.92557469340008
C           13.08923804518854       24.79970237683400        6.91910816478694
C           13.55308280823501       25.49624051706385        5.71835572684569
C           14.13923352815874       25.47114308903604        3.32716105198353
C           14.31725333887430       24.75886734342753        2.08682468859271
C           14.94340212381852       25.62725541650793        1.22680364203917
C           15.09763785223161       26.87155904813605        1.97483384701950
C           15.95157806380029       29.16368594130419        2.21281358913914
C           16.72020661577095       30.27264573747405        1.68060993155607
C           16.92913010959866       31.12662388053795        2.71552107099776
C           16.23402315674567       30.55764778063283        3.85481511107556
C           16.15182179323276       31.15996521681061        5.09422643566759
H           16.61748541910059       32.12677121028632        5.20865159206530
C           13.99125345109328       28.07068750648940        8.06388781260166
H           13.77076469635709       28.05764877405200        9.11955363984999
C           13.62562045958910       24.90010450057952        4.47864168725776
H           13.30049693284428       23.87638312667779        4.39965645476109
C           15.68192853662018       28.02349501139123        1.48035154137072
H           16.01285760663300       28.02198425020805        0.45430030769077
C           14.58476693627629       30.55134188003267        9.79757327359520
H           13.50737968720288       30.60347143605332        9.96211715803955
H           15.03485710168199       31.46430826000164       10.18109572454541
H           14.97210448838845       29.71482467306556       10.37720857318666
C           15.94086480562711       32.65520382969650        7.79023365500314
H           15.82160466226416       33.29161583036373        6.91692846541269
H           16.99292071067792       32.66357417839988        8.07854159212420
H           15.36595432153195       33.08680488615737        8.60790709577628
C           12.77114453826472       25.61521123718687        9.35527106272753
H           12.37571326046135       26.56528159967819        9.71083388559719
H           13.63041323796196       25.34872488173132        9.97499014849564
H           11.99810486988053       24.86289103473464        9.49124215396231
C           12.65730246384755       23.41676406997109        6.93494884034941
H           12.46495788399383       22.98382972461700        5.95903446241250
C           12.49907880219380       22.62523640397572        8.00090257496382
H           12.18673599429353       21.59651775270103        7.89821362146242
H           12.70001248766872       22.94655321557113        9.00648244834274
C           13.88218716531356       23.35258414043865        1.87010585282639
H           13.06498914421838       23.09320929948700        2.54089223988191
H           14.70747595516847       22.65943761574191        2.05375927777586
H           13.53075999312605       23.20602951421476        0.85037197238671
C           15.39529902218283       25.44136513027004       -0.13590591350890
H           15.75292781702481       26.34303278609161       -0.62021409744098
C           15.44426026842682       24.30111658108714       -0.83965655326452
H           15.81130871058718       24.27790643814271       -1.85692009361691
H           15.13722914069119       23.34870950030145       -0.44451245899157
C           17.17990362273360       30.39752207101433        0.26950181079941
H           16.35126446200227       30.21814976605181       -0.41380759938102
H           17.96675220879873       29.67672508551273        0.04340435100838
H           17.56808557903630       31.39577544060147        0.08101695937689
C           17.74446712058943       32.37556717388824        2.71217397548389
H           17.14816378058596       33.23894947978091        2.41426737987889
H           18.57118956512489       32.27952476137776        2.00927245935467
H           18.16199611743013       32.57281044608762        3.69620376411350
O           16.66464781029755       27.16275272472413        5.20520705238069
H           16.90664098429610       26.49321034287509        4.57983932704880
H           17.43547738954967       27.60575320446427        5.56502172537210
C            9.66054202371573       29.59059131550599        2.51662563206995