87
 energy: -128.373244419810 gnorm: 0.247243088602 xtb: 6.7.1 (edcfbbe)
Fe          21.05700000000000      -37.04000000000000        6.02300000000000
N           19.30200000000000      -36.22200000000000        5.31000000000000
N           20.39500000000000      -38.75399999999999        5.34400000000000
N           22.74100000000000      -37.87700000000000        6.70400000000000
N           21.78800000000000      -35.25000000000000        6.54900000000000
C           19.02200000000000      -34.88900000000000        5.27600000000000
C           17.87800000000000      -34.59500000000000        4.40500000000000
C           17.47500000000000      -35.78400000000000        3.92800000000000
C           18.35600000000000      -36.81099999999999        4.47400000000000
C           19.21600000000000      -39.07300000000000        4.69700000000000
C           19.09300000000000      -40.51400000000000        4.61600000000000
C           20.18000000000000      -41.02499999999999        5.20100000000000
C           21.00900000000000      -39.95500000000000        5.66500000000000
C           23.06800000000000      -39.20400000000000        6.67800000000000
C           24.42400000000000      -39.38199999999999        7.12400000000000
C           24.91300000000000      -38.16300000000000        7.41100000000000
C           23.86100000000000      -37.20800000000000        7.15000000000000
C           22.94800000000000      -34.96299999999999        7.21400000000000
C           22.91900000000000      -33.60700000000000        7.71700000000000
C           21.58599999999999      -33.01600000000000        7.27600000000000
C           20.97000000000000      -34.12200000000000        6.56500000000000
C           19.72800000000000      -33.98800000000000        5.99900000000000
H           19.24300000000000      -33.02500000000000        6.15200000000000
C           18.29300000000000      -38.16900000000000        4.22000000000000
H           17.47000000000000      -38.54300000000000        3.61100000000000
C           22.21100000000000      -40.18099999999999        6.30200000000000
H           22.48800000000000      -41.21299999999999        6.51600000000000
C           23.96000000000000      -35.85799999999999        7.35100000000000
H           24.93400000000000      -35.46800000000000        7.64600000000000
C           16.31100000000000      -36.04800000000000        2.96500000000000
H           15.93800000000000      -35.08300000000000        2.56000000000000
H           15.48400000000000      -36.55500000000000        3.50600000000000
H           16.65800000000000      -36.68200000000000        2.12200000000000
C           17.23900000000000      -33.20200000000000        4.11600000000000
H           17.88900000000000      -32.40200000000000        4.53100000000000
H           16.24000000000000      -33.14000000000000        4.59800000000000
H           17.14200000000000      -33.05400000000000        3.01900000000000
C           17.92800000000000      -41.33899999999999        3.97900000000000
H           17.47600000000000      -40.75999999999999        3.14600000000000
H           17.14800000000000      -41.53900000000000        4.74400000000000
H           18.32200000000000      -42.29800000000000        3.57900000000000
C           20.52500000000000      -42.50900000000000        5.39800000000000
H           21.40700000000000      -42.97200000000000        4.93300000000000
C           19.70500000000000      -43.24000000000000        6.16800000000000
H           18.82100000000000      -42.78099999999999        6.63500000000000
H           19.90600000000000      -44.30700000000000        6.34200000000000
C           25.17100000000000      -40.73300000000000        7.25800000000000
H           24.56800000000000      -41.53900000000000        6.78800000000000
H           25.32000000000000      -40.97500000000000        8.33200000000000
H           26.15300000000000      -40.67100000000000        6.74300000000000
C           26.33299999999999      -37.79600000000000        7.93600000000000
H           26.65000000000000      -36.74300000000000        7.91800000000000
C           27.21500000000000      -38.68600000000000        8.41800000000000
H           26.96099999999999      -39.75500000000000        8.46400000000000
H           28.20300000000000      -38.35700000000000        8.77300000000000
C           23.98000000000000      -32.85500000000000        8.50700000000000
H           24.84900000000000      -32.64000000000000        7.84900000000000
H           24.32100000000000      -33.47600000000000        9.36300000000000
H           23.56200000000000      -31.89400000000000        8.87700000000000
C           20.97400000000000      -31.60600000000000        7.47700000000000
H           21.68500000000000      -30.97100000000000        8.04900000000000
H           20.02400000000000      -31.68700000000000        8.04700000000000
H           20.78500000000000      -31.13500000000000        6.48900000000000
C           18.84400000000000      -36.34700000000000       11.18700000000000
H           19.29900000000000      -36.85100000000000       12.06600000000000
H           17.74500000000000      -36.50600000000000       11.21000000000000
H           19.07200000000000      -35.26100000000000       11.23700000000000
N           19.29500000000000      -38.26400000000000        9.59700000000000
H           18.86200000000000      -38.94900000000000       10.18200000000000
C           19.41700000000000      -36.93100000000000        9.91900000000000
C           19.83400000000000      -38.48600000000000        8.41100000000000
H           19.88400000000000      -39.46099999999999        7.92800000000000
N           20.28700000000000      -37.33900000000000        7.93700000000000
C           20.03700000000000      -36.34900000000000        8.86000000000000
H           20.32500000000000      -35.32200000000000        8.67600000000000
C           23.75800000000000      -36.83700000000000        0.97100000000000
H           24.52700000000000      -36.03700000000000        0.92600000000000
H           23.14500000000000      -36.80000000000000        0.04500000000000
H           24.26599999999999      -37.82200000000000        1.05000000000000
N           22.14700000000000      -35.47100000000000        2.31800000000000
H           22.13600000000000      -34.71000000000000        1.67000000000000
C           22.88700000000000      -36.62299999999999        2.16000000000000
C           21.46800000000000      -35.54000000000000        3.44700000000000
H           20.79900000000000      -34.76200000000000        3.81400000000000
N           21.74400000000000      -36.69600000000000        4.03100000000000
C           22.63100000000000      -37.39400000000000        3.24600000000000
H           22.99500000000000      -38.37200000000000        3.53500000000000
87
 energy: -128.432761050279 gnorm: 0.107200236890 xtb: 6.7.1 (edcfbbe)
Fe          21.05216088884199      -37.04104367626993        6.00583652071188
N           19.29907658006968      -36.21666082234532        5.28276860845390
N           20.38120589618453      -38.77799081924375        5.37192139398434
N           22.76711784408854      -37.86191831916817        6.67798384801437
N           21.75407063279330      -35.24231069930333        6.56873100602336
C           19.00821618700135      -34.88690768880260        5.28186564233734
C           17.86756830586002      -34.59455689488428        4.41968405072319
C           17.46949573403207      -35.79341196010355        3.92507420098381
C           18.36067431282180      -36.80744658033640        4.46829919618739
C           19.21799209344975      -39.08896050445804        4.70914622639336
C           19.08356300588063      -40.53030617639470        4.60385257644586
C           20.18307144286159      -41.05812590669752        5.19448410042507
C           20.99779247870259      -39.97008600679055        5.66276665694039
C           23.08206257056694      -39.19047538083620        6.68598774705047
C           24.43950988973917      -39.38727931695488        7.14035456761954
C           24.94377569354204      -38.15129579461416        7.41979244681243
C           23.87708371457848      -37.20082388318583        7.13919882176007
C           22.91859601053032      -34.93158298841615        7.20953450845187
C           22.88483760543776      -33.57094289051641        7.69524763859036
C           21.62577025828076      -33.03338007687790        7.29069808288946
C           20.97329432319589      -34.11186194247752        6.58973113825616
C           19.72455781752171      -33.96515928880347        6.00994618055260
H           19.25441186703333      -32.99850856360167        6.13932889043202
C           18.29957103972861      -38.16908854332195        4.22450026011956
H           17.47622708948278      -38.54020171740150        3.62274620475353
C           22.20822595972518      -40.18160586089734        6.29887559182915
H           22.48780208305455      -41.21109956283443        6.49521150339031
C           23.95861164694087      -35.83984291732113        7.35439868133164
H           24.92224722815898      -35.45693839193533        7.67180518263348
C           16.32455130219081      -36.04937136387923        2.97351174489420
H           15.94688331128397      -35.10246462890809        2.57138507432136
H           15.50131109124112      -36.55197638584904        3.49478838715547
H           16.65074149806710      -36.67677111831033        2.13692666105272
C           17.25732032283014      -33.22638196273532        4.12832836211492
H           17.88240189431900      -32.42052672367497        4.52667943028017
H           16.26422358536822      -33.14860195099369        4.58801911963414
H           17.14807145017826      -33.06772743786630        3.04761521105981
C           17.94081073391960      -41.31948508223496        3.98089974863392
H           17.48307945192068      -40.76347770768786        3.15739661530237
H           17.16719451869961      -41.52967047120582        4.72933413659248
H           18.31770110347868      -42.27333615098759        3.59481323563992
C           20.50424108125626      -42.50126753486786        5.40482422067385
H           21.38821303565588      -42.93925786028032        4.94178277429214
C           19.70613457695149      -43.24037932348208        6.16414949206923
H           18.83269241048552      -42.79993252310093        6.63183256015531
H           19.90035674506817      -44.29331502330410        6.34126047733859
C           25.15199734885369      -40.72301344050314        7.25135972243694
H           24.57009791644254      -41.52661825180497        6.79098253864405
H           25.30838275316471      -40.97505938381568        8.30765318234503
H           26.12598619042551      -40.67179137166084        6.74990095011144
C           26.31259543792074      -37.80790961475934        7.92807924146044
H           26.61134779599439      -36.76006295136629        7.90465379083183
C           27.19960973466112      -38.67833385563589        8.41102071921709
H           26.97922548212581      -39.73304082802392        8.47786239017155
H           28.17661326147783      -38.35612988479264        8.76169044353890
C           23.95724189852758      -32.86361200573256        8.48687611705914
H           24.83156448976764      -32.64558928969451        7.85750488242028
H           24.30414377643746      -33.46666813365449        9.33779043706843
H           23.57117283677607      -31.91328525165815        8.87083096961561
C           21.01014140322100      -31.64935291112917        7.48108139175299
H           21.68264090621285      -30.98983301463340        8.04050043178674
H           20.05923252909096      -31.70080909203998        8.03254155110428
H           20.80118582747897      -31.16545915600263        6.51507752097953
C           18.84834266386881      -36.35336790271104       11.18392301160785
H           19.29099629814766      -36.84267759261186       12.05947156159244
H           17.76209594525415      -36.49922221063546       11.21528952545167
H           19.06722411880467      -35.28314394547422       11.23267003442190
N           19.29002269758695      -38.26094145434629        9.61255280476789
H           18.85837441966283      -38.95311126119191       10.19899423339085
C           19.40595664351515      -36.92958892650002        9.92216052204432
C           19.83501611934197      -38.46982967130545        8.40672220638395
H           19.88747970635849      -39.43486799230717        7.92867289370826
N           20.28422518996501      -37.33377688758249        7.91720755433971
C           20.03233267516050      -36.36259290878156        8.85160117539559
H           20.32156167369698      -35.34293209855415        8.67586673194587
C           23.76043772411537      -36.83619567103252        0.96741401852325
H           24.52318801976583      -36.05016093889747        0.91573659026782
H           23.16235519598419      -36.80509932870882        0.04902032744299
H           24.25787303315627      -37.80650271971017        1.04364186525726
N           22.15632925874426      -35.47336869137462        2.30213665245743
H           22.14104933164063      -34.70747325459112        1.65230467739223
C           22.89131574488124      -36.62190747415288        2.15166035711018
C           21.48180490553269      -35.55015065549384        3.45302399336089
H           20.81752086235699      -34.78233828084782        3.81341721565029
N           21.75406357251713      -36.68919581606558        4.05312682116009
C           22.62390071787343      -37.37882773173936        3.25325979290863
H           22.98383558047027      -38.35140172431419        3.53740042756683
87
 energy: -128.449500647629 gnorm: 0.036001856161 xtb: 6.7.1 (edcfbbe)
Fe          21.04868179883684      -37.03713052168674        5.99045398330166
N           19.29731525750280      -36.20972507978657        5.27279031630186
N           20.37649005433724      -38.79545089279613        5.38922716072187
N           22.79004243968683      -37.84729760183418        6.65321216624674
N           21.72406588150141      -35.23557607709218        6.58234302324294
C           19.00188325806762      -34.88367266034179        5.29104429912386
C           17.86332637898868      -34.59868778928211        4.43863895433153
C           17.47165311643980      -35.80276501169387        3.92719473761513
C           18.37337206252380      -36.80220778926814        4.46813841855944
C           19.22177482249887      -39.09813725847599        4.72481738628322
C           19.07722394606649      -40.53680780200562        4.60224939172944
C           20.18206390965621      -41.07954682664793        5.19446352320685
C           20.99033162005175      -39.97841262655552        5.66231689017427
C           23.09225012637302      -39.17480465640662        6.68072518921942
C           24.44233418281905      -39.38677277488225        7.14958978894756
C           24.96007370235065      -38.13982099110329        7.42258124891480
C           23.88842350730430      -37.19006231436198        7.11970845775092
C           22.89226655839724      -34.91846620120522        7.20680886114777
C           22.85285477354138      -33.54603824211154        7.67519943091142
C           21.65809311003807      -33.04340177754142        7.30050198241967
C           20.96653145981869      -34.10571492285467        6.60742867299735
C           19.71994513451370      -33.94343765814138        6.01608952772703
H           19.26688386686374      -32.96784350658462        6.11445043715188
C           18.31044102905264      -38.16794575755791        4.23529494584672
H           17.48555287708713      -38.53753848491446        3.64045657144929
C           22.21015709622578      -40.17448468192308        6.28982195830487
H           22.49731773223228      -41.20251217825311        6.46602731867714
C           23.94921493557955      -35.82323792563460        7.35719650201644
H           24.89605025098039      -35.43817318308271        7.71303998780436
C           16.33984329630405      -36.05429632506578        2.98467241354287
H           15.96089280853134      -35.11567655999730        2.58548601977816
H           15.51740098021457      -36.55687386752547        3.49385745054393
H           16.65420502503992      -36.67951200248722        2.15101093343854
C           17.27049849680771      -33.25439634004178        4.14581850699331
H           17.88852680346395      -32.44916516270212        4.53340933383061
H           16.27862893239549      -33.16338742160855        4.59136344612419
H           17.16043455021071      -33.09856810699851        3.07111998762209
C           17.95420907883183      -41.29887247643043        3.98387255325378
H           17.49568608967648      -40.75347592856812        3.16416079735154
H           17.17958490912724      -41.51070984002917        4.72210464497820
H           18.31804828962125      -42.25396284635175        3.60748508673164
C           20.48338343855220      -42.49036661585917        5.40796677363318
H           21.37664079093332      -42.90172190674733        4.94923164199320
C           19.70148951881835      -43.24843815481137        6.15970601887104
H           18.83055536957147      -42.82727295154810        6.63219164845489
H           19.89873281250140      -44.29085871658368        6.34132691827550
C           25.12987969581841      -40.70907546334801        7.24830553497727
H           24.55294877124203      -41.50345899085040        6.78560084329357
H           25.29161732992950      -40.97840007580755        8.29328569342410
H           26.10102793820799      -40.66600095754025        6.75418992397191
C           26.27928008797671      -37.81287644387633        7.91594382462646
H           26.56002169989063      -36.76607552197290        7.88410891609339
C           27.18074533920294      -38.66579978971712        8.40361100291199
H           26.99478816709791      -39.71698746068703        8.49564947394094
H           28.14958098009300      -38.33832693768397        8.74649697558813
C           23.93427920822486      -32.86915210536898        8.46292930935027
H           24.80986384661493      -32.65997039063166        7.84463227156833
H           24.27026302526304      -33.47949390635107        9.30310236794153
H           23.57157237752016      -31.92306757062212        8.86047612914395
C           21.05040507719200      -31.68191506537257        7.49009637088581
H           21.70772617958167      -31.01644135756952        8.04359556261694
H           20.10060276451872      -31.73922656337407        8.02997927885821
H           20.83585648205411      -31.20845294845209        6.52728903397861
C           18.85371056881549      -36.35657992137077       11.17983746021218
H           19.29165734203595      -36.84001787081990       12.05167262148262
H           17.77356904355209      -36.49502077621221       11.22000733269274
H           19.06865878066019      -35.29461616875643       11.22595358680916
N           19.28675567146222      -38.26180779625564        9.62153724106246
H           18.86078695837635      -38.96015951586251       10.20883522654372
C           19.39704668263709      -36.92983585429793        9.92139981843798
C           19.83044459824984      -38.45807305689631        8.40043823463424
H           19.88711192280151      -39.41615269908987        7.92604438765507
N           20.27337293984511      -37.33006353803035        7.90062724872920
C           20.02062959149664      -36.37248973344953        8.84153563800846
H           20.30779784966257      -35.35548337424925        8.67714004523604
C           23.76255242833840      -36.84230328450942        0.96420623460645
H           24.52144299351099      -36.06284788475958        0.90680672305943
H           23.17377253175628      -36.81388500730107        0.04863446777811
H           24.25509046552988      -37.80436402838401        1.03901718119044
N           22.16419531765933      -35.47503655415553        2.28985167420926
H           22.14252765735413      -34.70849784321106        1.63741540260883
C           22.89476897950156      -36.62365151629781        2.14732768132380
C           21.50237637098267      -35.55017099251973        3.46115940599354
H           20.84221547673620      -34.78743701204844        3.81588537311964
N           21.76958128804910      -36.67642196363561        4.07451419223202
C           22.62601352208798      -37.36286456841674        3.26591268172975
H           22.98308596853280      -38.33326907286405        3.54435231993102
87
 energy: -128.453717993840 gnorm: 0.014821023551 xtb: 6.7.1 (edcfbbe)
Fe          21.04703543164458      -37.03136995447895        5.98421155743246
N           19.30284110403005      -36.20637174863135        5.27932280430842
N           20.37631248374310      -38.79818602635437        5.39765124424522
N           22.79507158060801      -37.83942354194815        6.62919374596796
N           21.70592585193717      -35.23425760267506        6.59034223076746
C           18.99813175474564      -34.88370227332686        5.30277708609099
C           17.85904293069370      -34.61023324106340        4.45603162775986
C           17.47424504069793      -35.81359351690639        3.93977751804406
C           18.38148922868969      -36.80369932487076        4.47852650833627
C           19.22215969466599      -39.09812491295033        4.73715147784015
C           19.07350948139214      -40.53281881655563        4.61229685212874
C           20.17414888467740      -41.08152051186187        5.20467764241538
C           20.98924177249399      -39.98047048557036        5.66211309946638
C           23.09250553236295      -39.16644743110620        6.66146036266343
C           24.43220252714163      -39.38131089050421        7.14324860389903
C           24.95106522747215      -38.13477733293256        7.41702237090936
C           23.88549037804800      -37.18425684342866        7.10530046120449
C           22.88113944034962      -34.92572245529934        7.20546508385260
C           22.85920099895858      -33.55000097704730        7.66658539281969
C           21.65045673525240      -33.04198560217510        7.30069690045170
C           20.95110736775722      -34.10294604961597        6.61102873525392
C           19.71182798787709      -33.93210434706846        6.01715295569295
H           19.27525934839979      -32.94312337326850        6.08377496013405
C           18.31504594227915      -38.16840418693509        4.24859953444369
H           17.48677981806680      -38.53733904554075        3.65973912300521
C           22.21573814679212      -40.17022158276027        6.27312911819316
H           22.51603902226756      -41.19776033510148        6.43034081878269
C           23.93719872668849      -35.82039682160505        7.36066360157777
H           24.86696357104423      -35.42967745540954        7.76075075959431
C           16.34910335889736      -36.06930397067875        2.99463749480966
H           15.97058715382492      -35.12990224299601        2.59693971172178
H           15.52698632106143      -36.57570629358501        3.50123217427066
H           16.66790520600121      -36.69409143990234        2.16183571351548
C           17.27118055964202      -33.27017701958331        4.16165464844287
H           17.89496279663376      -32.46847643034402        4.54750696070374
H           16.27919173701579      -33.17601271030083        4.60545221634684
H           17.16691709379031      -33.12605816651717        3.08526420195895
C           17.95050866919481      -41.28267241183417        3.98407382909901
H           17.50594155010701      -40.73233620445682        3.15910645307662
H           17.16802955042839      -41.48462890282634        4.71728889898427
H           18.31173170209545      -42.24184506496312        3.61498290765508
C           20.47363707475171      -42.49095025410478        5.41716848872464
H           21.37717214952847      -42.88456425899432        4.96322739120887
C           19.69519836218921      -43.26678063298947        6.15712097956675
H           18.81237994724238      -42.86414773705295        6.62650176043166
H           19.90351512406186      -44.30788258725222        6.33230468200341
C           25.10696530968135      -40.70652654274415        7.24131196559427
H           24.52216635878280      -41.48903726481502        6.76652759597330
H           25.25995704641000      -40.98816265402824        8.28463404272224
H           26.08151209708376      -40.66554176632732        6.75348712832028
C           26.26247294747760      -37.79818116086422        7.90821239708452
H           26.52489481022431      -36.74713743483542        7.86316984624744
C           27.17702367008873      -38.63443498793738        8.40392821513032
H           27.00966367471031      -39.68877406334715        8.52334714783491
H           28.14104836669183      -38.28544967637299        8.73573996441794
C           23.94125891743773      -32.87863537434177        8.44639168297880
H           24.81215321633337      -32.67857796543301        7.82137874695128
H           24.26090507979359      -33.50291701138816        9.28051960755485
H           23.58396444180471      -31.93161489828487        8.84690665646324
C           21.06847487557029      -31.68293187995051        7.50083473985072
H           21.74050130034107      -31.03449596362684        8.05453733694143
H           20.12466414032420      -31.75097043181444        8.04442060919842
H           20.86327501029766      -31.21767634018716        6.53500708019073
C           18.85785253067806      -36.35889058094720       11.17833850850726
H           19.30263864365620      -36.84147988247576       12.04760005596614
H           17.77712610439756      -36.49331721941549       11.23013379877702
H           19.07574682881945      -35.29693386281253       11.21898004138365
N           19.28355930726440      -38.26671567252595        9.61900702116790
H           18.86887201603639      -38.96857623364726       10.21071117539065
C           19.38847307652066      -36.93319057533166        9.91562422177076
C           19.81928839461543      -38.45725781794318        8.39215847845814
H           19.88094016425497      -39.41398540868080        7.91725268746690
N           20.25314750115422      -37.32825680378010        7.88895258660553
C           19.99926910453120      -36.37336059803869        8.83068904826201
H           20.28012098209245      -35.35443298606531        8.67090291143584
C           23.76591698862130      -36.85706490590594        0.96076209343047
H           24.52796527761636      -36.08043633971979        0.89354681809130
H           23.17694844750616      -36.83320380962897        0.04457046678640
H           24.25661673538687      -37.82035573689140        1.03878441067888
N           22.17803605898495      -35.47311837016878        2.28278291062179
H           22.15002463229817      -34.71396388269825        1.62172539620532
C           22.90389845919645      -36.62619769660314        2.14718889528929
C           21.53033545604085      -35.53307545508593        3.46468409987312
H           20.87652700530948      -34.76506698185284        3.81820713259451
N           21.79655481674507      -36.65381979078155        4.08837695994591
C           22.64321834199308      -37.35014457309836        3.27845414915812
H           22.99889749598433      -38.31930638423148        3.56088067887593
87
 energy: -128.456436723691 gnorm: 0.011967639867 xtb: 6.7.1 (edcfbbe)
Fe          21.04623193773994      -37.02424609452898        5.97727991314220
N           19.32102070712524      -36.20117471927285        5.28120099680106
N           20.38422088901763      -38.79936335842023        5.39417758726042
N           22.79201977860926      -37.83183224652127        6.61205699193483
N           21.68678828819290      -35.23665489974279        6.59239870712145
C           19.00376353538237      -34.88196019371905        5.30883912835770
C           17.85587260092161      -34.62178593534999        4.47520394647580
C           17.47866763496199      -35.82528427609040        3.95698587785205
C           18.39534738236068      -36.80413918446359        4.49058761123614
C           19.22481634130541      -39.09695099879722        4.74650734010271
C           19.06676888505660      -40.52780016105850        4.62657144604990
C           20.16329798311185      -41.08392315531592        5.21683533620348
C           20.99005368757747      -39.98351143068522        5.65787615251278
C           23.09068034008090      -39.15731841261724        6.63867855351843
C           24.42059077439009      -39.37338287088990        7.13425826700898
C           24.93664070007715      -38.12786839905167        7.41386328128286
C           23.87507071894843      -37.17997644362892        7.09870342753143
C           22.86390814624428      -34.93823560632236        7.20411333122104
C           22.85853709031522      -33.56129835304831        7.65891515922533
C           21.65294296977889      -33.04184897594700        7.29468597842179
C           20.94209957938177      -34.09926181253170        6.60954798219535
C           19.71142147864900      -33.91678791155194        6.00997854753206
H           19.28618345413485      -32.92290651724648        6.05721823798903
C           18.32016514141959      -38.16736173274104        4.26420852589327
H           17.48446827173496      -38.53363811496743        3.68530647468582
C           22.22427438526483      -40.16657948377888        6.24889657373952
H           22.53837970948103      -41.19196391148479        6.38827475769916
C           23.91668938489993      -35.82076387181795        7.37427569721617
H           24.82642597030771      -35.42257825591989        7.80962268771584
C           16.35848725890052      -36.09093553205367        3.01051293582433
H           15.97613439390285      -35.15398493335167        2.61007880563825