87
 energy: -128.467813056629 gnorm: 0.000046684194 xtb: 6.7.1 (edcfbbe)
Fe          21.06093446064058      -36.95522185483942        5.98770349087326
N           19.35312510739158      -36.12821375649221        5.34156074527044
N           20.41502173309343      -38.76081749755872        5.39693148269759
N           22.77503383545255      -37.77568727818244        6.63421524732118
N           21.70235758524663      -35.15024283376034        6.58023903740139
C           19.00706877641647      -34.81601407683922        5.39112119561812
C           17.69297922784932      -34.61048447138382        4.82173317378505
C           17.25311475301073      -35.83549666761094        4.42883728410787
C           18.30604067297665      -36.77102806834117        4.76166946641421
C           19.22270603884813      -39.04833635810584        4.81038442676122
C           19.10752790685781      -40.45962204174192        4.54699759715857
C           20.26921123626477      -41.03193920112619        4.99551675793729
C           21.07440768932083      -39.94169553795433        5.51342419041238
C           23.11989237974156      -39.09139703057750        6.58180492943461
C           24.42687735851444      -39.30227068446705        7.14876272908593
C           24.87148333974845      -38.07128095417931        7.55525986506265
C           23.81886713857746      -37.13364844783171        7.21339956192571
C           22.88579258005015      -34.86435917902323        7.18104321549788
C           22.98525115261173      -33.44950005972731        7.46749260519664
C           21.83030026234756      -32.88757483482026        7.02083325599762
C           21.04157918713260      -33.96805537553635        6.47047925351019
C           19.78619250671178      -33.79840232231928        5.91387074266756
H           19.38086507466294      -32.79757009678912        5.89173069457546
C           18.23359664517257      -38.12639929511439        4.51152904878173
H           17.32983671823234      -38.49748270422538        4.05210479400960
C           22.32860187712094      -40.10815036880136        6.07141361743667
H           22.72278415371791      -41.11246348472194        6.11907818588015
C           23.87627278630271      -35.77878375801524        7.48353389152651
H           24.76290093484106      -35.40368927765729        7.97198480899884
C           15.96452687795133      -36.21266884924953        3.78125294138630
H           15.33465556179104      -35.33874229145240        3.63253465818187
H           15.41975265357578      -36.92662801864018        4.39949170700781
H           16.14401195144541      -36.67528413535893        2.81025616485609
C           17.01628438706607      -33.28550155905562        4.72159121522319
H           17.61368686626599      -32.59128849479190        4.12949604022426
H           16.87642406793466      -32.84977626995861        5.71140442384119
H           16.04097393177321      -33.38361402456052        4.25101587972330
C           17.96383426370931      -41.11400208036519        3.85288684163959
H           17.58135891333997      -40.47708263547532        3.05671445403833
H           17.14627949316254      -41.31163547908422        4.54855258242205
H           18.28167329878767      -42.06026810738476        3.41933923522026
C           20.68046761767472      -42.41711062045653        4.95995813545157
H           21.74347529388940      -42.58730554202143        4.83052905020150
C           19.87489518309484      -43.46810369476365        5.08040355814675
H           18.81893693904311      -43.36367675559782        5.25857943276529
H           20.25239906953019      -44.47612076136463        5.02922546503533
C           25.14541654714470      -40.60656348075153        7.19111312971301
H           24.95020414518598      -41.18456671861794        6.28885457974413
H           24.82615056132865      -41.20250600131414        8.04823086356029
H           26.21770097459916      -40.43907738837852        7.27082083359512
C           26.12830717133167      -37.71184500408334        8.17210571095094
H           26.51123306319839      -36.73081277952610        7.91499268166679
C           26.82330370264856      -38.47071592187061        9.01398999772535
H           26.47108501029344      -39.43240533493088        9.34404661747985
H           27.76327588400224      -38.14103776540242        9.42512448793907
C           24.15639956364469      -32.80348660746584        8.12543882601357
H           25.05942625594248      -32.95151817569531        7.53239152042097
H           24.32682018687950      -33.23439787832834        9.11231650468127
H           23.99520923974223      -31.73432095050785        8.24191269357172
C           21.39522153239653      -31.46179417538589        7.05937521752273
H           22.15778724936269      -30.83690814701040        7.51791985483313
H           20.47487474759464      -31.35640711106541        7.63471318444463
H           21.20715053616363      -31.08849927386174        6.05202869039145
C           18.33611779984802      -36.42807624023263       10.84823660724520
H           18.92702114177888      -36.43147968856044       11.76426573881395
H           17.45021456825537      -37.04180838120213       11.01197265448289
H           18.02088122684791      -35.41009612295705       10.64158588541623
N           19.66136715798635      -38.20758657219615        9.68644509282253
H           19.57141998996137      -38.89471143686594       10.41672878878205
C           19.13189306546137      -36.94337275901105        9.70521691219122
C           20.32213171704088      -38.35679574138034        8.51633895109502
H           20.83607223928594      -39.25070408489983        8.22842485493820
N           20.24333998762606      -37.26652251900522        7.79439385430828
C           19.50607253070235      -36.37847439608272        8.52001324358057
H           19.29600711465334      -35.39932740036223        8.14306546573615
C           23.83272831149303      -37.47229370827358        1.15337942009864
H           24.72487904507897      -36.86251479755273        1.00997304932303
H           23.25802925871999      -37.45857821695238        0.22718330531330
H           24.13878076399599      -38.49351261781332        1.35775113028282
N           22.49185391843805      -35.69642968104883        2.30307055566684
H           22.59435339964402      -35.00637613395193        1.57723385092923
C           23.02041954383500      -36.96117010927753        2.28651090455116
C           21.81520943177662      -35.55141659528866        3.46487186896112
H           21.29718176947624      -34.65919451081908        3.75023820180778
N           21.88296655349211      -36.64464415942837        4.18327296607137
C           22.62900420211243      -37.53058560277788        3.46391451679191
H           22.83322940210944      -38.51182897263649        3.83864970581089
