78
 energy: -116.058077804260 gnorm: 0.000057050021 xtb: 6.7.1 (edcfbbe)
Fe          28.27219151992305       91.34091761260176       52.37221294458051
N           29.26543743666758       92.98564502454751       51.76996847422948
N           29.39555512923314       91.29328639975621       54.04622964921941
N           27.25446917142047       89.74842167614415       53.00571636506213
N           27.13353824756810       91.43802005032278       50.74121479710590
C           29.08770951699950       93.66506068727425       50.60567209755885
C           30.02139580363497       94.76350649561965       50.50687650253328
C           30.77320729119466       94.73115580337408       51.64057558330552
C           30.29068831743047       93.61024233414167       52.41503024168882
C           30.40288405590343       92.14720444625587       54.38684374316109
C           31.00744424527424       91.75535900054042       55.63224674116233
C           30.35053991730860       90.62313001285357       56.04017505525088
C           29.34191219642092       90.36074346405655       55.03362864221247
C           27.47923237341221       89.03244864137945       54.14083260728457
C           26.55492356282749       87.93068312145971       54.24463104089336
C           25.75744143235484       87.99342435178511       53.13382917795526
C           26.21529661502963       89.14484066083212       52.37884564061856
C           26.11384523038781       90.60455246688913       50.41176366885203
C           25.53220590885313       90.98179272556722       49.14077522679459
C           26.23077938638808       92.06458249041867       48.70977681095562
C           27.22800005766812       92.33363773178903       49.72429584728637
C           28.13829260212787       93.36955482852181       49.64535985735239
H           28.10427485201888       93.99913216442367       48.76952097713939
C           30.81871924062611       93.23471048480977       53.63520533235448
H           31.63778769973947       93.82198708960530       54.02145777436940
C           28.45928626580381       89.29928975895317       55.07970112192508
H           28.54190461710185       88.62113951856232       55.91504984864316
C           25.67832331763104       89.53162785806754       51.16500126612933
H           24.85936298603524       88.94892362289087       50.77149188113130
C           31.88200903482511       95.63241080477032       52.06526798008418
H           32.05865116980115       96.40467256275068       51.32076802264257
H           32.80605007411931       95.06933700688406       52.20047698072349
H           31.64175496429749       96.11791669923518       53.01161964986022
C           30.08711129359594       95.70970932906546       49.35755524204374
H           29.13944789256184       96.23571569363749       49.23958982379730
H           30.29231409782251       95.17281453184771       48.43122001683862
H           30.87160848300914       96.44756230462451       49.50704919066756
C           32.08356745549017       92.50562486581160       56.33728576093834
H           31.94495137370328       93.57970850582727       56.22205135693582
H           33.06641371460589       92.24792235570015       55.93852999813184
H           32.07116291620623       92.26521584049297       57.39845945470736
C           30.54992517639300       89.83211212423926       57.23393184171048
H           29.65814688104349       89.37454806778686       57.64629560878510
C           31.71558452558654       89.62567256882663       57.83832418497651
H           32.64069372378984       90.01369378955043       57.44915716616932
H           31.78714580285945       89.03386181941460       58.73576460828468
C           26.47136294037074       86.98591745327187       55.39228970214532
H           26.63457080695543       87.50806508146816       56.33391906668384
H           27.22471299479038       86.20094123519533       55.30665249287652
H           25.48913125526948       86.51867911167979       55.41978019493617
C           24.65313217053427       87.14208802371250       52.74990440161044
H           23.84219545843377       87.63557249752830       52.22686091201955
C           24.57033866100010       85.83578643047834       52.98060829854052
H           25.36566903226568       85.28612092695467       53.45322937260186
H           23.70863450226973       85.26358890893852       52.67892176257570
C           24.38884971786148       90.27551346041297       48.49699688327789
H           23.51030486209866       90.30520548838354       49.14168634944723
H           24.63742231192310       89.23005500646366       48.31231830964482
H           24.13227937444249       90.73929659123813       47.54768969477161
C           26.06060471790488       92.86536185670981       47.46447050985154
H           25.25264789789207       92.46682238728631       46.85589832268538
H           26.97558720104256       92.85213302251216       46.87168835260224
H           25.82854522492124       93.90308597398399       47.70511697937695
O           26.88254895904924       92.76716490439195       53.51163627892763
H           27.19763972754678       93.60765089763026       53.16169830881639
H           27.24606285167751       92.67591474117083       54.39912181208896
C           30.75104390372354       87.36732232827498       49.34873460225233
H           31.36956075625208       86.63806760409143       49.87164758146368
H           31.27285690746023       87.66779548349372       48.44014260103125
H           29.81417345517781       86.89438054264129       49.07175531067897
N           31.47578554987772       89.32491845736828       50.73221088654395
H           32.46323282116267       89.18965520637651       50.59003577243826
C           30.47729426581066       88.54284378460446       50.21344875370999
C           30.89329070160397       90.29926423853018       51.46641626970013
H           31.43391670667373       91.05935642921479       51.99134734532785
N           29.58793868337857       90.18207596142938       51.44375362514572
C           29.31362208637439       89.09409098120788       50.66790305431568
H           28.30485591757147       88.78274558944184       50.49084038785810
