78
 energy: -115.990216965512 gnorm: 0.233536406743 xtb: 6.7.1 (edcfbbe)
Fe          28.30300000000000       91.34099999999999       52.39100000000000
N           29.28500000000000       92.99199999999999       51.79900000000000
N           29.47600000000000       91.24500000000000       54.04000000000000
N           27.29200000000000       89.73600000000000       53.00200000000000
N           27.15200000000000       91.43500000000000       50.75900000000000
C           29.06500000000000       93.73699999999998       50.64599999999999
C           29.89000000000000       94.89699999999999       50.63199999999999
C           30.67100000000000       94.86499999999998       51.76600000000000
C           30.27200000000000       93.69300000000000       52.47799999999999
C           30.48400000000000       92.13300000000000       54.42900000000000
C           31.09700000000000       91.68500000000000       55.63500000000000
C           30.48699999999999       90.52800000000001       56.00399999999999
C           29.44700000000000       90.27100000000000       55.02300000000000
C           27.49500000000000       88.99100000000000       54.17099999999999
C           26.47400000000000       88.00499999999998       54.32899999999999
C           25.62500000000000       88.11199999999999       53.24900000000000
C           26.15500000000000       89.17000000000000       52.42000000000000
C           26.15000000000000       90.58100000000000       50.37700000000000
C           25.69000000000000       90.88300000000000       49.04799999999999
C           26.41500000000000       91.92299999999999       48.60999999999999
C           27.28200000000000       92.30800000000001       49.68700000000000
C           28.16700000000000       93.39899999999999       49.65799999999999
H           28.14000000000000       94.03500000000000       48.77400000000000
C           30.80900000000000       93.27500000000001       53.69800000000000
H           31.57400000000000       93.91900000000000       54.13100000000000
C           28.54200000000000       89.24299999999999       55.06300000000000
H           28.65100000000000       88.53899999999999       55.88700000000000
C           25.64700000000000       89.56000000000000       51.18800000000000
H           24.77500000000000       89.02000000000000       50.81900000000000
C           31.71600000000000       95.86000000000000       52.22400000000000
H           31.79000000000000       96.68599999999999       51.48500000000000
H           32.70400000000000       95.35700000000000       52.30300000000000
H           31.42500000000000       96.28299999999999       53.20900000000000
C           29.91000000000000       95.89600000000000       49.51200000000000
H           28.87400000000000       96.06399999999998       49.14700000000000
H           30.52900000000000       95.50900000000000       48.67500000000000
H           30.32500000000000       96.86000000000000       49.87600000000000
C           32.15500000000000       92.51000000000001       56.34899999999999
H           31.87200000000000       93.58399999999999       56.31600000000000
H           33.13600000000000       92.38000000000000       55.84400000000000
H           32.22800000000000       92.18899999999999       57.41000000000000
C           30.74400000000000       89.67400000000001       57.13499999999999
H           29.92600000000000       89.05200000000001       57.52699999999999
C           31.99700000000000       89.57299999999998       57.79299999999999
H           32.85700000000000       90.16799999999999       57.45100000000000
H           32.12300000000000       88.89900000000000       58.65299999999999
C           26.39699999999999       87.12599999999999       55.56600000000000
H           26.45300000000000       87.76100000000000       56.47599999999999
H           27.24800000000000       86.41099999999999       55.57200000000000
H           25.43500000000000       86.57100000000000       55.57300000000000
C           24.36600000000000       87.47399999999999       53.00900000000000
H           23.53600000000000       88.06599999999999       52.59600000000000
C           24.12100000000000       86.13900000000000       53.26700000000000
H           24.91200000000000       85.49599999999998       53.68000000000000
H           23.13200000000000       85.70300000000000       53.06200000000000
C           24.66300000000000       90.01099999999998       48.32100000000000
H           23.67000000000000       90.12700000000000       48.80500000000000
H           24.96900000000000       88.94499999999998       48.37700000000000
H           24.58599999999999       90.32799999999999       47.25900000000000
C           26.35000000000000       92.62200000000000       47.28600000000000
H           25.45800000000000       92.26999999999998       46.72400000000000
H           27.26200000000000       92.39199999999998       46.69500000000000
H           26.26700000000000       93.71800000000000       47.44400000000000
O           27.14800000000000       92.45599999999999       53.33500000000000
H           27.45700000000000       93.34900000000000       53.17900000000000
H           26.45000000000000       92.22100000000000       53.83200000000000
C           30.70600000000000       87.57599999999999       48.92199999999999
H           30.99200000000000       86.60299999999999       49.37499999999999
H           31.54300000000000       87.93700000000000       48.28600000000000
H           29.79400000000000       87.43200000000000       48.30400000000000
N           31.39800000000000       88.93400000000000       50.93800000000000
H           32.32800000000000       88.56999999999998       50.97299999999999
C           30.43100000000000       88.56500000000000       50.00100000000000
C           30.87100000000000       89.84399999999999       51.76600000000000
H           31.40900000000000       90.29399999999998       52.60000000000000
N           29.60800000000000       90.09600000000000       51.40200000000000
C           29.33000000000000       89.30400000000000       50.29400000000000
H           28.36000000000000       89.34500000000000       49.81499999999999
78
 energy: -116.031408619882 gnorm: 0.089088725272 xtb: 6.7.1 (edcfbbe)
Fe          28.33145207391252       91.30948293156632       52.37273429486095
N           29.28443405236516       92.99634960396189       51.80338737226407
N           29.47600001455045       91.24697917954398       54.04528914707402
N           27.28437691618210       89.73207482919858       53.01014780176622
N           27.15151986409671       91.43887825220784       50.75557727127341
C           29.06165983873811       93.72710563962833       50.65838796037319
C           29.89787149505934       94.89100203718252       50.63172409634106
C           30.66321374030412       94.86085379100130       51.76743777759761
C           30.26493606677804       93.68006948490803       52.48299335393313
C           30.46929575841883       92.13097251125943       54.41785897385955
C           31.09560902246722       91.69825526907479       55.63277602714476
C           30.49266745088735       90.52649423794331       56.00829090780809
C           29.45301800536217       90.27681332301532       55.01415451992810
C           27.49771007338313       89.00597366886116       54.16391339355673
C           26.48061182554262       88.01133910264291       54.33368397816427
C           25.62526226619653       88.12181085876034       53.26069035581212
C           26.15849262145804       89.18686866273713       52.43487275266730
C           26.15573694207288       90.57700841899417       50.39123998648643
C           25.69217452145971       90.86288573061556       49.05401221097565
C           26.41154679437460       91.92663095573347       48.61605829692202
C           27.29656460088948       92.29800469394250       49.69238008426247
C           28.16463673777152       93.38323967194449       49.66386668376609
H           28.13555266216890       94.01718658055050       48.78409820981966
C           30.80289824395945       93.26975524663987       53.69672988437615
H           31.57108063123705       93.90789611752417       54.12222296904449
C           28.54452000766130       89.24164354974162       55.05390575955047
H           28.64149944186206       88.54444404329546       55.87970142915061
C           25.65268321725856       89.56519547498931       51.20055412825605
H           24.79204158894732       89.01944045085750       50.82666084496834
C           31.70167155099092       95.84824081569415       52.21858133032193
H           31.78966426241146       96.66889940232842       51.49953899902010
H           32.68245937796744       95.36632459898649       52.30597227699798
H           31.43431615096894       96.27281197878440       53.19323715082783
C           29.91058040730465       95.89250425952385       49.52041637545383
H           28.89466511161281       96.06891421050472       49.15074094596161
H           30.51929907945402       95.52430971547587       48.68593141029464
H           30.32187054104218       96.84689679635056       49.86233840048048
C           32.14630440022469       92.50473662037204       56.34332856930379
H           31.88011061447688       93.56669991967053       56.31585667198108
H           33.12209649702941       92.38306612058960       55.85806855698868
H           32.22658910126749       92.19714271511666       57.38996197398663
C           30.77016077392087       89.68003985729486       57.14423849478072
H           29.95612308616264       89.05946842989775       57.51666817240061
C           31.96354412903636       89.58128568511253       57.77707781087974
H           32.82860989454757       90.14109142314628       57.44503211566116
H           32.09949613300220       88.91804080995745       58.62390053249622
C           26.39453351554323       87.13413119685482       55.55211649431830
H           26.45338429121645       87.74781252509074       56.45872039929809
H           27.22688589252195       86.42048513921249       55.57031797263092
H           25.45105060069373       86.58142855311098       55.57120625516212
C           24.37058882441780       87.45278389512164       53.01290350313818
H           23.55934544672298       88.04824081057346       52.59265074612256
C           24.12573464685449       86.15749054301330       53.26851115919418
H           24.89830131190089       85.50832249847551       53.66125593041465
H           23.15435663339114       85.71840349634473       53.07056045637930
C           24.67078494827185       90.02159697768556       48.33002701142678
H           23.68541909259270       90.12478541553514       48.79828688722566
H           24.96186402875503       88.96692554211222       48.37166574192731
H           24.58800072528254       90.32180147027690       47.28110415296671
C           26.34647779108277       92.61975571647888       47.29320853801629
H           25.47331702689685       92.28028824385561       46.72711768109181
H           27.24566643071341       92.40499053746971       46.70329414213858
H           26.26902535233521       93.70287272663894       47.43186651946394
O           27.14378572951446       92.47581157828188       53.32954046625839
H           27.43543681743119       93.38116554411128       53.19889979769164
H           26.40495650755956       92.23835366681604       53.86439711998467
C           30.71099171423081       87.57496009230610       48.92563147436631
H           30.99199265418349       86.60907771312824       49.36015562967643
H           31.53053452781630       87.92155669284431       48.28611546222686
H           29.81512714801672       87.43644794063309       48.31524522733402
N           31.39931792791270       88.92340276490805       50.92746844961548
H           32.33400442118332       88.55748139608983       50.96790064356149
C           30.44194704895840       88.56604357797242       49.99821573077095
C           30.86262264079527       89.84107806990131       51.74969719383576
H           31.38778740314491       90.28895785313038       52.57683632365841
N           29.61931018212757       90.09609579236890       51.39592583827139
C           29.34430452415138       89.30802187606889       50.30527540294280
H           28.37951660699503       89.34530247646018       49.83364138904977
78
 energy: -116.042487717580 gnorm: 0.034067590644 xtb: 6.7.1 (edcfbbe)
Fe          28.34504128071038       91.29837453943985       52.36647204000716
N           29.29729192468072       92.99021930738839       51.79475396348504
N           29.48603979525306       91.23777910105451       54.03899454076745
N           27.28745739032428       89.72802344825546       53.01354946960232
N           27.16683696660695       91.42615588396448       50.74448987969726
C           29.06662096983867       93.71076060120251       50.66180024201064
C           29.90472179254666       94.88404107849831       50.62896593300278
C           30.65743405456809       94.85566713807523       51.76591182499027
C           30.26283882625654       93.66456452401293       52.48166392309035
C           30.45688573678394       92.12464234293589       54.40302279725262
C           31.09135384152312       91.70802940139947       55.62703155089019
C           30.49361965532718       90.52839918022035       56.00182059174038
C           29.46168682005453       90.27788928858430       54.99982677425646
C           27.50612918522170       89.02069665918611       54.15640658629372
C           26.48774851279769       88.02050459715315       54.33922822343896
C           25.63037205289179       88.13720805241026       53.27344233193623
C           26.16961718273594       89.20192503510742       52.44698421772328
C           26.17059588596648       90.56649702947072       50.39853310010719
C           25.69735380170373       90.84749536613822       49.05920353727146
C           26.40924638454560       91.92454058082681       48.62164861910095
C           27.31161206053794       92.28159823733597       49.69594712138718
C           28.16758087081315       93.36483939993289       49.66574104129457
H           28.13460840650495       93.99835378983661       48.79089932130351
C           30.80032827681924       93.26394397188294       53.69256910005122
H           31.57078918744873       93.89594526882208       54.11308912657719
C           28.54996996096502       89.23993245179571       55.04640512300844
H           28.63365859701959       88.55037190106800       55.87513566732203
C           25.66297258820852       89.56646380019971       51.21014990238319
H           24.81006830253244       89.01600137482363       50.83706153688282
C           31.68965284304003       95.83532264993345       52.21697943403959
H           31.78078521422106       96.65132252480818       51.50565516775558
H           32.66474012438955       95.35891069861243       52.30791610919510
H           31.43110811486299       96.25672424255795       53.18766566133471
C           29.91183628276099       95.88954904720204       49.52639616383833
H           28.90434435143026       96.06986515041372       49.15993420942374
H           30.51489035590859       95.53187099529774       48.69177326576123
H           30.32490522581605       96.83591988599666       49.86253331974260
C           32.13551857124810       92.50221042621737       56.33641786127046
H           31.88370295764316       93.56028099610414       56.30955474274087
H           33.11083825441630       92.37841604484996       55.86554349444688
H           32.21315228597100       92.19807545498405       57.37534735860820
C           30.78152546714682       89.68428048930900       57.14059460890959
H           29.95978344624766       89.07416451287317       57.49773763079372
C           31.94512804076680       89.57886936781274       57.75585039391391
H           32.81817911843753       90.11912090607922       57.43852492482409
H           32.07995421523093       88.93398227054784       58.60714849864775
C           26.39330160289276       87.14241252964639       55.54137467784892
H           26.45637339835178       87.74316835282127       56.44797294153244
H           27.21215319375848       86.42383423040127       55.56024854396070
H           25.45487578949162       86.59817560939116       55.55711035651537
C           24.38212135967653       87.44354391585344       53.01493516446826
H           23.58968838323563       88.04772021433136       52.58500526235643
C           24.13743435333293       86.16669222282137       53.26509876755082
H           24.89341314541242       85.50882513979710       53.65331810057871
H           23.17337022658462       85.72702842007723       53.07680153893183
C           24.67718243208054       90.03078703886518       48.34050669372586
H           23.69692210087113       90.13100154476092       48.80382099322942
H           24.95600798427081       88.97885453398753       48.36950580299981
H           24.59504882605633       90.33125164587381       47.30036031032695
C           26.34202575209247       92.61671518759535       47.30164296230503
H           25.47894099823720       92.28223897245731       46.73394451607383
H           27.23759525014408       92.41141348226593       46.71525508765853
H           26.26742612272224       93.69370676953302       47.43264309476647
O           27.10473246860519       92.51006198011989       53.33344551717317
H           27.37528630307691       93.43056929436585       53.25319710801202
H           26.36365676792384       92.27969750995886       53.89923754853652
C           30.71347915488359       87.57441969455300       48.92767193269808
H           30.99232082470863       86.61251608130495       49.35332722662288
H           31.52431427051631       87.91109408472892       48.28445607598524
H           29.82370714497302       87.44159276951946       48.32363608344929
N           31.40203618421021       88.91785979347506       50.91966503943571
H           32.33879303995447       88.55035559448879       50.96406120019732
C           30.45026203867253       88.56825078020933       49.99821405926679
C           30.85740759611243       89.84250966607961       51.73975953194043
H           31.37639609610550       90.29123989883919       52.55984937972826
N           29.62086595668441       90.09684583617793       51.40017204943292
C           29.35282745234747       89.31351137231223       50.31652513965619
H           28.39250860128958       89.34335681876512       49.84691636091424
78
 energy: -116.046595334610 gnorm: 0.030213546693 xtb: 6.7.1 (edcfbbe)
Fe          28.34628517167026       91.30053032984412       52.36568073295850
N           29.30437656808240       92.98209267352119       51.78608945119282
N           29.48509067502728       91.23670170752152       54.03276794980445
N           27.29307663542798       89.73121882434583       53.01594802251790
N           27.17991950206246       91.41419119150513       50.73900389169601
C           29.07480988748934       93.69567030371906       50.65617074595714
C           29.90915740750789       94.87649178263533       50.62348991023146
C           30.65513985016386       94.84932951657596       51.76137242227458
C           30.26365173894756       93.65320071074339       52.47555821448935
C           30.45093355572360       92.12163040425675       54.39089393042627
C           31.08802813580029       91.71298246326586       55.61856731315086
C           30.49221299128260       90.53235009066407       55.99026110621784
C           29.46652398298828       90.27782792313664       54.98837613824011
C           27.51444140496814       89.02949489776709       54.15446135777506
C           26.49406726847464       88.02758497473832       54.34274620112944
C           25.63839868777805       88.14689785282380       53.27978456162575
C           26.17922874208900       89.21001536593185       52.45254572323521
C           26.18437197994986       90.55585299083003       50.40023167289826
C           25.70395809814945       90.83854147778092       49.06263796098336
C           26.41163330146037       91.91748296865323       48.62431851183182
C           27.32423199919801       92.26631949610305       49.69505840979787
C           28.17732959337087       93.34899268362510       49.65958477728891
H           28.14058389766917       93.98237082424261       48.78695470270755
C           30.80287200131428       93.25974886145136       53.68489404739000
H           31.57484542190117       93.88765353599989       54.10362364084354
C           28.55619382536966       89.23849188244446       55.04371409242254
H           28.63320235775821       88.55311506506987       55.87408489793071
C           25.67231176995619       89.56290028972214       51.21364955664253
H           24.82358536876263       89.00776294035866       50.84333803671014
C           31.68335120673147       95.82481395499303       52.21895161006353
H           31.77650091568630       96.64199973854632       51.51076751580936
H           32.65623770103279       95.34592872192023       52.31162622217318
H           31.42348757629400       96.24121947478804       53.19064415095723
C           29.91336769379154       95.88708170637409       49.52765195711396
H           28.90559703754353       96.07284244642148       49.16750716232985
H           30.51203322443948       95.53488802994126       48.68812668674909
H           30.33169891211284       96.82935046055583       49.86740469319827
C           32.12823696603080       92.50305277478714       56.33071822807653
H           31.88647554832755       93.56310178757668       56.29955433452183
H           33.10721321914339       92.37078706543586       55.87008575043171
H           32.19469270700701       92.19931252365723       57.37004922945206
C           30.77430810522476       89.69086698571910       57.13211920740117
H           29.94316911452136       89.09048476185878       57.48143607949877
C           31.94018968717175       89.57842519023460       57.75185849935719
H           32.82742851152851       90.09047775395624       57.42421828750999
H           32.06975982736025       88.93056041462604       58.60074627586161
C           26.39297402115664       87.14715783767224       55.53739734121081
H           26.46292457174524       87.73958427242661       56.44834233907226
H           27.20200743308321       86.41797721811488       55.55084704483106
H           25.44831589602970       86.61488790874238       55.54577238514887
C           24.39506429529086       87.44532517381016       53.01465215542373
H           23.61404026786448       88.05410058509125       52.57326988562984
C           24.14791563062819       86.16914100324597       53.26771872015127
H           24.89947880258068       85.50354279818843       53.65093458970707
H           23.18725738879560       85.72792287482370       53.06971386896493
C           24.67594534991364       90.03579696274282       48.34848606137454
H           23.69873842125600       90.14013753698502       48.81621682324685
H           24.94446411086409       88.98075229988623       48.36732128277878
H           24.59322125018214       90.34451730803805       47.31148197987464
C           26.33921260360096       92.61421741859044       47.30855998407073
H           25.47837973008509       92.27954831290590       46.73917727277644
H           27.23615284271017       92.41586429526409       46.72279726046133
H           26.26153137174547       93.69037270354976       47.44163521938300
O           27.05121680243078       92.54650662006826       53.33263027717167
H           27.31804019442136       93.47624523192563       53.32099845804222
H           26.33059819945681       92.32179730918668       53.93737605393756
C           30.71363986152779       87.57470628346636       48.92868202571746
H           30.99219129581909       86.61251336945276       49.35244679016796
H           31.52197021636960       87.90666871681012       48.28032862337452
H           29.82143323030392       87.44500018075323       48.32884499780229
N           31.40878311087378       88.92016871976011       50.91616110914543
H           32.34546495681398       88.55179163151058       50.96168073889157
C           30.45596788166048       88.57016756934860       49.99983425151745
C           30.86236025257638       89.84650775927287       51.73755869693356
H           31.38185151559246       90.29856507370887       52.55353064695218
N           29.62405411772212       90.09951142966490       51.40382635186054
C           29.35663491300388       89.31335898757860       50.32385749698017
H           28.39695968960489       89.33400678674461       49.85464539652342
78
 energy: -116.049979783983 gnorm: 0.038657519150 xtb: 6.7.1 (edcfbbe)
Fe          28.34728014413117       91.30330559722182       52.36268387142057
N           29.30901273066726       92.97024751605026       51.77595068590227
N           29.47677617879356       91.24060183377816       54.02674881479874
N           27.30050011118488       89.73827877176103       53.01815477673333
N           27.19758480527931       91.39814480766942       50.73295474423227
C           29.08365631464035       93.67892152247998       50.64620637351305
C           29.91421301287661       94.86651319137455       50.61451566604963
C           30.65372195737798       94.84138446559008       51.75409609892137
C           30.26295149660580       93.64265885070964       52.46765644267261
C           30.44393756341092       92.12218716074239       54.38036198129137
C           31.08672837754895       91.71629300763136       55.60683798859962
C           30.49322439253147       90.53533787383783       55.97480108719471
C           29.46663731260073       90.28086494369154       54.98103402173890
C           27.52188105719607       89.03900537127197       54.15654652154399
C           26.50126497142105       88.03330554324165       54.34538004476735
C           25.64879265620020       88.15358612486506       53.28282610971613
C           26.18885661087232       89.21677767317161       52.45579141831902
C           26.19951746767173       90.54361900917978       50.39953065135982
C           25.71196909366333       90.82985563531446       49.06495913062728
C           26.41690607573999       91.90649907493304       48.62498018160169
C           27.33766066655097       92.24949717563447       49.69153175403634
C           28.19102778691181       93.33222917699990       49.64771359876381
H           28.15328173468967       93.96307942377001       48.77444597257917
C           30.80590598345264       93.25804257482166       53.67605542530162
H           31.58181961193650       93.88019439926499       54.09210379223962
C           28.56074717121043       89.23873022770485       55.04657833515611
H           28.63712758919304       88.55235452026518       55.87369352696930
C           25.68220365838916       89.55618969929222       51.21408912199137
H           24.83728474380203       88.99520108992296       50.84743149346257
C           31.67879849350374       95.81313018760596       52.22322758914309
H           31.77625734918787       96.63510398260388       51.51955232405000
H           32.65047156655710       95.32946858065756       52.31804645403925
H           31.41277825520648       96.22261490991454       53.19741027906102
C           29.91506124660273       95.88326301477042       49.52569600123902
H           28.90366782756282       96.07890456638130       49.17702503959027
H           30.50511759236496       95.53524214007632       48.67681783317313
H           30.34338146627151       96.82060102877021       49.87259160991239
C           32.12370657881939       92.50312732459341       56.32453233850921
H           31.89321223917365       93.56699563443345       56.28564437905568
H           33.10870924121529       92.35795963356317       55.87711352899333
H           32.17182878655261       92.19910528341806       57.36702133661892
C           30.76771424323924       89.69162236022612       57.11489271670656
H           29.92343837552416       89.11740745046583       57.47564247124367
C           31.94042164319395       89.55891594342003       57.72934848116279
H           32.82858408752739       90.07134991488627       57.40961267441688
H           32.05023298892827       88.92945910687963       58.59708727294986
C           26.39257398897036       87.14962824721341       55.53516447743302
H           26.47586072192897       87.73276447402606       56.45236944134736
H           27.18790834011063       86.40303596474017       55.53931663558272
H           25.43515848000168       86.63634392508483       55.53742584603006
C           24.41279513707169       87.44697775978386       53.00701610955816
H           23.63855144185839       88.05859466862286       52.55918661131238
C           24.16555681339382       86.16738528852940       53.25884947541332
H           24.90880405374438       85.50170418146817       53.66066164663098
H           23.20268808975309       85.72856885852327       53.05807577245352
C           24.66906075467253       90.04060786692223       48.35719483807915
H           23.69647275583491       90.15400004244388       48.83562912765456
H           24.92433567170916       88.98045632230271       48.36494798031105
H           24.58189583051900       90.36065830596137       47.32231543726451
C           26.33706425719546       92.61161466787401       47.31530505893058
H           25.47747956370099       92.27350297806201       46.74354726153521
H           27.23723706860128       92.42440524418988       46.72842693358232
H           26.24958086780453       93.68757950792484       47.45681183322134
O           26.96517801108041       92.60241809252142       53.31754086743597
H           27.24906870115183       93.53317530328798       53.42717298507153
H           26.30140847690627       92.38817777318901       54.00164606868059
C           30.71378525788454       87.57382362974386       48.92942619816549