78
 energy: -116.058078034797 gnorm: 0.000058567249 xtb: 6.7.1 (edcfbbe)
Fe          28.19851014872253       90.99546725823568       52.17020260339159
N           29.18924827532618       92.64181272345326       51.56799644732241
N           29.31744842453522       90.95333648222366       53.84717601564639
N           27.18321166199493       89.40131690124154       52.80333983983254
N           27.06381117664092       91.08734995367412       50.53613377211843
C           29.01314575008928       93.31875715140744       50.40201005382893
C           29.94457126642619       94.41917392815247       50.30381254844159
C           30.69331474056083       94.39059446382207       51.43964923335729
C           30.21117554882730       93.27001727228696       52.21481620949731
C           30.32117165516734       91.81080505681824       54.18957385701722
C           30.92313170805007       91.42264079905068       55.43739413882776
C           30.26861289860416       90.28885942915439       55.84486065687175
C           29.26375119973495       90.02201437986983       54.83572706582807
C           27.40708053914529       88.68739085379850       53.93991127659744
C           26.48532807729121       87.58341545991264       54.04297886790724
C           25.69029086367148       87.64269992025143       52.93022158832445
C           26.14707825166098       88.79427303193312       52.17478567561700
C           26.04700020725770       90.25090000256647       50.20533501822284
C           25.46779464003772       90.62471986804564       48.93222348169647
C           26.16490682635128       91.70849138031245       48.50131927975780
C           27.15883555357817       91.98153697456010       49.51799944292088
C           28.06694168367704       93.01941922803691       49.43971179139603
H           28.03378501382026       93.64743222691868       48.56271169365557
C           30.73637241782686       92.89813298764221       53.43733174117358
H           31.55266799394841       93.48828957084568       53.82506562326347
C           28.38409038855927       88.95806622352292       54.88085519813675
H           28.46648145910789       88.28123396961659       55.71729163527882
C           25.61216169469765       89.17804132918350       50.95907371423426
H           24.79558579802206       88.59280186015381       50.56436866486984
C           31.79894612769361       95.29508839281606       51.86574598059205
H           31.97760781063004       96.06488946310611       51.11918277140636
H           32.72322939941962       94.73390743497815       52.00696825210345
H           31.55393533261001       95.78371380417201       52.80927989197500
C           30.01117020505065       95.36362986825759       49.15310406266605
H           29.06343288889917       95.88913100396333       49.03336399528417
H           30.21752373280025       94.82543001361343       48.22779819097283
H           30.79522223147191       96.10201565324088       49.30231986224751
C           31.99457082949051       92.17726978501635       56.14490499863416
H           31.85382668296993       93.25072007337671       56.02647831334397
H           32.97967579431195       91.92097495031624       55.75084829340776
H           31.97840431204942       91.93939060841444       57.20661374636163
C           30.46718370172571       89.49998640050249       57.04017468138856
H           29.57581310717824       89.03985930360979       57.45054803632121
C           31.63185457764509       89.29828387260262       57.64806339595491
H           32.55666524911277       89.68912109772840       57.26101944686651
H           31.70297810458873       88.70785191608337       58.54644234385232
C           26.40148532416995       86.64008983764847       55.19181077642764
H           26.56087195662587       87.16410939152614       56.13305738044493
H           27.15722771688929       85.85708497731633       55.10925407898780
H           25.42048712310808       86.17018650629866       55.21755856274158
C           24.58901216782937       86.78811910853555       52.54485252745316
H           23.77829492886126       87.27881894898917       52.01886333155524
C           24.50857945949955       85.48202399193863       52.77759665726786
H           25.30387226177493       84.93495921567801       53.25328377517422
H           23.64891969260868       84.90738262326566       52.47472473171419
C           24.32785603979718       89.91463573453875       48.28655737292624
H           23.44746342660388       89.94344528150937       48.92876564100275
H           24.57935327086760       88.86942634691468       48.10444781040460
H           24.07285051972794       90.37610382232393       47.33570138241205
C           25.99616488507291       92.50678348294583       47.25421944304326
H           25.76293906074589       93.54478456114785       47.49249684930029
H           25.18950899343992       92.10648069287510       46.64507625914615
H           26.91213869317094       92.49311326311722       46.66296028820024
O           26.80223906621374       92.42043099943220       53.30298151952243
H           27.11349727040291       93.26071401562882       52.94899970778071
H           27.16615741231688       92.33505348847505       54.19094139933642
C           30.69363563797428       87.02407594592451       49.15813913696390
H           31.29758388569592       86.28897714012922       49.68994685144550
H           31.23270164065567       87.32170481495505       48.25878415333459
H           29.75765591597715       86.55894739238592       48.86534621295100
N           31.41071576868638       88.98515239892976       50.54072465530501
H           32.39878919773353       88.85194486026819       50.40098473388729
C           30.41520536270956       88.20041857890274       50.02023610814109
C           30.82427891513195       89.95892128732763       51.27257540753468
H           31.36190991793934       90.72082174704927       51.79796070984208
N           29.51924602309067       89.83878667777613       51.24690052689621
C           29.24922910637212       88.74947168064615       50.47139555160931
H           28.24158340733387       88.43577685709614       50.29212305884064
