72
 energy: -105.909230765796 gnorm: 0.191471674608 xtb: 6.7.1 (edcfbbe)
Fe         -32.51300000000000       21.92299999999999       18.91100000000000
N          -31.28300000000000       23.43200000000000       19.30200000000000
N          -32.17800000000000       21.27100000000000       20.88600000000000
N          -33.66900000000000       20.20600000000000       18.67200000000000
N          -32.79500000000000       22.47200000000000       17.14700000000000
C          -31.17599999999999       24.52600000000000       18.47600000000000
C          -30.42600000000000       25.51899999999999       19.13400000000000
C          -30.08200000000000       25.03700000000000       20.35400000000000
C          -30.61100000000000       23.73600000000000       20.45900000000000
C          -31.31600000000000       21.81900000000000       21.75600000000000
C          -31.36000000000000       21.12000000000000       22.99000000000000
C          -32.27300000000000       20.11900000000000       22.85300000000000
C          -32.80000000000000       20.23100000000000       21.47400000000000
C          -34.14800000000000       19.35700000000000       19.62900000000000
C          -35.07600000000000       18.48700000000000       19.03600000000000
C          -35.15600000000000       18.82200000000000       17.69400000000000
C          -34.26300000000000       19.90700000000000       17.47500000000000
C          -33.44200000000000       21.78400000000000       16.19000000000000
C          -33.45600000000000       22.55800000000000       14.94400000000000
C          -32.80200000000000       23.70300000000000       15.20300000000000
C          -32.39100000000000       23.63500000000000       16.60900000000000
C          -31.68700000000000       24.66800000000000       17.20900000000000
H          -31.53800000000000       25.60200000000000       16.67000000000000
C          -30.47700000000000       22.92000000000000       21.56200000000000
H          -29.70200000000000       23.13700000000000       22.29600000000000
C          -33.76900000000000       19.36000000000000       20.96500000000000
H          -34.24600000000000       18.65500000000000       21.64500000000000
C          -34.05100000000000       20.53000000000000       16.27000000000000
H          -34.36599999999999       20.03300000000000       15.35300000000000
C          -29.27700000000000       25.76000000000000       21.40300000000000
H          -29.45000000000000       26.85400000000000       21.31500000000000
H          -28.19600000000000       25.55300000000000       21.25500000000000
H          -29.59300000000000       25.42599999999999       22.41500000000000
C          -30.07200000000000       26.87500000000000       18.58300000000000
H          -30.86500000000000       27.60400000000000       18.85400000000000
H          -29.99500000000000       26.82200000000000       17.47600000000000
H          -29.10700000000000       27.21500000000000       19.01500000000000
C          -30.54600000000000       21.42500000000000       24.22100000000000
H          -31.09900000000000       22.14500000000000       24.86199999999999
H          -29.57500000000000       21.87700000000000       23.92600000000000
H          -30.37100000000000       20.49100000000000       24.79600000000000
C          -32.65900000000000       19.12500000000000       23.87100000000000
H          -32.69000000000000       18.05200000000000       23.63200000000000
C          -32.97600000000000       19.52200000000000       25.10000000000000
H          -32.95300000000000       20.58900000000000       25.36500000000000
H          -33.26500000000000       18.78800000000000       25.86700000000000
C          -35.84400000000000       17.39200000000000       19.73200000000000
H          -36.80300000000000       17.79900000000000       20.11700000000000
H          -35.25000000000000       17.00100000000000       20.58600000000000
H          -36.06200000000000       16.57200000000000       19.01500000000000
C          -36.00800000000000       18.17300000000000       16.68100000000000
H          -35.57399999999999       17.75100000000000       15.76300000000000
C          -37.32100000000000       18.09100000000000       16.87000000000000
H          -37.78100000000000       18.50500000000000       17.78000000000000
H          -37.96400000000000       17.60800000000000       16.11900000000000
C          -34.07600000000000       22.14800000000000       13.63400000000000
H          -35.04600000000000       21.64200000000000       13.82500000000000
H          -33.40100000000000       21.44300000000000       13.10300000000000
H          -34.25600000000000       23.04700000000000       13.00600000000000
C          -32.54400000000000       24.83300000000000       14.24100000000000
H          -33.38200000000000       25.56100000000000       14.29100000000000
H          -32.47300000000000       24.43600000000000       13.20600000000000
H          -31.60000000000000       25.35100000000000       14.51500000000000
O          -30.98000000000000       20.96100000000000       18.36000000000000
H          -30.23900000000000       21.55500000000000       18.48000000000000
H          -30.94200000000000       20.12800000000000       18.05100000000000
C          -34.43400000000000       24.62600000000000       20.21800000000000
H          -34.98900000000000       24.95600000000000       21.12200000000000
H          -34.82400000000000       25.19700000000000       19.34800000000000
H          -33.36100000000000       24.87500000000000       20.36400000000000
S          -34.63100000000000       22.84600000000000       19.93800000000000
H          -33.90200000000000       22.48300000000000       20.98400000000000
72
 energy: -105.944705635606 gnorm: 0.073365658133 xtb: 6.7.1 (edcfbbe)
Fe         -32.54551002193379       21.91786289133450       18.94641325555896
N          -31.32207408987749       23.44932082673265       19.30498060726786
N          -32.17122325574334       21.25849069280616       20.87432887245516
N          -33.66984236186272       20.23046858827168       18.67072174763274
N          -32.81237905032155       22.47585210912615       17.14962290760155
C          -31.18689102234689       24.53640684260772       18.48627872693499
C          -30.41403253803581       25.54155713267167       19.13536442292775
C          -30.06176613836789       25.04849713050564       20.35373177200028
C          -30.61566203317810       23.73693591238815       20.44318731887844
C          -31.29928823554534       21.80004454969715       21.75287631017774
C          -31.35203804675353       21.09914520223505       23.00061907739779
C          -32.27685793511426       20.10551589942354       22.85565709619562
C          -32.78494500634311       20.21814974566249       21.48408262491414
C          -34.14866851468595       19.37767825507524       19.62170874604566
C          -35.08604920678466       18.47997491412874       19.03061457595173
C          -35.14763887876656       18.79205000908060       17.69298728214904
C          -34.24735928170514       19.88941859855807       17.48633233575974
C          -33.43989552137142       21.77786290010705       16.17410095142477
C          -33.45226920460789       22.54856289704043       14.93485986724119
C          -32.80676181732916       23.70661427827686       15.19725409084885
C          -32.40529836552236       23.64196295745355       16.59622667658287
C          -31.69946724916622       24.65743008999671       17.21108598074086
H          -31.53442437285662       25.57848503769669       16.67112025592513
C          -30.48775166006403       22.90801618364265       21.54441892275470
H          -29.74582348195339       23.15372104404251       22.29386376054837
C          -33.75426690603793       19.37533359817247       20.95707530382629
H          -34.21879065102773       18.66341630484824       21.62845009100663
C          -34.04153641263487       20.53264839085184       16.27849834780029
H          -34.39703317592062       20.05773414425889       15.37244008577265
C          -29.27393420251117       25.75941585929899       21.40624913098479
H          -29.43916313162362       26.83789637613889       21.32714908518977
H          -28.20522577854294       25.55978366019432       21.27275938579833
H          -29.57769575858225       25.43355259494715       22.40475480980536
C          -30.07023370234627       26.88399187073314       18.58178808351597
H          -30.84944458837311       27.60852241429285       18.84439086934803
H          -29.98857866914052       26.83897420999158       17.49294485163444
H          -29.11888442484948       27.22365589399818       18.99783779605562
C          -30.54631418106543       21.41924080935588       24.21893669783833
H          -31.08077930729554       22.13581446640920       24.85391567621534
H          -29.58401052791877       21.86070231320812       23.94424837580383
H          -30.37275579147910       20.50787080048901       24.79699626858968
C          -32.67394441195909       19.13299339195749       23.86904225128839
H          -32.69993120860802       18.07591332374447       23.61181177438258
C          -32.97485810533338       19.51622490169789       25.10387456143742
H          -32.96509992081120       20.56432922576667       25.37540193567959
H          -33.25955779219972       18.80035173256657       25.86531573662116
C          -35.84257823471867       17.39593211398735       19.73023975098678
H          -36.79070734536945       17.78515108097666       20.11756880845400
H          -35.26451089953530       17.00099752794118       20.57097067151705
H          -36.06402364491560       16.58326513508108       19.03205203106140
C          -36.01108922200029       18.16963400488183       16.68914666394809
H          -35.56588987850856       17.77387191160787       15.77756848335094
C          -37.32213276543046       18.08199809836661       16.86946890369780
H          -37.78655079020600       18.49401912709174       17.75699304299613
H          -37.96472200847207       17.61462792514242       16.13259266535128
C          -34.07740285811226       22.13952812061076       13.64080221022759
H          -35.03593372924544       21.64302909803730       13.81584851407539
H          -33.41802630997066       21.44948392585005       13.10251577514115
H          -34.25367209185833       23.01950113974648       13.01546259885346
C          -32.54512423558743       24.83331012190736       14.24925705228442
H          -33.36612699839424       25.55891537979769       14.28694114600675
H          -32.46840313810678       24.45246186135050       13.22691298863971
H          -31.61447324929831       25.34838472179786       14.50162326088424
O          -30.96052593119700       20.96244127417260       18.36444546595882
H          -30.19810907125133       21.53556223530064       18.47465410229855
H          -30.90700438954922       20.08116560631316       18.03482365279686
C          -34.42634493920318       24.65057090951586       20.22457981551684
H          -34.98810784831392       24.95070302726955       21.11498542857479
H          -34.81472721986799       25.18770136086239       19.35614023288619
H          -33.36598743457701       24.87914877610352       20.35545109998937
S          -34.63504122487083       22.87430290993872       19.92391221916441
H          -33.93482860294153       22.48790163486524       20.98772411082745
72
 energy: -105.957737286149 gnorm: 0.030833677973 xtb: 6.7.1 (edcfbbe)
Fe         -32.55082869851973       21.89241492035797       18.97355995086562
N          -31.36975203544987       23.47518215612252       19.31645703739806
N          -32.17148281985310       21.25028717311204       20.86416181501063
N          -33.67524504109080       20.25620587206997       18.67212666340966
N          -32.83292107801268       22.47983666447542       17.14979050767223
C          -31.21245557570388       24.55282328702183       18.50109161525778
C          -30.40844473399522       25.56083760231853       19.13713186731629
C          -30.04800074293760       25.05775513189928       20.35226619026379
C          -30.63658541061398       23.74643437159258       20.43719945891705
C          -31.29102774753365       21.78713814401419       21.75005119328977
C          -31.34451087582680       21.08341900068613       23.00580936148909
C          -32.27988681068256       20.09732407346607       22.85487336149448
C          -32.77415164323606       20.20761849496942       21.49392355621806
C          -34.14976709288425       19.39981810675784       19.61938675036899
C          -35.09171697291393       18.47994097534218       19.03161495663861
C          -35.13797596645215       18.77347697830055       17.69621571177464
C          -34.23862792640410       19.88451042869323       17.49780527403325
C          -33.44759230914050       21.77778079571904       16.15986820265208
C          -33.44977139403247       22.53967395418552       14.92558857514379
C          -32.81389939491140       23.70888785327378       15.19274230516421
C          -32.42758885259664       23.65026066842479       16.58665639572280
C          -31.72097798797632       24.65140216685749       17.21843889028704
H          -31.52740753286329       25.55842820685425       16.66991906064818
C          -30.51269427143990       22.90900619727877       21.53332548497524
H          -29.80069436215456       23.18469583364496       22.29772326185002
C          -33.74194001868945       19.38527397862050       20.94878705352129
H          -34.19173852502521       18.65859283651253       21.60902232884151
C          -34.04788679925180       20.54216354579683       16.29008804582183
H          -34.44650429091141       20.08343371567648       15.39604832972176
C          -29.26471308792923       25.75452502344118       21.40896490884418
H          -29.42403105937295       26.82617080401982       21.33617592557514
H          -28.20030616939870       25.55842777032268       21.29057505600230
H          -29.56669445397485       25.43144476858633       22.39929514525739
C          -30.06699462812020       26.89464549915608       18.57759120348926
H          -30.83837638510520       27.61956159535803       18.83349983968976
H          -29.98388570387587       26.85334908116447       17.49733517581098
H          -29.12240823543005       27.23869233090172       18.98482087733105
C          -30.54329664933010       21.41081812834471       24.21643071603099
H          -31.06887153911464       22.13129013876372       24.84248413890633
H          -29.58319703700609       21.84132548305076       23.94946922010038
H          -30.37709750746821       20.51310980490344       24.80425389057773
C          -32.68854991817869       19.14020830277603       23.86517504854185
H          -32.72764647382276       18.09621137628948       23.58166326124400
C          -32.98002540681739       19.50680725097830       25.10709163559315
H          -32.97193815212326       20.54237640080130       25.39298779622281
H          -33.25600061177847       18.79855917217599       25.86569253001811
C          -35.83897358196069       17.40171985592659       19.73495206675794
H          -36.78021897693579       17.78227801960954       20.12787696363895
H          -35.26526015322967       17.00115982555020       20.56476712608083
H          -36.06706194114435       16.59644143576751       19.04198475291411
C          -36.00676084397622       18.17205667149474       16.69540883549876
H          -35.54748033951759       17.80218221242805       15.78639636082801
C          -37.31815681051808       18.07349530793670       16.86598230386711
H          -37.79125624224880       18.46985645485053       17.74551864323334
H          -37.96021402864981       17.61834028542716       16.13425376410373
C          -34.07636069075593       22.12726226194805       13.64080384498720
H          -35.02913381084162       21.63721562108766       13.81355061537153
H          -33.42824430249854       21.44023023486779       13.09932583056650
H          -34.24995047289482       22.99822059720815       13.01653102965122
C          -32.54710461606334       24.83435243461255       14.25398766561801
H          -33.35740181772216       25.56144250971408       14.28831564551662
H          -32.46753708647808       24.46283187811413       13.23670380510667
H          -31.62196225765538       25.34419643582017       14.50052088908796
O          -30.91223083394376       20.93909376773708       18.35406200506041
H          -30.12013287395563       21.47571698404942       18.45353233206820
H          -30.84082578571678       20.04144219623417       18.01932012844923
C          -34.41594885589817       24.67457982173397       20.22319914789499
H          -34.98353805296422       24.95086222217413       21.10562821601598
H          -34.80296984423172       25.19502294401226       19.35697406714402
H          -33.36452630102479       24.89249313790362       20.35053338850344
S          -34.62633737633653       22.89439216371305       19.90428133102972
H          -34.00230217288728       22.49296865499968       21.01940966600217
72
 energy: -105.963254218772 gnorm: 0.028595731614 xtb: 6.7.1 (edcfbbe)
Fe         -32.55099874488122       21.88041257885505       18.99010604583984
N          -31.39720338167512       23.49369409269157       19.32640210103605
N          -32.16376140760948       21.23913980531217       20.85518521887065
N          -33.67070197541873       20.26731730911737       18.67499531703685
N          -32.84384341740558       22.48207866458134       17.14540304995288
C          -31.23385103787471       24.56562369591392       18.50931310788629
C          -30.41167387071333       25.57253161310603       19.13785484145341
C          -30.04772956089762       25.06561323832666       20.35061857219942
C          -30.65848759483784       23.75902066871942       20.44031330624964
C          -31.28859189699200       21.78174380553294       21.74836405105372
C          -31.33968052522201       21.07670317044481       23.00558228208454
C          -32.28099014983802       20.09506956840330       22.85383280718505
C          -32.76364414861585       20.19824411658062       21.49685761948008
C          -34.14341428236987       19.40948174949515       19.62136851918371
C          -35.09084606013035       18.48508157332769       19.03770409856391
C          -35.13314118686959       18.77326793018617       17.70367781752790
C          -34.23663406186098       19.89102762400993       17.50629045039133
C          -33.45728823379589       21.78103107388055       16.15161929359054
C          -33.45227754695938       22.53594157661919       14.91913491056008
C          -32.82070416836848       23.70977662579500       15.18887293588554
C          -32.44199236048696       23.65510022280090       16.58074095479486
C          -31.73720788204880       24.65114810948471       17.22323334670785
H          -31.52401609748056       25.54999879112205       16.66721203583268
C          -30.53963785588781       22.92293117226307       21.53542511684745
H          -29.85370413502129       23.22447375843707       22.31458251357827
C          -33.73050859163045       19.38263208361807       20.94405486979918
H          -34.17232653193344       18.64383957760127       21.59543273051325
C          -34.06630454630005       20.55327710343007       16.29927505346482
H          -34.50532373338751       20.10524366689171       15.41714885645546
C          -29.25519807422953       25.74885246227970       21.40976828072086
H          -29.40352503405729       26.82288796166262       21.34418231990442
H          -28.19072266471398       25.54640924910920       21.29903744087448
H          -29.56015604260457       25.42370949246682       22.39885928971130
C          -30.06567894603492       26.90349322804780       18.57165808890640
H          -30.83523099361260       27.63364395647977       18.82024280227390
H          -29.97868937633152       26.86091551318171       17.49139337486154
H          -29.12148077321154       27.25268107021215       18.97742672704216
C          -30.53858476705676       21.40367127541664       24.21456607771699
H          -31.05689205095937       22.13735426605440       24.83179909340658
H          -29.57080462216969       21.81735492982003       23.94788738734136
H          -30.38682942329219       20.51064549762594       24.81502714100294
C          -32.70361694631665       19.14203149845900       23.86059384900789
H          -32.76776290974951       18.10543012363030       23.55302267513839
C          -32.98357759348367       19.49201882170346       25.11008185397581
H          -32.96575899710031       20.52256509907141       25.41508467866337
H          -33.26574371450671       18.77920178816435       25.86169260736480
C          -35.83491503274215       17.40868325089682       19.74470581921004
H          -36.76998910925126       17.78992370632088       20.15204656944313
H          -35.25475655632714       16.99755879063598       20.56476495196737
H          -36.07650913646737       16.60937153747636       19.04865387052071
C          -35.99731213717561       18.17878646992849       16.69801983935754
H          -35.52634792825722       17.83853409994040       15.78273539672795
C          -37.30814785279932       18.05926458122488       16.86183775422562
H          -37.79310773034405       18.43538693087368       17.74461795378594
H          -37.94711373074171       17.61836389521793       16.11879881663949
C          -34.07562012175797       22.11437475277226       13.63583816395588
H          -35.02927291161904       21.62680944656906       13.81166168369554
H          -33.43188054723532       21.42086406827027       13.09722770693290
H          -34.24712033129686       22.98040493326970       13.00438286981820
C          -32.54970434998595       24.83694697375229       14.25424581605366
H          -33.35427744151687       25.57019092700286       14.29213860001568
H          -32.47182017506907       24.47077150797925       13.23498049668271
H          -31.62135236450113       25.34070625142673       14.50229515692907
O          -30.86710389688676       20.91600168014041       18.34040066376884
H          -30.04527003868819       21.41029098649836       18.43756968903329
H          -30.78117265457120       20.01036059125967       18.01491550183171
C          -34.40402300818758       24.69364390432179       20.21640310173314
H          -34.97870305373645       24.95979976141816       21.09553721040251
H          -34.78750832981805       25.21082684109600       19.34734003377273
H          -33.35287617587920       24.90728383591352       20.34799614160283
S          -34.62381176959165       22.90930929316291       19.89190178642770
H          -34.09154569960869       22.50322978269765       21.06505889352710
72
 energy: -105.967169722363 gnorm: 0.025047586250 xtb: 6.7.1 (edcfbbe)
Fe         -32.55069150388691       21.87715464931403       19.00340160582106
N          -31.41510750897937       23.50890283136475       19.33609267014539
N          -32.16052329299195       21.23415468839997       20.85199511734706
N          -33.66521075892903       20.27372219730842       18.68072571852121
N          -32.85377508514151       22.48656390309701       17.13837348875694
C          -31.25011407390273       24.57580803472129       18.51278723604225
C          -30.41943774656852       25.58164729724261       19.13826071515989
C          -30.05630149534623       25.07576865937241       20.35045606140698
C          -30.68013992902492       23.77413030138412       20.44879462234852
C          -31.29367786760308       21.78455746555071       21.75079053203867
C          -31.33994084192524       21.07810732431480       23.00613818739246
C          -32.28091881667940       20.09560393341534       22.85459024672178
C          -32.75639259802255       20.19236161141093       21.49851075266718
C          -34.13439694474383       19.41173029645604       19.62558291129660
C          -35.08765108043229       18.49108584483523       19.04507142908475
C          -35.13393943667653       18.78332731509553       17.71294232326508
C          -34.24009963349628       19.90439944732032       17.51415734866837
C          -33.47098718153904       21.78814374439133       16.14604888978286
C          -33.45973204157332       22.53733529063551       14.91315559456135
C          -32.82734791840967       23.71169442940152       15.18340804550597
C          -32.45197864673109       23.65945415097264       16.57522307306101
C          -31.74782568040895       24.65345208682525       17.22491041746370
H          -31.52593232401701       25.54893827699613       16.66586127503595
C          -30.57007496202234       22.94478034537638       21.54704057887667
H          -29.90881589281114       23.26500531342824       22.33939509051559
C          -33.71894363628973       19.37282948049640       20.94238508893595
H          -34.15697096451863       18.62548957692896       21.58639779339133
C          -34.09449487137596       20.56825629003384       16.30806523467548
H          -34.56575435025835       20.12683476407707       15.43998391068650
C          -29.24695833862928       25.74421062965672       21.40887980492334
H          -29.37700943567392       26.82308808692644       21.35056252825697
H          -28.18412778883390       25.52491533354787       21.29768817754791
H          -29.55516542536105       25.41802051757619       22.39904222277378
C          -30.06583913563714       26.90994371213551       18.56433477000750
H          -30.83635381796389       27.64573926708723       18.80178676180673
H          -29.97075720689569       26.86146172308612       17.48272581580243
H          -29.12239545503580       27.26317526009460       18.97406044697578
C          -30.53353443463190       21.39910703437688       24.21355198482756
H          -31.03751566779575       22.15240879104013       24.82245581384454
H          -29.55341715481991       21.78674802231949       23.94295960033347
H          -30.40353103791229       20.50758696897171       24.82534428347563
C          -32.71928667399771       19.14054033078867       23.85432159678489
H          -32.81681011018657       18.11139108509002       23.52307816595277
C          -32.98754708261453       19.47102829210192       25.11148679706585
H          -32.93922196390888       20.49527823900402       25.44440253317782
H          -33.28546260442727       18.74752071697466       25.85007813177135
C          -35.82980774502679       17.41558666718650       19.75627290938873
H          -36.75373952160844       17.80363912528700       20.18747936355559
H          -35.23698961863423       16.98868543687361       20.56206473995953
H          -36.09401207237135       16.62505456258927       19.05511813435142
C          -35.98799138220060       18.19432383521064       16.69591733682608
H          -35.50550980114959       17.88638801066360       15.77324633464019
C          -37.29690172388203       18.04472519951198       16.85261823962057
H          -37.79386068200445       18.38001400823287       17.74924996793954
H          -37.92601136528683       17.60676824004655       16.09713277490624
C          -34.07564907427502       22.10218903907048       13.62890805572859
H          -35.03275116022980       21.61769428862563       13.80751861799648
H          -33.43217517658673       21.39688872930161       13.10206617537299
H          -34.24244233563151       22.96084296644668       12.98339323370661
C          -32.55212692826164       24.84102042028247       14.25120885659828
H          -33.35044418756875       25.58293435107132       14.29800651236271
H          -32.48181001291053       24.48012174749402       13.22806575277600
H          -31.61672976618260       25.33574672608284       14.50043822642228
O          -30.81842345478885       20.89431807481873       18.31612129785352
H          -29.96414390490224       21.33219707938629       18.42932567498856
H          -30.71615129305113       19.98029043316459       18.01972287499179
C          -34.39244396308322       24.70751822387149       20.20846427510536
H          -34.96942154294477       24.98007276917805       21.08385929122641
H          -34.76881601627046       25.22444046145338       19.33375873702486
H          -33.33909214082109       24.91794680670053       20.34370202320903
S          -34.62815426091099       22.91851241106936       19.89460553064772
H          -34.17029045078441       22.52067682543444       21.10342966829536
72
 energy: -105.969444251593 gnorm: 0.020391298753 xtb: 6.7.1 (edcfbbe)
Fe         -32.54828419401158       21.87857408289317       19.00969975738870
N          -31.42318898675224       23.51673001108859       19.34269263757955
N          -32.16287238934051       21.23661326059301       20.85604935317280
N          -33.66278919358948       20.27613733232914       18.68685045945740
N          -32.86269638476724       22.49299970603822       17.13228026465147
C          -31.25854203460871       24.58051860974593       18.51231700051624
C          -30.42809488504052       25.58637766662573       19.13797445965908
C          -30.06981278040154       25.08605803441334       20.35243073919894
C          -30.69701030601033       23.78773468762910       20.45911195627679
C          -31.30588524187539       21.79533714274366       21.75847646073138
C          -31.34578739888158       21.08573348816207       23.00980656902849
C          -32.27954013375579       20.09635147587216       22.85755015984739
C          -32.75368606686525       20.19106556902343       21.49973756348284
C          -34.12677239100815       19.40797258884535       19.62923269525584
C          -35.08328987487152       18.49380697594056       19.05016150576305
C          -35.14071310157878       18.79684076403384       17.72067120532614
C          -34.25021652691789       19.92031375223706       17.52042044571782
C          -33.48708523045506       21.79817451915118       16.14501275307529
C          -33.47092127427331       22.54393175603627       14.90957441550275