72
 energy: -105.980475687807 gnorm: 0.000086116690 xtb: 6.7.1 (edcfbbe)
Fe         -32.62420083336646       22.04525403493308       18.98467258954348
N          -31.43060740057837       23.60603886162273       19.30038776058019
N          -32.33745617217957       21.44383596639504       20.88836402956326
N          -33.76490788209889       20.41424289562317       18.65541487075953
N          -32.86033355146633       22.59011144250066       17.08643625032964
C          -31.11512522347692       24.57890876561439       18.41010974507690
C          -30.22074331119291       25.54901498536595       19.00532596522375
C          -29.99418024409731       25.12823103981638       20.27717806915236
C          -30.76075302261240       23.91172305495133       20.44313362846329
C          -31.55451658040315       22.04707038013882       21.82707198483599
C          -31.62638715568836       21.34539379773903       23.08061405860096
C          -32.48528887824193       20.29468396015086       22.88693355521437
C          -32.90383656327403       20.36953665484409       21.50255900976511
C          -34.14656001195152       19.48226411327875       19.57521230010587
C          -35.00464580981113       18.49489699135571       18.97544096842546
C          -35.14065850917786       18.85160947252613       17.65934877156835
C          -34.35726223333478       20.05681630950830       17.48681129753148
C          -33.57633189168283       21.94446412334926       16.13042423632523
C          -33.53494646709249       22.67318033705541       14.87986994715174
C          -32.78261265938499       23.78034610297855       15.11026452712611
C          -32.36810107010000       23.70762071101626       16.49545803036582
C          -31.56172263358736       24.64744094787155       17.10476048108796
H          -31.23743116704651       25.48746879078766       16.51051623418878
C          -30.80705336877033       23.19429431452171       21.62101238643266
H          -30.22869038563579       23.56607846943061       22.45231787782103
C          -33.76432339800895       19.46810144729040       20.90522867830646
H          -34.16526227984185       18.68163638545736       21.52499393885661
C          -34.27061191751675       20.76347579076645       16.30208614641617
H          -34.80716282447442       20.37536916580396       15.45066169169509
C          -29.14737676511286       25.73916338964926       21.33984481641794
H          -28.67018351331867       26.64661348356478       20.97873841236188
H          -28.36842797019310       25.04450968812727       21.65450203570712
H          -29.74879192631936       25.99215032055974       22.21356283808104
C          -29.68722187429003       26.74485287014564       18.29540211210092
H          -30.50221376998029       27.37706331633052       17.94255916707699
H          -29.09522115553730       26.44258385010870       17.43148750814673
H          -29.05531167143743       27.33572713641737       18.95376910761346
C          -30.84793157882837       21.69163773306309       24.30089439962745
H          -31.33636593740424       22.49006769317157       24.86222033705156
H          -29.84720053266209       22.02954922852352       24.03611102533999
H          -30.76230988657510       20.82082353913376       24.94760651708780
C          -32.89822473921532       19.26857272577334       23.81896778875144
H          -33.07596747901407       18.28902692480630       23.39046264063670
C          -33.07733399235791       19.44269521452109       25.12400632681384
H          -32.96158289601596       20.40286397833596       25.59571683940035
H          -33.37405812292217       18.62906574115872       25.76456336407436
C          -35.54849269564200       17.29646789246093       19.67061627916859
H          -36.44371525512759       17.55038375074902       20.24049500333413
H          -34.81507695457664       16.88402080199593       20.36207224025423
H          -35.80992227796657       16.53068155599028       18.94331065699447
C          -35.87635111623040       18.19138566766558       16.60315902325366
H          -35.43580893789888       18.25662896276923       15.61501781212742
C          -37.02344119408873       17.53888712194962       16.75676553798497
H          -37.52955062887229       17.48495961089568       17.70474558765692
H          -37.51274864462663       17.05782807208066       15.92632096351264
C          -34.21440608916142       22.23336927148470       13.62940735781175
H          -35.28954984133659       22.14888563441074       13.78818835732189
H          -33.84111638981712       21.25938037805131       13.31220738337579
H          -34.04137690007340       22.94424074248235       12.82544515613190
C          -32.41042857147043       24.88238309903982       14.17989855869131
H          -32.76558524998959       25.84020387986719       14.56019687469270
H          -32.84533366199455       24.72160487936801       13.19668498303822
H          -31.32735102927684       24.94140716250650       14.07109054874925
O          -30.88297806536194       20.74828723499317       18.42241462392154
H          -30.70166149873139       20.31174276206988       19.26275115045758
H          -31.31114834218965       20.09985030942070       17.85181970556915
C          -34.13923829148484       24.41572742182018       20.90091099035300
H          -35.04523898659921       24.73926514259715       21.40407080821981
H          -33.67195217123748       25.25365172907320       20.39420779976732
H          -33.43757001495986       23.97036335534411       21.59770586833481
S          -34.57466113828263       23.20074886611000       19.60730562253329
H          -35.04585879570592       22.28356854870633       20.45916683994295
