78
 energy: -116.057382752576 gnorm: 0.000097901421 xtb: 6.7.1 (edcfbbe)
Fe           4.91354071540407        5.74459520260747        8.30666916215552
N            4.96696274916020        7.50627992692207        7.38158201201723
N            4.35627166607078        4.85084509540796        6.60865994411706
N            4.82844886792012        3.97331787882606        9.26829824445485
N            5.39264728329819        6.64245672599326       10.03842716221706
C            5.28839718692211        8.70884532587027        7.92364098292507
C            5.24084517185511        9.75251837236123        6.92157082261709
C            4.87845059985654        9.14851098926263        5.75952947046287
C            4.71170532583515        7.74400719483605        6.06832033853494
C            4.17178154540121        5.44547987741124        5.39963198316428
C            3.76451471725942        4.48184459753675        4.40874357912041
C            3.70183103377733        3.27387220395343        5.05045495825535
C            4.08953262878249        3.53195756236643        6.42482477894659
C            4.52242144259195        2.76614465450621        8.71698682866606
C            4.62718148343080        1.71853607607910        9.69644576116484
C            5.04285917293381        2.31295710991083       10.85857347250983
C            5.14088499449919        3.72871546238378       10.56898132339758
C            5.53637367293771        6.05199158385282       11.25721260497337
C            5.86825899469104        7.03469676538509       12.26441323144311
C            5.94070251183317        8.23111961622384       11.62082072675670
C            5.64124166970971        7.96515353006461       10.23187574681571
C            5.60504621363191        8.93601274298535        9.24944894490945
H            5.83242409582380        9.94950007316248        9.54235409588000
C            4.34001033109768        6.79462053975264        5.13778565908983
H            4.15133003581540        7.13423771787483        4.13062943466262
C            4.15541932833653        2.55589768871079        7.39924121023340
H            3.90917798666553        1.54473727181458        7.11358279963333
C            5.41978781927017        4.69878043103563       11.51561455019387
H            5.56026645544139        4.37113270203794       12.53360170034708
C            4.66928956963098        9.74368083809240        4.40912951910412
H            4.85566466241795       10.81467493557682        4.42533147211976
H            3.64509409718707        9.57912466172192        4.07421096204360
H            5.34048474870422        9.28993253595820        3.67910839868935
C            5.53841444652764       11.18834431465947        7.18780319977045
H            6.54811514051178       11.30435460164892        7.58240181516458
H            4.84054979876125       11.59395624176974        7.92060729124650
H            5.45680091389652       11.77606260291282        6.27672756005167
C            3.53478661377292        4.77719782024569        2.96747103114740
H            4.25562747396165        5.50742196477470        2.60206904043278
H            2.53464721703608        5.18355159642543        2.80922738456479
H            3.63250338368670        3.86671867277858        2.37953204261147
C            3.35954441270464        1.97303589932320        4.51956958986062
H            3.88318254513756        1.13349604052463        4.96247237797961
C            2.46824445130043        1.74122204217833        3.56116003144548
H            1.88373293039895        2.52931951284971        3.11978636706088
H            2.27227637808917        0.74392688141555        3.20337173073658
C            4.37804356352527        0.27363060591090        9.43437440878749
H            5.10090731037163       -0.11613553873301        8.71677673449596
H            3.38004424073368        0.12398712505453        9.02140655188191
H            4.46586151871065       -0.30271462127610       10.35200881374678
C            5.33301403077721        1.65373935072603       12.11538350814245
H            4.67313197371211        0.83082720705551       12.36946565485492
C            6.34046495469311        1.94502600198593       12.93031136689380
H            7.05792091418798        2.71467468841415       12.70089809627743
H            6.49731366316148        1.40401522340096       13.84878031621461
C            6.08395802854860        6.72052645815778       13.70520197318905
H            6.92953484245127        6.04312511044874       13.82828362659514
H            5.20301830415240        6.23859367803537       14.12972842683057
H            6.28631020142905        7.62579005850315       14.27224615914844
C            6.25381789446946        9.58076320623706       12.16946972031002
H            7.13960808853672        9.99388689963463       11.68655315863459
H            6.43952302600901        9.53021568664254       13.23956062519183
H            5.42426392018369       10.26684128517839       11.99675937138900
O            2.72122743592110        6.02312215203993        8.92557550573151
H            2.47773640600584        5.10875268237266        9.10567350394740
H            2.84236287966697        6.45759538398957        9.77689716113259
C           10.33959044276927        4.48075226537734        8.52551880804007
H           11.05945311448296        5.28947660392509        8.39970328507584
H           10.68755020485347        3.62230615687091        7.95112011497192
H           10.30489976439475        4.20582823019465        9.57497466694454
N            8.72875005835796        5.30010376484110        6.79183505786123
H            9.40046002298266        5.34596458831731        6.04327252444383
C            8.98838481817842        4.90243560430164        8.07724134635684
C            7.41555308173697        5.61362183204861        6.71697906019872
H            6.92943849304897        5.95759421272440        5.82712955861522
N            6.82867826688697        5.43889330459825        7.87627742466666
C            7.79419989404461        4.99723723438647        8.73229058245246
H            7.56670415702913        4.77773747662918        9.75440154334340
