72
 energy: -105.874127078252 gnorm: 0.266093072616 xtb: 6.7.1 (edcfbbe)
Fe           6.77700000000000        3.70800000000000       26.79400000000000
N            6.77300000000000        1.89100000000000       25.87900000000000
N            7.37500000000000        4.49600000000000       24.96100000000000
N            7.26900000000000        5.49400000000000       27.67100000000000
N            6.60600000000000        2.89200000000000       28.65900000000000
C            6.35300000000000        0.76900000000000       26.52100000000000
C            6.22300000000000       -0.27000000000000       25.54600000000000
C            6.57400000000000        0.21000000000000       24.33300000000000
C            6.93600000000000        1.58400000000000       24.54200000000000
C            7.42400000000000        3.82200000000000       23.75200000000000
C            7.58200000000000        4.77400000000000       22.67700000000000
C            7.63500000000000        6.00100000000000       23.22200000000000
C            7.49800000000000        5.83500000000000       24.67299999999999
C            7.36100000000000        6.68200000000000       26.97300000000000
C            7.38300000000000        7.75900000000000       27.95000000000000
C            7.30300000000000        7.21200000000000       29.17700000000000
C            7.23600000000000        5.78600000000000       29.02199999999999
C            6.75900000000000        3.56000000000000       29.88600000000000
C            6.49700000000000        2.66200000000000       30.97300000000000
C            6.18300000000000        1.34100000000000       30.28200000000000
C            6.28400000000000        1.57600000000000       28.85300000000000
C            6.06900000000000        0.66000000000000       27.87200000000000
H            5.61600000000000       -0.27900000000000       28.18900000000000
C            7.34100000000000        2.46000000000000       23.58200000000000
H            7.61900000000000        2.05300000000000       22.61000000000000
C            7.43900000000000        6.84200000000000       25.60800000000000
H            7.45600000000000        7.86500000000000       25.23200000000000
C            7.11700000000000        4.87700000000000       30.04400000000000
H            7.32200000000000        5.22600000000000       31.05600000000000
C            6.63500000000000       -0.53700000000000       22.97200000000000
H            6.16500000000000       -1.53800000000000       23.07700000000000
H            7.69400000000000       -0.66700000000000       22.66200000000000
H            6.08200000000000        0.04100000000000       22.20100000000000
C            5.74400000000000       -1.70100000000000       25.89300000000000
H            4.63600000000000       -1.71100000000000       25.97700000000000
H            6.18200000000000       -2.01900000000000       26.86300000000000
H            6.05000000000000       -2.40500000000000       25.09000000000000
C            7.70900000000000        4.33200000000000       21.20100000000000
H            6.70100000000000        4.10500000000000       20.79400000000000
H            8.33800000000000        3.41900000000000       21.13500000000000
H            8.16300000000000        5.15000000000000       20.60200000000000
C            7.83900000000000        7.37200000000000       22.52100000000000
H            8.43000000000000        8.17500000000000       22.98400000000000
C            7.27200000000000        7.57100000000000       21.31200000000000
H            6.67800000000000        6.77600000000000       20.83600000000000
H            7.39700000000000        8.53000000000000       20.78800000000000
C            7.45800000000000        9.25000000000000       27.60100000000000
H            6.43000000000000        9.65700000000000       27.48900000000000
H            8.00500000000000        9.38400000000000       26.64300000000000
H            7.97700000000000        9.80000000000000       28.41500000000000
C            7.29300000000000        7.94300000000000       30.53100000000000
H            7.93600000000000        7.60700000000000       31.35800000000000
C            6.49900000000000        9.00200000000000       30.72100000000000
H            5.84500000000000        9.36200000000000       29.91300000000000
H            6.49000000000000        9.52700000000000       31.68800000000000
C            6.58900000000000        3.00700000000000       32.49700000000000
H            5.88000000000000        3.82800000000000       32.73500000000000
H            7.62000000000000        3.33800000000000       32.74500000000000
H            6.32100000000000        2.11400000000000       33.10100000000000
C            5.82900000000000        0.00100000000000       30.93700000000000
H            5.82900000000000        0.11700000000000       32.04200000000000
H            6.58200000000000       -0.76500000000000       30.65500000000000
H            4.81800000000000       -0.32200000000000       30.60900000000000
O            8.98500000000000        3.17800000000000       26.52700000000000
H            9.28100000000000        3.66200000000000       25.75600000000000
H            9.47900000000000        2.63500000000000       27.02900000000000
C            3.53000000000000        3.10200000000000       26.00300000000000
H            2.72700000000000        3.47200000000000       25.32999999999999
H            3.04800000000000        2.63100000000000       26.88600000000000
H            4.11100000000000        2.33100000000000       25.45200000000000
S            4.59900000000000        4.42300000000000       26.51900000000000
H            5.15200000000000        4.59600000000000       25.32800000000000
72
 energy: -105.938571037170 gnorm: 0.111574915693 xtb: 6.7.1 (edcfbbe)
Fe           6.88039360467574        3.70654452504599       26.80026640518709
N            6.72593353188854        1.90118826105484       25.87899587681195
N            7.33027354636400        4.51112526453928       24.93903100705909
N            7.24505061071233        5.50160953861698       27.67215797348229
N            6.61286249662952        2.90626358991796       28.65303479538702
C            6.32740854393001        0.77095653549764       26.52069813506905
C            6.21358780526547       -0.29674617872868       25.55347545026458
C            6.58334547400306        0.19180909878269       24.33847140192236
C            6.92551396150334        1.57864371581601       24.55895661756210
C            7.42629615014202        3.83780161057830       23.74637214589898
C            7.60221795703207        4.77933572572028       22.66455841760366
C            7.64662367531646        6.02517166360345       23.21783848340775
C            7.48510544974568        5.84087159105185       24.66066218379316
C            7.35157402295400        6.68559848493479       26.99064859165789
C            7.38077508383958        7.77590043243248       27.95231739395368
C            7.32026654023467        7.22367255149609       29.19441558110718
C            7.23764880572273        5.79064620277327       29.01253742379361
C            6.76196778011311        3.53152370259613       29.87554727853323
C            6.49956550510113        2.61308543407715       30.95239901769892
C            6.18291000751727        1.37246603297616       30.31165866968351
C            6.27406701938393        1.60660777915580       28.88105361582883
C            6.06198998442713        0.66334590797441       27.88308266182246
H            5.63792766477974       -0.28375625113935       28.19992272768463
C            7.33922426456347        2.46463819328033       23.58668898224107
H            7.59143824550224        2.05702771496226       22.61334957171631
C            7.43760363341052        6.84418805434645       25.61327393573224
H            7.46758530930235        7.86095376795259       25.23845404800114
C            7.11395214995881        4.86572546182456       30.03445972903640
H            7.29458438850326        5.22072497548707       31.04522463696630
C            6.63471510806381       -0.52637703532445       22.99700183021079
H            6.17362549965534       -1.51651390903731       23.07884933745847
H            7.67426778522421       -0.65833471890129       22.67169130548428
H            6.09582590904531        0.03598359063934       22.22424826167205
C            5.74528807732493       -1.69515546402069       25.89024290004743
H            4.65182406114055       -1.71245334551695       25.97605458448797
H            6.17570969108836       -2.01650611527024       26.84394191375961
H            6.04619967642497       -2.39642674909867       25.10641255898105
C            7.71142903564435        4.34226179148225       21.21681861992997
H            6.71941460388727        4.11071566385971       20.80629684198531
H            8.32920121810838        3.44070161623534       21.13697947352767
H            8.16135254583496        5.13657712417829       20.61369615287853
C            7.82128937389599        7.34293563608652       22.52013430422264
H            8.40956893506363        8.12991574032431       22.99359218823835
C            7.27643058887178        7.56289943836927       21.32357863936786
H            6.67823830878347        6.79962894968591       20.84060012726704
H            7.39875328433910        8.50944044654604       20.80303855217025
C            7.45791978885232        9.24025772944842       27.60183889673387
H            6.44745014101074        9.65206175801637       27.48712750715579
H            7.99853132598975        9.38517811847636       26.66073907908695
H            7.96757320679281        9.79033875220810       28.40050566125733
C            7.28781765706184        7.94072025683448       30.50818754581968
H            7.92507032772746        7.59140752161434       31.32148211346574
C            6.50597469424757        8.99571569743093       30.71243446399613
H            5.84944991900180        9.36010362637781       29.93106826581037
H            6.49026797031087        9.51584686213738       31.66701614990359
C            6.58174227994576        2.98074843107121       32.44355692639618
H            5.89365703122242        3.79956693713376       32.70412394722744
H            7.59258604997183        3.31754480532372       32.71894923473685
H            6.32688693839142        2.12403898501843       33.07744561643154
C            5.83706252720857        0.03638420340305       30.93632913398120
H            5.82885136138165        0.11733595085491       32.02788970389216
H            6.56642099128215       -0.73766279817296       30.65711712173173
H            4.84325554690404       -0.30648028672092       30.61373762225208
O            8.99457230523815        3.20524920294822       26.55056035479657
H            9.30009321777424        3.65194574030560       25.76137365671372
H            9.52625843725190        2.61101377878517       27.04445513611148
C            3.52335028508808        3.08670476715170       25.99390653923527
H            2.73227133773170        3.47084534047137       25.33800466400216
H            3.05865616741741        2.63576902342975       26.87658518105525
H            4.10241993462080        2.32694004269446       25.45959357691369
S            4.61327305190990        4.41461770810203       26.52013788774947
H            5.12576059074621        4.61859179879213       25.31010366294803
72
 energy: -105.960587094780 gnorm: 0.045798309283 xtb: 6.7.1 (edcfbbe)
Fe           6.91806901892431        3.71459409997441       26.78985732938688
N            6.69812785753465        1.91491248359945       25.88914209776602
N            7.31755837413684        4.51894677520325       24.93207675335914
N            7.24110736433945        5.49809557913822       27.66454018466962
N            6.64186253147335        2.91206352104344       28.63770396670078
C            6.30227987900409        0.78164323503743       26.52654416121705
C            6.20352923558469       -0.30823214482683       25.56678347391583
C            6.58963279526338        0.18752686607644       24.35406202521002
C            6.91049741022868        1.58430962055743       24.58197847950308
C            7.42547250609847        3.84921608055341       23.75049277035935
C            7.61500901728437        4.77884123541374       22.66312261623000
C            7.64631996846888        6.03748302495504       23.22103470145964
C            7.47345007637955        5.84241844749793       24.65573361793010
C            7.34404351593291        6.68205220341764       26.99998750770061
C            7.37466934641770        7.78091413956270       27.94796685152876
C            7.32913080974816        7.22420297530793       29.19917357488900
C            7.24410447762913        5.78591795781767       28.99473947708946
C            6.77656870793041        3.51196022941448       29.85180458041846
C            6.50057549282461        2.57468753096327       30.92412871276271
C            6.18795576546427        1.40444497034191       30.32749374838701
C            6.27626734667391        1.62919909158750       28.89120914262801
C            6.05721261530888        0.66933845676546       27.89344185233828
H            5.67091284826174       -0.28836865303781       28.21855061634549
C            7.32179113619940        2.47111771911926       23.59780016807282
H            7.54638749369335        2.06092654615644       22.62250829074586
C            7.43353382587546        6.84344808493054       25.61801382051567
H            7.48571690849345        7.85678978520374       25.24642384753828
C            7.11014508496463        4.85500610400789       30.01667873501605
H            7.25143252538893        5.21742929836938       31.02867535547240
C            6.63889966968515       -0.51197970802165       23.03086612456211
H            6.18155923004920       -1.49643129360074       23.09509920904283
H            7.66644181661374       -0.64326844458919       22.68995045269692
H            6.10665518934582        0.04635179034553       22.26113261945099
C            5.74705892866379       -1.68653924449466       25.89143653381722
H            4.66127578384787       -1.71461492629523       25.97951891141208
H            6.17220096375844       -2.01757459789213       26.83455239186710
H            6.04379255304959       -2.38705716822234       25.11708600501374
C            7.72152214405993        4.35508000646956       21.23621898294424
H            6.73645423618852        4.12279718924255       20.82690069483846
H            8.33018170988985        3.45765534363207       21.14455610354399
H            8.16663074397790        5.13600794028625       20.62758622194815
C            7.80553538760604        7.30494618400821       22.52936000156590
H            8.38703179219327        8.07897984341993       23.02016623495585
C            7.27711622535374        7.55308964368520       21.33662331590119
H            6.66960655317632        6.82001812298511       20.83809081954085
H            7.40655168640181        8.49209595247036       20.82337152622142
C            7.45722015825807        9.22759142730123       27.60228041365320
H            6.45844498920983        9.64624392608928       27.48077253356498
H            7.99878089115789        9.38181486239288       26.67357354697299
H            7.95764965654709        9.77868462912029       28.39506556463318
C            7.28497691489248        7.92737926775973       30.47658906543474
H            7.91550357138583        7.55933208653780       31.27932372317176
C            6.51506082305426        8.98570372773116       30.69936461253846
H            5.85231024170165        9.36201565152442       29.94143092650187
H            6.49716112626466        9.49883579362439       31.64738507827509
C            6.57565997907272        2.94782437154935       32.38508332696373
H            5.89503586184186        3.76612751863756       32.63813295711443
H            7.57685423553542        3.28853353691244       32.66495648059829
H            6.32619537674924        2.11103574412283       33.03438560981467
C            5.84271747442035        0.07690332330810       30.93518702014713
H            5.83215117626687        0.13434182788159       32.01994186785102
H            6.56284243724174       -0.69408544073578       30.65061834223822
H            4.86053566073644       -0.27268666484389       30.60897344048641
O            9.01897907772993        3.28707464513628       26.63590282550488
H            9.32103274318024        3.61132473738672       25.76797411715483
H            9.55604168553147        2.57986418171450       27.03373276404610
C            3.51589019971660        3.06637822588835       25.98673670488362
H            2.73824781960934        3.46794212174465       25.34288020933023
H            3.06641045517740        2.63515047367541       26.87400921212584
H            4.09889870375202        2.31735888145237       25.46510391378704
S            4.60713250561793        4.41757525192769       26.52188918991639
H            5.09438768595996        4.65229399458035       25.30152194481176
72
 energy: -105.966807915636 gnorm: 0.060864646522 xtb: 6.7.1 (edcfbbe)
Fe           6.95373012872188        3.71265378100387       26.79218344630110
N            6.68354660473410        1.92095142737828       25.90212541399355
N            7.30157209377392        4.52094044302752       24.93695092372653
N            7.23898916015717        5.49907610010702       27.65070072548653
N            6.65474895752705        2.90612448850446       28.62464551883548
C            6.28500796950757        0.78605889837121       26.53405423922156
C            6.19300392952670       -0.30555093264151       25.57920014878245
C            6.58371301701484        0.19381858074463       24.37218747040317
C            6.89257147095224        1.59177015644827       24.59740708669819
C            7.41386530599260        3.84913932207731       23.75863749611253
C            7.61411749760578        4.77199129154435       22.67176240948318
C            7.63536520139327        6.03039610617334       23.22815421112371
C            7.46197178719935        5.84198719102499       24.65780060114978
C            7.33899330174045        6.68382554455037       26.99095825516469
C            7.36890706786018        7.77978597736548       27.93571508428311
C            7.32382825182008        7.21956253603073       29.18415012374072
C            7.24463288743970        5.78332534136671       28.97712820730173
C            6.79242913357584        3.51476612416940       29.82978921437779
C            6.51507260353230        2.58028575411660       30.90588742937290
C            6.18239298421775        1.40279128143284       30.31261346244422
C            6.27751009988008        1.62719991793550       28.87873312764806
C            6.05308465090577        0.66437118266580       27.89696778231576
H            5.69986416402035       -0.30244101192150       28.23502730608435
C            7.29659061035025        2.47310033430266       23.60831492341620
H            7.48992485666126        2.06190613683429       22.62667553960628
C            7.43113690375764        6.84670539118919       25.61354942971346
H            7.50532335826002        7.85946581530709       25.24412682004604
C            7.10797958827791        4.85583406776448       29.99866439456902
H            7.20785290499475        5.22440624739674       31.01373911707197
C            6.64360953807603       -0.49971929239005       23.05282158675672
H            6.18814557768721       -1.48518690808637       23.11485178054669
H            7.67285242829254       -0.62312425492728       22.71376907872962
H            6.10991031833016        0.06671362883109       22.29027648677264
C            5.74405939512087       -1.68704310024347       25.89983932380895
H            4.65774830515819       -1.72172744392813       25.98995023395475
H            6.17255419919486       -2.02423116765779       26.84033874102091
H            6.04302617461104       -2.38285653803238       25.12076402946184
C            7.73407385540808        4.36024308184349       21.24657395170892
H            6.74857150898247        4.13306205011683       20.83522927602749
H            8.34355951168146        3.46323173040456       21.15244159571906
H            8.18146309473898        5.14693504284728       20.64590771316072
C            7.79150420708518        7.29217864271070       22.54125015840135
H            8.36924412847475        8.05672085888942       23.04877615646538
C            7.27585026348352        7.55343881225116       21.34405667597616
H            6.65466923797321        6.83688925632493       20.83429495013775
H            7.42202022883694        8.49396009718729       20.84114070570358
C            7.45665405632104        9.22543307043406       27.59681155677324
H            6.45958005033935        9.64674692044209       27.46542289834124
H            8.01055260223749        9.38226092600303       26.67499639359265
H            7.94883625298565        9.77097412062606       28.39936284300661
C            7.28252123970148        7.91112864500111       30.45916627758250
H            7.90706872622616        7.52079323077931       31.25583068580300
C            6.52486302330842        8.97707597216024       30.69184993124886
H            5.85833612433628        9.36666916217927       29.94212760753644
H            6.51360603005926        9.48170075464341       31.64314419728629
C            6.57934407432763        2.93657627364697       32.35507386452111
H            5.88935800842415        3.75050003760817       32.58366564992885
H            7.58226766131508        3.27092592763361       32.62425857569190
H            6.32390457441025        2.09119478170327       32.98834746501864
C            5.83819514292592        0.08886991897934       30.93044687875996
H            5.83175675425716        0.15527127877494       32.01467594160300
H            6.56522053363526       -0.67106946125929       30.64086398548025
H            4.85604043028954       -0.25054444892167       30.60145864888915
O            9.08706651333841        3.36519378817590       26.73591106204753
H            9.36078991958288        3.55646361538792       25.78732608735108
H            9.58938602678681        2.55150634485450       27.03588218488558
C            3.51798429551975        3.05163026810294       25.98492110329632
H            2.73763502516003        3.45990030527713       25.34933201217211
H            3.07850120594344        2.62514398079772       26.87953898134190
H            4.09808336262898        2.30203514651457       25.46127846911197
S            4.61630833303495        4.40826088471952       26.51582495143843
H            5.02355156836822        4.71262656532421       25.26934939446537
72
 energy: -105.969150612023 gnorm: 0.057668607196 xtb: 6.7.1 (edcfbbe)
Fe           6.97789734383623        3.71341628201072       26.78808551669912
N            6.67504672262145        1.92732705604980       25.92120372540560
N            7.29190082481500        4.51871055973485       24.94745034266106
N            7.23681829266851        5.49653185066507       27.63097368962120
N            6.67325987536335        2.89913671567689       28.60143703618505
C            6.26818523844773        0.79060120972207       26.54467001947778
C            6.18029949343782       -0.29952892226698       25.59544628039852
C            6.57532673750016        0.20355629020572       24.39599933807339
C            6.87370342601089        1.60074492827717       24.61689476116468
C            7.40314348872187        3.84578236679847       23.77049585686010
C            7.61165295502167        4.76122071889231       22.68506148807462
C            7.62149448522461        6.01720365595766       23.23872376745310
C            7.45170139628712        5.83802579861630       24.66277346016270
C            7.33556305808421        6.68366012121768       26.97713890668479
C            7.36308713567585        7.77480126785057       27.91911640534778
C            7.31737206113486        7.21025894057917       29.16240811599890
C            7.24556300357537        5.77728564326227       28.95382201765885
C            6.81381440119272        3.51901601788652       29.79788233657723
C            6.53234976103772        2.59091444047783       30.87871410639101
C            6.17983703936273        1.40137034591800       30.28650447032813
C            6.28316088704768        1.62443363193185       28.85697281016150
C            6.05153453148983        0.65672807843867       27.90137967827404
H            5.73418420093120       -0.31705338065858       28.25669775646406
C            7.26439566920303        2.47404000643246       23.62104050657122
H            7.41565629226584        2.06259349334121       22.63104654390556
C            7.43091221739301        6.84898536339367       25.60707714147173
H            7.52922897820831        7.86106195403470       25.24047364133481
C            7.10385328005684        4.85605308527726       29.97488022809258
H            7.15454872753587        5.22923701337524       30.99276063084359
C            6.64718210299107       -0.48397593286967       23.07846575040557
H            6.19422193094593       -1.47146090003458       23.13822561845463
H            7.67962225896396       -0.59772521622263       22.74317158855994
H            6.11123742303447        0.09248537121614       22.32416230889116
C            5.73851727643344       -1.68719408274549       25.91134460562424
H            4.65095840421139       -1.72894458583502       26.00484873748001
H            6.17277255932682       -2.03235057044094       26.84869058505203
H            6.03977244793835       -2.37664013244888       25.12437068793635
C            7.74810208088407        4.36526790858486       21.25884020648595
H            6.76205320820086        4.14533406578442       20.84283552871408
H            8.35992366591644        3.46881811326917       21.16113712699100
H            8.19926223793339        5.16202573972646       20.67076355729947
C            7.77540952639460        7.27780956305691       22.55632723162173
H            8.34979838909650        8.03031113661924       23.08353572866089
C            7.27231325628354        7.55448077518351       21.35489790483345
H            6.64024977759977        6.85536044538373       20.82816955644392
H            7.43997271575175        8.49858443805898       20.86635201075263
C            7.45724626726999        9.22176124821305       27.58933554429154
H            6.46187941769089        9.64669872950131       27.44389221255224
H            8.02875444420970        9.38225623583968       26.67649619849194
H            7.93807512064646        9.76017684166983       28.40602552143600
C            7.28043211010476        7.88856502753598       30.43895417574613
H            7.89826921058773        7.47068579299070       31.22751087872042
C            6.53892850074593        8.96484840813943       30.68286613577265
H            5.87120874315674        9.37382033330853       29.94082114439275
H            6.53729331827249        9.45873374302154       31.63947639956577
C            6.58441810431139        2.92482486746038       32.31751869887698
H            5.88331478006208        3.73243143649951       32.52153359245784
H            7.58881264869136        3.25134891767664       32.57766841903415
H            6.32162855637760        2.06704829219233       32.93055069322691
C            5.83393849082260        0.10530377962109       30.92180615197596
H            5.83196540658731        0.18500366592271       32.00632047146487
H            6.56822110645583       -0.64444070582055       30.63002071189275
H            4.85063725939832       -0.22255398950912       30.59187817677007
O            9.11209899674287        3.29721673902625       26.72880591912588
H            9.42860494420080        3.59682028777299       25.90167253668243
H            9.63427111811579        2.60029849172654       27.08621559115758
C            3.51911131289698        3.03543340921892       25.98398484108939
H            2.73653814879635        3.44763626199523       25.35390018545194
H            3.08926485602996        2.61490291761028       26.88738031785901
H            4.09863539026835        2.28342052583969       25.46056042586926
S            4.61772872893163        4.40307847683895       26.51158129636674
H            4.94986223256820        4.77737959632295       25.24695444718037
72
 energy: -105.972933957596 gnorm: 0.014873645796 xtb: 6.7.1 (edcfbbe)
Fe           6.94184958329237        3.71862366026882       26.77398040951662
N            6.68395471107212        1.92440196213890       25.92660160707927
N            7.30780035656922        4.51345263169821       24.95342045783631
N            7.23842464815733        5.49207065185621       27.62102017026492
N            6.67603029214428        2.90008290162530       28.58574614746908
C            6.27904815698640        0.78430057872930       26.54691604775915
C            6.18008192308606       -0.30218797869926       25.59699356476946
C            6.57025511443164        0.20344384505154       24.39674695938347
C            6.87378426624390        1.59873904097204       24.61981313393897
C            7.40326395300267        3.84272511964820       23.77356275243119
C            7.60545327050783        4.75834525777915       22.68635535857635
C            7.61890216800851        6.01497525920131       23.23788848165310
C            7.45828488764572        5.83325426239844       24.66271536115782
C            7.34109606234505        6.68260445417706       26.97050382811204
C            7.36255808941637        7.77404276286900       27.91336339086065
C            7.31282892782524        7.20758082609180       29.15601401725315
C            7.23928750385924        5.77509698211314       28.94475088222588
C            6.81085645695366        3.51535772423389       29.78603315021530
C            6.52977175749983        2.58863277384687       30.86533930519233