72
 energy: -105.980112957135 gnorm: 0.000187131104 xtb: 6.7.1 (edcfbbe)
Fe           6.83589447009344        3.67557904129811       26.82261649172971
N            6.68507126672921        1.86048827651214       25.97533903641999
N            7.11412706671288        4.48584057819688       24.99038623761344
N            7.07893724863616        5.47695906348810       27.65137811896206
N            6.62486248850627        2.86004010744504       28.61826729754528
C            6.42739961037089        0.68792610813923       26.61118571554706
C            6.36077173719494       -0.40261054124955       25.66529781902303
C            6.59313264680783        0.13863208100659       24.43898234912165
C            6.78785018233760        1.55477259292027       24.65153041524135
C            7.15432631375102        3.82817206824851       23.79553471974948
C            7.32800535940136        4.75384871067409       22.70863819757443
C            7.38408532044527        6.00327593037533       23.27022116377399
C            7.26539818513050        5.80628243923468       24.69963715058602
C            7.25277866894131        6.66202500395291       27.00328977020166
C            7.37309392671721        7.74711500486214       27.94399682659808
C            7.26860789685104        7.18740318698608       29.18874025116928
C            7.08444506186522        5.76547606619656       28.97507728390487
C            6.66812284716024        3.50152064212937       29.81201058910442
C            6.44121651444955        2.57400980176075       30.90130461981883
C            6.25375932017822        1.35626902092265       30.33053022219852
C            6.37679055176063        1.55631412453744       28.90129954931756
C            6.26934129515710        0.53788254688488       27.97578985542605
H            6.06339449743184       -0.45435020686117       28.34578327312035
C            7.01810451104071        2.45924194529343       23.63341734250122
H            7.06497560772685        2.07133276915283       22.62794654719530
C            7.31002750628495        6.82634276281355       25.63073319127206
H            7.41406943715399        7.83296803186806       25.25731522582311
C            6.88804053833734        4.85175781797202       29.99213512251914
H            6.89420371905639        5.22319585912700       31.00490362500768
C            6.64447776305528       -0.52573489081182       23.10636781610654
H            6.47813535916476       -1.59560752030426       23.20226783657157
H            7.61625874000811       -0.37108278711366       22.63675141389607
H            5.88028954913883       -0.11801632155524       22.44397288737072
C            6.09288662523594       -1.81999584638695       26.03657103448375
H            5.13144978883567       -1.90811191670980       26.54264849713415
H            6.86475891872571       -2.19107032634786       26.71111257956651
H            6.07508568867756       -2.45464672939287       25.15406770258264
C            7.47816553556124        4.37525278624256       21.27701669418539
H            6.50441878833295        4.20970415370484       20.81269094774634
H            8.05809791640026        3.45871887838824       21.17842517653580
H            7.98628363271762        5.16921567662579       20.73358595761768
C            7.56273244612089        7.28626117720699       22.62671869371375
H            8.12616853570673        8.01983967026056       23.19145014949814
C            7.08937689767183        7.61876699268014       21.43054397949217
H            6.48386823646051        6.94801735004863       20.84631184569533
H            7.27130180822294        8.59109988930975       21.00414886181886
C            7.63782586862243        9.16715171534061       27.58489726237404
H            6.71610400885529        9.67316192864887       27.29291226024056
H            8.33616863966618        9.23153715810396       26.75170702007369
H            8.06368262197461        9.69309911822812       28.43668567979011
C            7.34589986944375        7.82102092114693       30.48698631394769
H            7.80749060809486        7.22912775809752       31.26855888940736
C            6.89725681805563        9.03761877014474       30.77663916453395
H            6.38838350869127        9.64830475402130       30.05132788320592
H            6.99989030861486        9.45530038724542       31.76434015248897
C            6.42774213941776        2.95761312822015       32.34031238932474
H            5.65416965335105        3.70180703869308       32.52997418703848
H            7.38764484537999        3.38482001796000       32.63061643481259
H            6.23347793760280        2.09258755584360       32.96943770687259
C            5.98119786947585        0.04053603187434       30.97375327230311
H            5.92376720703925        0.14391208352249       32.05430232563022
H            6.77227368225283       -0.67184712283943       30.73871056588618
H            5.03693149697147       -0.37158423896118       30.61756120489648
O            9.05781132535324        3.36319882789774       26.85645954689266
H            9.36409544192793        4.09802793943870       26.31316957326136
H            9.14528647659536        2.56158652195831       26.32800700047894
C            3.87059458204731        3.25104126406000       25.20915306537566
H            2.89170390442932        3.65470209376998       24.96991188615396
H            3.79028219900759        2.19964769436728       25.46360727420030
H            4.56221406180421        3.37706135825005       24.38374110821482
S            4.52157424536115        4.09847653401084       26.69156546414968
H            4.59994065368378        5.30276969122958       26.11472228634527
