78
 energy: -116.003955161204 gnorm: 0.205478680791 xtb: 6.7.1 (edcfbbe)
Fe          11.92600000000000        5.22300000000000       18.14500000000000
N           13.67100000000000        4.25400000000000       18.34700000000000
N           11.17200000000000        3.63500000000000       17.09100000000000
N           10.16100000000000        6.21900000000000       17.86400000000000
N           12.68100000000000        6.78400000000000       19.12200000000000
C           14.78200000000000        4.68100000000000       18.96900000000000
C           15.81600000000000        3.66200000000000       18.98900000000000
C           15.27200000000000        2.58100000000000       18.30100000000000
C           13.97300000000000        2.97400000000000       17.93000000000000
C           11.77300000000000        2.41800000000000       16.87900000000000
C           10.90500000000000        1.52800000000000       16.13200000000000
C            9.75800000000000        2.21900000000000       15.91600000000000
C            9.90000000000000        3.53700000000000       16.55900000000000
C            9.07900000000000        5.78600000000000       17.12300000000000
C            8.17300000000000        6.88500000000000       16.99800000000000
C            8.67700000000000        7.98000000000000       17.67000000000000
C            9.92400000000000        7.53300000000000       18.20100000000000
C           12.09900000000000        7.99600000000000       19.31300000000000
C           13.04900000000000        8.91500000000000       19.93000000000000
C           14.21200000000000        8.27900000000000       20.10000000000000
C           13.98300000000000        6.91500000000000       19.54200000000000
C           14.94900000000000        5.95100000000000       19.54700000000000
H           15.90200000000000        6.17800000000000       20.02500000000000
C           13.08200000000000        2.10200000000000       17.27000000000000
H           13.44100000000000        1.09800000000000       17.04500000000000
C            8.95800000000000        4.54200000000000       16.56700000000000
H            8.01100000000000        4.32100000000000       16.07600000000000
C           10.80100000000000        8.32400000000000       18.90900000000000
H           10.44400000000000        9.31600000000000       19.18500000000000
C           15.88200000000000        1.24700000000000       18.03800000000000
H           16.89800000000000        1.20900000000000       18.48700000000000
H           15.96600000000000        1.08200000000000       16.94300000000000
H           15.25600000000000        0.45100000000000       18.49500000000000
C           17.18500000000000        3.75400000000000       19.63200000000000
H           17.13600000000000        4.42800000000000       20.51400000000000
H           17.91500000000000        4.16600000000000       18.90300000000000
H           17.51100000000000        2.74600000000000       19.96700000000000
C           11.29300000000000        0.15900000000000       15.74600000000000
H           11.84700000000000       -0.31900000000000       16.58200000000000
H           11.95100000000000        0.19300000000000       14.85100000000000
H           10.38400000000000       -0.44100000000000       15.52600000000000
C            8.54600000000000        1.82400000000000       15.14700000000000
H            7.56300000000000        2.19100000000000       15.47500000000000
C            8.57100000000000        1.05000000000000       14.07900000000000
H            9.52400000000000        0.65100000000000       13.70100000000000
H            7.63900000000000        0.79400000000000       13.55300000000000
C            6.87900000000000        6.78000000000000       16.24100000000000
H            6.50100000000000        5.73700000000000       16.29600000000000
H            7.04500000000000        7.04700000000000       15.17600000000000
H            6.12500000000000        7.46100000000000       16.69000000000000
C            8.09900000000000        9.34400000000000       17.79600000000000
H            8.64800000000000       10.05200000000000       18.43000000000000
C            7.00200000000000        9.83600000000000       17.24600000000000
H            6.37700000000000        9.21100000000000       16.59200000000000
H            6.70100000000000       10.87700000000000       17.43600000000000
C           12.71700000000000       10.34600000000000       20.27700000000000
H           11.87200000000000       10.36600000000000       20.99800000000000
H           12.42000000000000       10.89600000000000       19.35800000000000
H           13.60000000000000       10.83400000000000       20.74300000000000
C           15.51700000000000        8.86700000000000       20.60200000000000
H           15.56400000000000        8.77600000000000       21.70800000000000
H           15.57500000000000        9.94200000000000       20.32700000000000
H           16.37300000000000        8.31500000000000       20.15800000000000
O           12.58400000000000        6.12800000000000       16.37500000000000
H           11.81400000000000        6.54900000000000       15.99200000000000
H           13.40600000000000        6.12800000000000       16.03700000000000
C            9.12400000000000        3.95800000000000       22.91500000000000
H            9.58100000000000        4.47300000000000       23.78700000000000
H            8.89500000000000        2.90800000000000       23.19600000000000
H            8.18900000000000        4.48800000000000       22.63300000000000
N           11.31200000000000        3.40600000000000       21.83800000000000
H           11.64500000000000        2.88000000000000       22.62000000000000
C           10.08300000000000        3.97600000000000       21.76400000000000
C           11.98200000000000        3.65400000000000       20.73100000000000
H           12.97800000000000        3.27000000000000       20.51500000000000
N           11.25200000000000        4.42200000000000       19.96500000000000
C           10.06200000000000        4.63600000000000       20.58500000000000
H            9.29500000000000        5.24700000000000       20.12600000000000
78
 energy: -116.036268936800 gnorm: 0.075269346391 xtb: 6.7.1 (edcfbbe)
Fe          11.91829934588019        5.21672722848491       18.16333228199782
N           13.67387305155595        4.25079208032603       18.34045256470655
N           11.16381761781735        3.63460251250635       17.10856495822577
N           10.18055324334054        6.23581080628975       17.85022973804138
N           12.69748422467976        6.79504041055711       19.10592833546564
C           14.78830803054399        4.67915009386241       18.97485255079825
C           15.81212395528124        3.65817080469304       18.98794158983338
C           15.27262864989788        2.58725941321171       18.31175762589327
C           13.95432000364361        2.97204167139481       17.93065770797324
C           11.77521679205339        2.43608199912792       16.87933152059878
C           10.90525637117925        1.54568695211672       16.13726519321143
C            9.74756920505396        2.23324069796300       15.91820112609515
C            9.91174768363894        3.53946318196390       16.55933652207484
C            9.09522439585728        5.80578929299031       17.12585601616300
C            8.15544586226128        6.88407962633265       17.00176673421711
C            8.66576065011912        7.97809664487233       17.66829046887429
C            9.93123494484326        7.53292096026778       18.20166883463820
C           12.09732971960575        7.99557003847194       19.31538519000488
C           13.03301902921266        8.92311603721679       19.92876181166536
C           14.20827733588925        8.27666884174752       20.08342617565021
C           13.98223633410044        6.91851170016797       19.55944696953656
C           14.94732197527491        5.94295093132509       19.55254306754250
H           15.89953225061482        6.17182643114668       20.01339918962548
C           13.07069947538592        2.11914686463790       17.26898516348109
H           13.43304172387935        1.12284652698844       17.04087417349052
C            8.96530389035101        4.54503252605192       16.56757328791804
H            8.02401026970548        4.32439049719273       16.07414475970636
C           10.80681786459208        8.32484224346457       18.92325254290899
H           10.45820117600713        9.31754586326574       19.18219732685537
C           15.88600467594907        1.25555550883476       18.04184560993019
H           16.88866786185755        1.20246854913542       18.47601128615682
H           15.96715055798909        1.07795912382249       16.96326835582030
H           15.27426821010430        0.45785931732827       18.48054006289849
C           17.16803393978444        3.75706296736586       19.62558442404588
H           17.13950570057129        4.41643552409688       20.49917072175310
H           17.90348698180484        4.15791436413161       18.91752697661005
H           17.50727528447790        2.76967055497403       19.95603695226159
C           11.28840875190378        0.16465285443015       15.74858207241188
H           11.83901550597827       -0.32047165254814       16.56262659845313
H           11.93824802501820        0.18107624228150       14.86399550076942
H           10.40117512168206       -0.43632542940744       15.52415085089070
C            8.55725391399818        1.82562487047704       15.16062797201594
H            7.59119762846424        2.20511366093842       15.49051865159145
C            8.57750820666590        1.04602721758540       14.08587728138368
H            9.50771629726404        0.65808696251085       13.68984728651400
H            7.66361052896917        0.79310351612915       13.55816154341319
C            6.87381709576511        6.76874614898116       16.24408839851115
H            6.49828777184957        5.74326383179083       16.28534628472335
H            7.02767508183832        7.04322160129045       15.19308181739736
H            6.11714306986991        7.42281686464800       16.67982461595948
C            8.10719564942350        9.32659735890329       17.80180674712723
H            8.66745377507074       10.01616734609928       18.43292504505218
C            7.00858048857299        9.83165995439373       17.24599372984386
H            6.38082434254996        9.25221528661572       16.58569031276657
H            6.70698387401625       10.85542186547351       17.43561238321129
C           12.70911759012484       10.34218158984414       20.27871580971230
H           11.87825233958620       10.37513439452379       20.99098589613576
H           12.41975253383822       10.89560874304461       19.37867395109979
H           13.57578679585730       10.83068820961667       20.73391453909418
C           15.50121126327635        8.84873309431956       20.59649675669765
H           15.56183113501425        8.77075860844115       21.68925285140453
H           15.57466260296680        9.90952687314590       20.33187992969984
H           16.35961161018088        8.32544508856172       20.16590759563144
O           12.58592670530032        6.24259702223462       16.43359960115953
H           11.83175893020673        6.58350544261059       15.93686320082400
H           13.41014143738961        5.98433897209799       15.96403029800628
C            9.12361353406742        3.95646677321857       22.91804514095153
H            9.56420659587999        4.46239241424908       23.78426108801938
H            8.88904843196651        2.92392511091080       23.19838643190906
H            8.20302343258950        4.47363980262344       22.63994634829814
N           11.30724987460377        3.39165012566891       21.85503093141268
H           11.64197405095977        2.85923443495379       22.63822136271579
C           10.08431638901676        3.98998795189993       21.78209663352501
C           11.98063147069202        3.65696759843158       20.72985960049476
H           12.96574647699691        3.28225792880662       20.51534705479010
N           11.25218268465554        4.41293560243797       19.94498852761361
C           10.07030659229242        4.63693653955016       20.58175677579413
H            9.30650410883336        5.23676038988797       20.12457476630474
78
 energy: -116.044237048152 gnorm: 0.039042647085 xtb: 6.7.1 (edcfbbe)
Fe          11.91646634359432        5.21658519998157       18.17207048021026
N           13.67422594812104        4.24734375023492       18.34150684064035
N           11.16009831803467        3.64222967254160       17.11994239755968
N           10.19663942147386        6.24735531350802       17.84240163221459
N           12.70376256199384        6.79546933818478       19.11380286431638
C           14.79135261841209        4.67912032612053       18.98365483444485
C           15.80626323885473        3.65330427552610       18.99108332612797
C           15.27268845296775        2.59004868337461       18.32625900903547
C           13.93845946054413        2.97156218791602       17.93665077711652
C           11.77616077253250        2.45468974702851       16.88465963013047
C           10.91063242414998        1.56622538299565       16.14121475478499
C            9.74583286037097        2.25257903525626       15.92023193806871
C            9.92274932107981        3.54636041689699       16.56545953954522
C            9.11323872435262        5.82094984286146       17.12819149293737
C            8.14155124482379        6.87706363458778       17.00523757123878
C            8.65685358411610        7.97025076924088       17.66682413044923
C            9.94022747348485        7.53169344739417       18.19889213288857
C           12.09484706656002        7.99169625188792       19.31855153575887
C           13.01668805166790        8.92634580864373       19.93082543951629
C           14.19983509862541        8.27017641775585       20.07286817888397
C           13.97862506186931        6.92337201505441       19.57189388275440
C           14.94442806966422        5.93798891093533       19.55164276593067
H           15.89802833716370        6.16751377132346       19.99797902044060
C           13.06249068524950        2.13549810621571       17.27137556974481
H           13.42748786671122        1.14804662400063       17.03162854175765
C            8.97406143109761        4.55171878223518       16.56899377874544
H            8.04092851214767        4.33523369917447       16.06802936061677
C           10.81281777750712        8.32657674201512       18.92931544537935
H           10.47510872527161        9.32186814631233       19.17474562931070
C           15.88925768994937        1.26078239201342       18.04710334468377
H           16.88433549798311        1.19953417284939       18.46975662244737
H           15.96554345335142        1.08103087101819       16.97788480189574
H           15.28693632827959        0.46079018349145       18.47197792578546
C           17.15281983339155        3.75878283212890       19.62047737687469
H           17.13342665197510        4.40931580032319       20.48778628919388
H           17.88618844586004        4.15523610189934       18.92143439471604
H           17.50123676197124        2.78314658428404       19.94368825455942
C           11.28222858177306        0.17392429451290       15.75179052746109
H           11.82716800762806       -0.31741976877827       16.55285676484969
H           11.92466884484845        0.17587542396225       14.87248924264317
H           10.40300662055073       -0.41860480044508       15.52558949539964
C            8.57515211374842        1.83842921734817       15.17386418976494
H            7.62442421902782        2.22607942866865       15.51522860620218
C            8.58773027475527        1.05399248113476       14.09668773389130
H            9.49844686643820        0.66862809062607       13.68269964091346
H            7.68376906367786        0.79090103409795       13.57886569517664
C            6.86524456039340        6.74909855492522       16.25133438636668
H            6.50130709202025        5.72966377265510       16.27137501634092
H            7.00693132888434        7.03969944440652       15.21137725625877
H            6.09944284187994        7.37721217873215       16.68234118775047
C            8.12048789914939        9.30403028149536       17.80972829575645
H            8.69265423413865        9.96654489096757       18.44881849515345
C            7.02894297312627        9.82894848773100       17.24597921223411
H            6.39476311737574        9.29709945937432       16.56847073534899
H            6.73241914470400       10.84128668487055       17.44451645806481
C           12.69909188721488       10.33837313449451       20.27940581797001
H           11.87643468444584       10.38287388247421       20.98595741800188
H           12.41454512112414       10.89643198450875       19.39224888184671
H           13.55638585938737       10.82556550978857       20.72738940542128
C           15.48453281732465        8.82638424857923       20.59083320105052
H           15.54896410607883        8.74919279932223       21.67468574934815
H           15.56804573005226        9.87849010446218       20.33404996527920
H           16.34130974858923        8.31781543249617       20.16620003871160
O           12.59363253954261        6.26290414396651       16.41898807067507
H           11.83105069393111        6.48836702061208       15.83416886101807
H           13.41411671552438        6.05517042684007       15.95251613233550
C            9.12128717546908        3.96062145260270       22.91761972929169
H            9.54197403388957        4.45650835026406       23.78829746085325
H            8.88381183246271        2.93763611083683       23.19304141904405
H            8.20853757719196        4.46651694493280       22.63980927991677
N           11.30508195429233        3.38255609077076       21.86852623591122
H           11.63801477742334        2.84149130875366       22.65105484406534
C           10.08909535655317        4.00792767564812       21.79504825708170
C           11.98006469551992        3.65664326287821       20.72882360292152
H           12.95763775786127        3.28795017183458       20.51731892783361
N           11.26096523402273        4.40995780878835       19.93015398521904
C           10.08293447058301        4.63879803205919       20.57794805197585
H            9.31940333219169        5.22994970958884       20.12286021394600
78
 energy: -116.047052953485 gnorm: 0.028182067302 xtb: 6.7.1 (edcfbbe)
Fe          11.91726889348905        5.22123095123047       18.16890816390154
N           13.66965117346032        4.24565860443423       18.35145323268737
N           11.16204890953595        3.65087224998828       17.12493940789895
N           10.19953567576814        6.24706706236121       17.84282906858634
N           12.69922128625339        6.79076675518120       19.12326684504555
C           14.78778327517087        4.68143073705046       18.99163402425043
C           15.80254991535079        3.65312117698782       18.99801985083176
C           15.27253326856842        2.58945825707207       18.33697944340462
C           13.93500541885621        2.97337689829983       17.94595020488311
C           11.77833954122171        2.46376048614651       16.88936492023569
C           10.92001838542400        1.57855684002571       16.14002316298384
C            9.75541474835684        2.26570528650476       15.91936948128382
C            9.92902885038523        3.55483234766704       16.56868097112231
C            9.12047813704808        5.82147037421679       17.12799226690166
C            8.13842691105843        6.86764465556769       17.00718894930289
C            8.65288339822223        7.96065353666361       17.66842802256636
C            9.94169599571543        7.52884524384224       18.19787647422998
C           12.09050851578218        7.98786662759457       19.31955536700603
C           13.00749880922189        8.92444440331180       19.93308170946862
C           14.19089331474666        8.26622709157951       20.07350075356376
C           13.97313685404661        6.92644271549273       19.57336603646860
C           14.94053919366524        5.93917679266999       19.54950550566398
H           15.89806392283797        6.17079751612416       19.98854628837165
C           13.06475839342207        2.14112725610913       17.27385085642909
H           13.43099977473041        1.15827165885841       17.02005479818820
C            8.97985048320910        4.55769767212689       16.56518492759857
H            8.05246494477236        4.34580844552329       16.05520634277089
C           10.81092520110493        8.32727251664344       18.92671543049686
H           10.48128332454007        9.32639890420726       19.16714486447392
C           15.89095824085421        1.26240399008741       18.05080204793735
H           16.88937638687744        1.20345611576059       18.47091030947250
H           15.96298668344334        1.09293118367587       16.97809851023821
H           15.28942959959170        0.45895530146289       18.47381861443833
C           17.15031983792831        3.76297655989138       19.62110016361466
H           17.12657982272328        4.41318001936561       20.49024709230227
H           17.87495279195628        4.16659376042887       18.91471968234200
H           17.50308096069100        2.78453335216353       19.93759106143253
C           11.27959401942861        0.18281063889542       15.75268340756404
H           11.81965181904424       -0.31122106392964       16.55712072352566
H           11.91986919407584        0.17991271373513       14.87034497949048
H           10.38856322664273       -0.39589269150932       15.52914862702747
C            8.58627405692908        1.85130257758532       15.18125284500486
H            7.64017148607239        2.24201262863771       15.53359936645221
C            8.59269008914592        1.06286524458059       14.10864415798816
H            9.50169936240491        0.68315555715305       13.67997300160174
H            7.68425120945013        0.78931665824395       13.60225956203379
C            6.85710901005943        6.72912624013107       16.26170617551556
H            6.51371545736340        5.69839290426066       16.26158175403965
H            6.98792470011302        7.04211085825716       15.22432386322971
H            6.07830829496183        7.33777638195396       16.70820418954857
C            8.12739536037154        9.29145972221265       17.82128626455778
H            8.70059980242579        9.93175501330412       18.48158286924213
C            7.05068066260210        9.83457602039164       17.24836651243223
H            6.41893198092048        9.32829182369901       16.54243998796811
H            6.76444694511069       10.84891415407051       17.46232350617806
C           12.68862729297025       10.33682381260294       20.28054295303817
H           11.86323451990984       10.38288914687420       20.98752909765841
H           12.40350639563692       10.89758947362148       19.39230224247314
H           13.54848148157478       10.82272460270313       20.72992286577361
C           15.47584048494701        8.81407992040659       20.59310748540964
H           15.53334243011607        8.72286568679375       21.67741195790994
H           15.56151625461206        9.86889468215563       20.34139859058466
H           16.32840551176566        8.29883810862601       20.16281328034671
O           12.59774494929760        6.23743766570324       16.36754638183987
H           11.87071044471524        6.51546204480966       15.81935310556572
H           13.39134560580573        5.99324016688663       15.86243337648485
C            9.11615469155134        3.96557196926259       22.91111691713310
H            9.52416244595867        4.45694216844988       23.79363387230203
H            8.88007349462982        2.93772229680727       23.17744724728824
H            8.20141253361887        4.47000808923968       22.62675905070376
N           11.30689972915427        3.38459214836730       21.87164045354629
H           11.63537269460929        2.83730506755845       22.65168174755150
C           10.09394615354536        4.01824512039917       21.79534145901992
C           11.98188413525461        3.65415791523352       20.72955251008932
H           12.96014454267245        3.28316069491314       20.52048127998222
N           11.27190756521271        4.41407669272573       19.93017681583791
C           10.09303595043894        4.64442203019113       20.57784209632740
H            9.32788317484968        5.23627176767820       20.12421856733945
78
 energy: -116.047520580713 gnorm: 0.052430796611 xtb: 6.7.1 (edcfbbe)
Fe          11.91660504717357        5.22399061730892       18.16594035857836
N           13.66370891049222        4.24515380923946       18.36234474726900
N           11.16692115633136        3.66022507411232       17.13056369142497
N           10.20121305069714        6.24387838676585       17.84293769894492
N           12.69264508283475        6.78656384948674       19.12357432701082
C           14.78184505966085        4.68504756160830       18.99945331762893
C           15.79987009743801        3.65538367650310       19.00627342968928
C           15.27300344379279        2.58887813899338       18.34667844710260
C           13.93577006371443        2.97681658096657       17.95533792826888
C           11.78313050525743        2.47164505277536       16.89189031087245
C           10.93228368285646        1.59083849742020       16.13574517420135
C            9.76940205002867        2.27910530403046       15.91626773255130
C            9.93617200675670        3.56549357696667       16.56949960328722
C            9.12489432511987        5.81737881377050       17.12796621924849
C            8.13911547719037        6.85806517786754       17.01042206157005
C            8.65060616318431        7.95079618943497       17.67248555971864
C            9.94136720119995        7.52552538339794       18.19798319034755
C           12.08518582339110        7.98439599086196       19.31798761691810
C           12.99945136031634        8.92131260054723       19.93431141645364
C           14.18149053030425        8.26385800556122       20.07606808380774
C           13.96611907249832        6.92904790072576       19.57140527794011
C           14.93522086106109        5.94174827497539       19.54883586766441
H           15.89729129917677        6.17681761499902       19.98206241849201
C           13.07230579660839        2.14417757499118       17.27379333189979
H           13.43823910984840        1.16447610494307       17.00526339808441
C            8.98571571654853        4.56429266161594       16.55759386389288
H            8.06466956857797        4.35729268785803       16.03590820947276
C           10.80589214692532        8.32818169645005       18.92176836128876
H           10.48527667033180        9.33131008894778       19.16052289098977
C           15.89221338269643        1.26419406204473       18.05333068647115
H           16.89670188507386        1.20908378616403       18.47247544176105
H           15.96054465680558        1.10844249811791       16.97407632137288
H           15.29057374514644        0.45611093974445       18.47681107249396
C           17.15249490471953        3.77066423736548       19.62371347444237
H           17.12294249884809        4.41969367230790       20.49878293921888
H           17.86592476529088        4.18766296887296       18.90727296308155
H           17.51231713471647        2.78702524387185       19.93157517525672
C           11.27684988013702        0.19344672378598       15.75159772893321
H           11.81175736754374       -0.30385967380596       16.56258108997764
H           11.91529910826246        0.18441152911280       14.86379751678750
H           10.36761376581584       -0.36816499583714       15.53337292791648
C            8.59401796480709        1.86505358036271       15.18782439068640
H            7.64981765435837        2.25565283499736       15.55361371476504
C            8.59334349136582        1.07319223027303       14.12132118634961
H            9.50463678662939        0.69987771348568       13.67914255117896
H            7.67603989145556        0.79001012908233       13.62736969063674
C            6.84829972213048        6.71349400739415       16.27832175195072
H            6.52708039421293        5.66871170841889       16.25656237887801
H            6.96189983054730        7.05372314315215       15.24221726745133
H            6.06019448067253        7.30338962518571       16.75202973966070
C            8.13005430720260        9.28169098931674       17.83889274004977
H            8.69303584657695        9.89888962129835       18.53218079729456
C            7.07458707716948        9.84117742999968       17.24891615544096
H            6.45241062495652        9.34943379864710       16.51605032369378
H            6.79672147144495       10.85996332901218       17.48078675193743
C           12.67609286548779       10.33485326914148       20.28350458755794
H           11.84513061211269       10.37825796272909       20.99207918788052
H           12.38930105237306       10.89816512445179       19.39111767033897
H           13.54020173068505       10.82034424223197       20.73749370409007
C           15.46912453792855        8.80346424056729       20.60114913331812
H           15.51884134924512        8.69099724406423       21.68771110137178
H           15.55825431273275        9.86432932212799       20.35949326129313
H           16.31700760993390        8.27807925908507       20.16101227933627
O           12.62833681027379        6.27023885844165       16.34573128296746
H           11.89865288437752        6.42993574949151       15.69931204293304
H           13.38183055748628        5.93020083244877       15.78851626214915
C            9.10772078434434        3.97016426519423       22.90129344171323