87
 energy: -128.467811954591 gnorm: 0.000024764532 xtb: 6.7.1 (edcfbbe)
Fe          87.88521933350798       38.30882175665431        3.99817201789674
N           89.59462252033444       37.66931545970264        3.16913373946799
N           88.14200232820828       40.10866041673691        3.14932549337982
N           86.16933554771357       38.94006703575132        4.82675001986316
N           87.63422651897476       36.51108983031723        4.84990505121960
C           90.15054787222252       36.43567324392686        3.28379038362474
C           91.38419367614684       36.35733410233203        2.53194900742402
C           91.56003695912111       37.57899008507646        1.96173133980804
C           90.43005050951832       38.38498031060868        2.37179146595960
C           89.17744379874809       40.49668648198421        2.35838706666121
C           89.02718614631738       41.87078676044764        1.95385284368231
C           87.86458235133617       42.31663403794452        2.52627178622639
C           87.32532505561954       41.18733855477756        3.26049257693196
C           85.61231759524702       40.17624232739269        4.70679314817763
C           84.37970183810020       40.25767004864954        5.44712118221552
C           84.20096319770947       39.03027899191473        6.03013341319554
C           85.33404680307004       38.22376524171474        5.61824424851824
C           86.61011842164169       36.12811843508153        5.65474749085431
C           86.78400316407993       34.75809721336132        6.08673850267353
C           87.93992174636527       34.32245473779221        5.51820328977095
C           88.45604074831427       35.43371372610561        4.74934728525098
C           89.62945820326068       35.38423320386325        4.01778699092906
H           90.18387266812080       34.45740475307224        4.02524448562484
C           90.24793255602887       39.69892530849224        1.99068605702143
H           91.00512109101915       40.14144101379568        1.36107929757410
C           86.15101462208914       41.23236174267317        3.98921057645288
H           85.61107225903686       42.16750405295442        4.00564247259788
C           85.53613406185812       36.91640364217365        6.02066537487408
H           84.79948718677375       36.47538448856707        6.67507356683148
C           92.66364869242281       38.06035471041559        1.08286182250963
H           93.39662508175795       37.27476287391249        0.91494992039446
H           93.17146069017124       38.91155784495785        1.53708226294672
H           92.27312907994033       38.37750180447338        0.11541010639304
C           92.24295740979720       35.14126144643782        2.44691606819758
H           91.68564679222973       34.30457840173614        2.02409140982116
H           92.59173678273596       34.84718430514539        3.43736703375269
H           93.11199030420975       35.32424167593967        1.81954374740329
C           89.94153837847912       42.60004854781864        1.03181196583997
H           90.29866903787855       41.94012182473396        0.24258026936314
H           90.81071395203669       42.98544945246475        1.56789188577898
H           89.42041917282329       43.43902793328493        0.57476059869127
C           87.23717169965380       43.61536395687800        2.43177721011504
H           86.15309579908953       43.61518312475256        2.45387480623171
C           87.87444703328813       44.77811916480569        2.33254007033874
H           88.94801772156843       44.84700864751536        2.35379235239753
H           87.33839256366781       45.70937063640572        2.25107451512418
C           83.47222098776837       41.43866679305922        5.47866985169024
H           83.44614373595667       41.93177230831773        4.50789146014528
H           83.80493166541629       42.16924746717800        6.21846266876559
H           82.46226382943523       41.12597622048683        5.73640836935465
C           83.11639570766455       38.56434664259926        6.86430473989521
H           82.86660850045045       37.51439845656072        6.76243578218325
C           82.42936000940966       39.30568459297120        7.72808053060164
H           82.66211450668216       40.34067074807017        7.90821801300638
H           81.62111903687135       38.89141845154546        8.30808236543938
C           85.83915663135154       34.03028585511344        6.98081401703252
H           84.84929302988559       33.97219670147852        6.52708543674045
H           85.74222224345691       34.54618852572190        7.93637796332139
H           86.18759973525279       33.01802410169438        7.17206803356702
C           88.60249016652709       32.99067080185715        5.62299173083070
H           88.70384683036897       32.53171700091245        4.63884174252988
H           88.02491213034951       32.31984149583114        6.25437508956343
H           89.59997528776726       33.09058892356614        6.05217307408714
C           91.31904294809641       38.75583320022851        8.39622658332674
H           90.87025670832053       38.77253616588943        9.38951569524148
H           92.10344509834752       39.51211918479487        8.36401907463930
H           91.76849478119723       37.78112173770160        8.23411334010448
N           89.56665691436260       40.17092351811323        7.30141686936286
H           89.64318834722521       40.94251948675313        7.94354049732871
C           90.29585223326347       39.01128129785570        7.35070677130258
C           88.73216189875922       40.08443737138744        6.24119048499005
H           88.04169447226126       40.85207027598960        5.95819309746345
N           88.88824411053578       38.94319812904867        5.61723725358712
C           89.85741815169642       38.26491116012816        6.29497128114747
H           90.17176237650339       37.29193759156365        5.97957932156328
C           84.41743146536852       37.86185698126552       -0.37107542228829
H           83.62018055407508       37.12053313619948       -0.31481474582993
H           84.85135881698251       37.82055308343396       -1.37021849430277
H           83.98749305304884       38.84692297939673       -0.21898522454497
N           86.16917751323889       36.43959213486888        0.71637528023396
H           86.07648194714635       35.66258427529952        0.08298431978346
C           85.45055856091842       37.60583147864507        0.66438599637284
C           87.01585425983882       36.52772858317732        1.76712972692896
H           87.70300749276706       35.75736527605315        2.05034756784950
N           86.87749942367481       37.67596661970845        2.38212759752953
C           85.90781883533545       38.35750976022760        1.70822002429513
H           85.60562703020030       39.33645812978785        2.01693601513584
