78
 energy: -115.984577861069 gnorm: 0.255123064493 xtb: 6.7.1 (edcfbbe)
Fe         -11.48000000000000        2.45800000000000        1.24900000000000
N          -12.03600000000000        0.71400000000000        2.20600000000000
N           -9.77100000000000        2.47900000000000        2.37600000000000
N          -10.86200000000000        4.06500000000000        0.23200000000000
N          -13.10800000000000        2.38400000000000        0.11300000000000
C          -13.23600000000000        0.06800000000000        1.99300000000000
C          -13.22200000000000       -1.11500000000000        2.80400000000000
C          -12.04600000000000       -1.15300000000000        3.51200000000000
C          -11.30500000000000        0.02600000000000        3.15500000000000
C           -9.38800000000000        1.54000000000000        3.34300000000000
C           -8.23200000000000        2.01700000000000        3.99500000000000
C           -7.89000000000000        3.17000000000000        3.43100000000000
C           -8.83200000000000        3.48500000000000        2.35600000000000
C           -9.70900000000000        4.76000000000000        0.45700000000000
C           -9.52100000000000        5.80600000000000       -0.52000000000000
C          -10.61000000000000        5.70300000000000       -1.34800000000000
C          -11.46200000000000        4.61900000000000       -0.88200000000000
C          -13.51700000000000        3.31100000000000       -0.86900000000000
C          -14.87700000000000        3.08400000000000       -1.32200000000000
C          -15.34800000000000        1.95800000000000       -0.54600000000000
C          -14.23300000000000        1.53700000000000        0.30600000000000
C          -14.27500000000000        0.43600000000000        1.15900000000000
H          -15.18000000000000       -0.17100000000000        1.16900000000000
C          -10.07900000000000        0.42000000000000        3.65000000000000
H           -9.61400000000000       -0.25000000000000        4.37300000000000
C           -8.82000000000000        4.55800000000000        1.50800000000000
H           -8.05300000000000        5.31500000000000        1.66800000000000
C          -12.69500000000000        4.25100000000000       -1.39000000000000
H          -13.03400000000000        4.76400000000000       -2.29000000000000
C          -11.54300000000000       -2.23600000000000        4.48200000000000
H          -12.29600000000000       -3.05000000000000        4.55300000000000
H          -11.39300000000000       -1.79600000000000        5.49100000000000
H          -10.58800000000000       -2.66100000000000        4.10700000000000
C          -14.31600000000000       -2.16900000000000        2.77200000000000
H          -14.64500000000000       -2.33000000000000        1.72300000000000
H          -15.18500000000000       -1.82600000000000        3.37300000000000
H          -13.92700000000000       -3.12700000000000        3.17900000000000
C           -7.47700000000000        1.27000000000000        5.09700000000000
H           -7.58900000000000        0.17500000000000        4.94600000000000
H           -7.89600000000000        1.54200000000000        6.08900000000000
H           -6.39800000000000        1.53100000000000        5.05600000000000
C           -6.72700000000000        4.11900000000000        3.70800000000000
H           -6.34900000000000        4.78100000000000        2.91500000000000
C           -6.13400000000000        4.17100000000000        4.92900000000000
H           -6.48400000000000        3.52500000000000        5.74800000000000
H           -5.29700000000000        4.86000000000000        5.11400000000000
C           -8.33900000000000        6.74900000000000       -0.62100000000000
H           -7.40100000000000        6.19100000000000       -0.41500000000000
H           -8.44500000000000        7.56500000000000        0.12600000000000
H           -8.28600000000000        7.17600000000000       -1.64500000000000
C          -10.92300000000000        6.46700000000000       -2.61200000000000
H          -11.37600000000000        5.91700000000000       -3.44900000000000
C          -10.70400000000000        7.74400000000000       -2.81300000000000
H          -10.25300000000000        8.36400000000000       -2.02400000000000
H          -10.96800000000000        8.21100000000000       -3.77300000000000
C          -15.67000000000000        3.92600000000000       -2.30400000000000
H          -15.24500000000000        3.80500000000000       -3.32400000000000
H          -15.61100000000000        4.99700000000000       -2.01400000000000
H          -16.73000000000000        3.59300000000000       -2.31300000000000
C          -16.71600000000000        1.33400000000000       -0.62500000000000
H          -17.11900000000000        1.45300000000000       -1.65300000000000
H          -17.40000000000000        1.83800000000000        0.09100000000000
H          -16.64900000000000        0.25100000000000       -0.38700000000000
O          -10.46800000000000        1.23300000000000       -0.00400000000000
H          -10.62600000000000        0.34300000000000        0.31200000000000
H           -9.97400000000000        1.46100000000000       -0.70700000000000
C          -14.65700000000000        6.28400000000000        3.90100000000000
H          -14.13100000000000        7.21900000000000        4.19000000000000
H          -15.27400000000000        5.93800000000000        4.75800000000000
H          -15.30700000000000        6.49200000000000        3.02500000000000
N          -12.71900000000000        4.79900000000000        4.44500000000000
H          -12.62200000000000        5.13600000000000        5.38100000000000
C          -13.65300000000000        5.23700000000000        3.54700000000000
C          -11.98200000000000        3.86900000000000        3.86500000000000
H          -11.17900000000000        3.32900000000000        4.36600000000000
N          -12.37200000000000        3.70900000000000        2.61200000000000
C          -13.38500000000000        4.58900000000000        2.37900000000000
H          -13.83100000000000        4.68000000000000        1.39700000000000
78
 energy: -116.032095347620 gnorm: 0.097903864196 xtb: 6.7.1 (edcfbbe)
Fe         -11.48743466267628        2.47169068014783        1.25537005992470
N          -12.04516864324475        0.73989470265686        2.20958448356666
N           -9.77810694176735        2.48157839187991        2.37001142405787
N          -10.85431591561118        4.06353252797256        0.22589291560303
N          -13.13941107016093        2.39366927194811        0.12713736907061
C          -13.22069933455825        0.06979400737905        1.99813165292772
C          -13.22174974079810       -1.12977552326649        2.80141752285193
C          -12.05063139449858       -1.16154666705692        3.50568333912340
C          -11.32326956972131        0.02730000498650        3.13439256935519
C           -9.39831820664080        1.56437114933362        3.33423571004724
C           -8.20880797075011        2.02030347617761        3.99128414284756
C           -7.86234135543129        3.20166487997249        3.42272867707339
C           -8.84324307025447        3.47983214465254        2.37390926375009
C           -9.71558768351987        4.76776851205581        0.46013733460216
C           -9.53470918533180        5.80549019875483       -0.53120157390848
C          -10.61228976754607        5.70123275267802       -1.37372645420435
C          -11.44409580656392        4.61824516586480       -0.88096630587972
C          -13.51682718600267        3.28700553956374       -0.86232440350493
C          -14.87823538474756        3.05996999707332       -1.29295363803484
C          -15.33017616302601        1.96965083112261       -0.55509798113295
C          -14.23199518562043        1.55597733662370        0.30297537577792
C          -14.25713070794893        0.45511341256630        1.15567309720090
H          -15.15667393281200       -0.15291869537847        1.16650143759694
C          -10.09304665453386        0.41845746392441        3.64090074587070
H           -9.63488504603750       -0.24442658883511        4.37061172788245
C           -8.82882848359391        4.55566330921690        1.51397707228429
H           -8.05222420984526        5.29860855071968        1.65637741872736
C          -12.68227908753262        4.25034306248744       -1.38793861405663
H          -13.03291382822148        4.77845480901338       -2.27004281976542
C          -11.55400207895434       -2.22048265390589        4.46693663249736
H          -12.28248813507076       -3.03291450923590        4.55264577593464
H          -11.39520425080360       -1.79941669835715        5.46653756284554
H          -10.60690837604179       -2.64585834378225        4.11427187028121
C          -14.31053661786069       -2.16486685421126        2.77339171147510
H          -14.64200706194382       -2.33196096560312        1.74272078678379
H          -15.17314502431354       -1.83659088890293        3.36510274508645
H          -13.94342758475880       -3.11360946427856        3.17533912209835
C           -7.48295717791456        1.27153450702050        5.08320920188030
H           -7.58948518199579        0.19041110089220        4.94835521469396
H           -7.88626777601651        1.53475941416246        6.06927635974557
H           -6.41786416232925        1.52009008362330        5.05651118608305
C           -6.72936015984357        4.10462964841657        3.72447965499565
H           -6.37365499478820        4.75553245832852        2.92858189856093
C           -6.13806085886538        4.16880063249025        4.91953156521269
H           -6.47691143386794        3.55527833936786        5.74339115551580
H           -5.31292884951915        4.84760169235140        5.10721978150765
C           -8.35593195325955        6.73422265890967       -0.62105814021294
H           -7.42119465350796        6.19847349868231       -0.41641747629815
H           -8.44531063535689        7.54952479437346        0.10863611522665
H           -8.29059615615943        7.16694115532256       -1.62456714014058
C          -10.91893112540867        6.45650491453985       -2.60450304909689
H          -11.37537249050755        5.89799950152966       -3.42116566875977
C          -10.69613428900955        7.74613873320700       -2.80679617483955
H          -10.26362084209280        8.37136331288155       -2.03508787971688
H          -10.95558409574683        8.21481860161792       -3.75074285130830
C          -15.65020667136988        3.90089589760257       -2.28051079889031
H          -15.24636782523440        3.80143715261821       -3.29783939648403
H          -15.60764511535461        4.96523372975760       -2.01373345915646
H          -16.70257469584193        3.59830869096747       -2.30714141695854
C          -16.69222546279320        1.34326134610780       -0.62696204053806
H          -17.11137874059351        1.45021746367299       -1.63377200314372
H          -17.38292318624101        1.82475126324549        0.07873658017660
H          -16.65030575623372        0.27449025796179       -0.39012975410426
O          -10.48179160461471        1.21772487841390       -0.01172841242531
H          -10.60879640824732        0.31860731278869        0.29231267838771
H           -9.94462714484727        1.44506631497619       -0.74912762247152
C          -14.65397646939446        6.29130658386608        3.90058921497799
H          -14.14776618393767        7.21906989063106        4.18931099943663
H          -15.26977555370589        5.95253156021320        4.74226354506215
H          -15.29885383691236        6.49103199922409        3.04202713702255
N          -12.73196695701466        4.80077204026168        4.45382013937812
H          -12.63378127508982        5.13685770077882        5.39537533018053
C          -13.64963772567785        5.25478353220148        3.54618504390912
C          -11.98408063572982        3.86409302255411        3.85881657074210
H          -11.18967897058066        3.32924998892842        4.35020291870936
N          -12.36335132718840        3.70584767803715        2.60954737291194
C          -13.38521273592111        4.57989838734903        2.38895364258609
H          -13.83379356254153        4.66569393416710        1.41632222098498
78
 energy: -116.045241543058 gnorm: 0.027732721446 xtb: 6.7.1 (edcfbbe)
Fe         -11.48917857076347        2.47871385389350        1.26507763139883
N          -12.05583904502456        0.76586020974692        2.21442065795435
N           -9.78861316683704        2.49145060249618        2.37495710174708
N          -10.85052437676312        4.06069326688291        0.22648886526850
N          -13.15851499939296        2.40298525506997        0.13549840105791
C          -13.21213327605922        0.08039957012900        2.00359616043051
C          -13.22104467152388       -1.13528455777521        2.79240475570238
C          -12.05135247899923       -1.15947777233264        3.49318549845705
C          -11.33744932245166        0.04268637373299        3.12134428155144
C           -9.41244525718057        1.58655359624281        3.32680382507235
C           -8.20363203847934        2.02275915056746        3.98738336979117
C           -7.85675244639317        3.22292868826167        3.41857664156595
C           -8.85455408163792        3.47705601575934        2.38552346081843
C           -9.71919118517809        4.77155569681186        0.46430145304550
C           -9.54659652568442        5.80465981140599       -0.53344732880516
C          -10.61509623472835        5.69647521791250       -1.38740667527606
C          -11.43052738636914        4.60956708489123       -0.87619409632971
C          -13.51275953173649        3.28053316503831       -0.84461246701383
C          -14.87292950226366        3.04298936583462       -1.27277985407654
C          -15.31704333797613        1.97895539526098       -0.55786430179610
C          -14.22761966191531        1.57884987968112        0.31111490760236
C          -14.24339143042397        0.47947167879525        1.15997098392820
H          -15.13464641872555       -0.13409211542511        1.16209261439359
C          -10.10661059622241        0.42534699821671        3.63575561637396
H           -9.65695474737651       -0.23299451305575        4.36874867860279
C           -8.83265557258873        4.55154237494189        1.51419264623135
H           -8.04328066494511        5.27922271661220        1.63918819943417
C          -12.67464724788423        4.25333543629378       -1.37507198600718
H          -13.03788171703811        4.79555711023546       -2.23899685003794
C          -11.55977812591036       -2.19968092863207        4.44774327401956
H          -12.27857157385783       -3.00965559670456        4.54082167216021
H          -11.39980593823315       -1.78122484223035        5.44074876869057
H          -10.61461601228347       -2.62379092818724        4.10853520851306
C          -14.30712353052144       -2.15800259717571        2.77073021048972
H          -14.64353364863373       -2.33131618358145        1.75092437890132
H          -15.16421173324632       -1.83382462660100        3.36003448550808
H          -13.95305553640851       -3.10157120241768        3.17604816172817
C           -7.49107699132153        1.27140778838665        5.06346358240843
H           -7.60105426547656        0.19780667204949        4.93511980469487
H           -7.88574686837401        1.53162486712124        6.04700296653376
H           -6.43100670007397        1.51139826420049        5.04747644618109
C           -6.74606661872218        4.09087005863263        3.73134761448862
H           -6.40276500455984        4.73016178440758        2.92771635118113
C           -6.14688037309230        4.17078450023475        4.91431679719851
H           -6.47303027693545        3.58580862817449        5.75361510984897
H           -5.32032218286511        4.83715130987880        5.09260544265673
C           -8.37257495149625        6.72255949059628       -0.62152199962003
H           -7.44469549285637        6.19076909085935       -0.41520748739951
H           -8.45694818499357        7.53604511224693        0.10044014298917
H           -8.30454575387738        7.15566791048027       -1.61635605377830
C          -10.91679342944247        6.44475340628026       -2.59144089210903
H          -11.37916796735293        5.87794679346419       -3.39179351247590
C          -10.68931767136432        7.73958327796580       -2.79451036959899
H          -10.26819789900017        8.37218151820221       -2.03501465100301
H          -10.94135737371363        8.21041228240690       -3.72985597825043
C          -15.62885978640983        3.87771469804958       -2.26213569970731
H          -15.22287973223960        3.77990452096334       -3.27032657839627
H          -15.58655266975254        4.93445862183110       -1.99508390691887
H          -16.67602799975497        3.58541466254059       -2.29268655436787
C          -16.67190290351692        1.34765850243745       -0.62506434041423
H          -17.09429643349302        1.45218992711243       -1.62263806398308
H          -17.35876751573940        1.82203456458857        0.07864179883219
H          -16.63256097738462        0.28771183392776       -0.38713315198051
O          -10.51536365276092        1.19455519441530       -0.05967266528169
H          -10.55742194262876        0.28255379351596        0.24791265006355
H           -9.91299655103212        1.41329612919173       -0.77449192923524
C          -14.65164794966584        6.29902634710407        3.89733212161047
H          -14.16056877375075        7.22573280413792        4.18794808720935
H          -15.26738183489254        5.96284631598106        4.73036050566356
H          -15.29315862633001        6.49333438608123        3.04636659270445
N          -12.74223952792433        4.79925537392642        4.46230979177400
H          -12.64514616234168        5.13124912267768        5.40810220476365
C          -13.64558462022452        5.26693792922067        3.54536346989448
C          -11.98834449929943        3.85743855331238        3.85665880289085
H          -11.20022548377017        3.32384940162367        4.34255136120467
N          -12.35868584329137        3.69954487710267        2.60943548033077
C          -13.38438762355574        4.57278549232327        2.39730569663725
H          -13.84288929306575        4.65134154175095        1.43370266166374
78
 energy: -116.049099057386 gnorm: 0.041938738787 xtb: 6.7.1 (edcfbbe)
Fe         -11.48620121541132        2.47583648465029        1.26837422542295
N          -12.06547925964848        0.78428545315301        2.21747003993116
N           -9.79341191014784        2.49460919177784        2.37087105974622
N          -10.84803501235074        4.05481816688523        0.23119625090422
N          -13.16766111834782        2.41830064078831        0.15526640978009
C          -13.21384781564439        0.09199326673235        2.00605317054294
C          -13.22241050034376       -1.13024885211818        2.78423905015844
C          -12.05289933251617       -1.14960751692602        3.48187796984482
C          -11.34577965366678        0.05916830367815        3.11640995682345
C           -9.42398765538714        1.59560119924912        3.32222405929242
C           -8.21316239073174        2.02333268589709        3.98459774209733
C           -7.86575034556083        3.22829511969035        3.41709665472985
C           -8.86177737769144        3.47839375012003        2.38753765251762
C           -9.71849348828153        4.77011648465293        0.46804690567712
C           -9.55213744978810        5.80178616396018       -0.52875216394215
C          -10.61774011421387        5.69081828587298       -1.38389699754263
C          -11.42685523040792        4.60225862827072       -0.86714284103337
C          -13.50877545958694        3.28610840274876       -0.82845660823809
C          -14.86639731840884        3.04248389017241       -1.26284404429194
C          -15.31330027336160        1.97920205487999       -0.55044631557635
C          -14.22644125005483        1.59008755357339        0.32525214872422
C          -14.24265163796890        0.49135667492364        1.16654730115000
H          -15.12947339919270       -0.12521487325758        1.16140495606412
C          -10.11815448003808        0.43350881632391        3.63608480495521
H           -9.67706193510382       -0.22212893864818        4.37332117804093
C           -8.83118310746450        4.54973447260552        1.51209480923296
H           -8.02838759010137        5.26401925554889        1.62357960528509
C          -12.67402754355883        4.25945668276550       -1.36056529176386
H          -13.04709805728287        4.81722651296586       -2.20888465381820
C          -11.55814712813410       -2.18121283389984        4.43503985654979
H          -12.27491731010346       -2.99193563106178        4.53088868338254
H          -11.40029468848486       -1.75478913232152        5.42449417652640
H          -10.61090770043026       -2.60178085784812        4.09884628259203
C          -14.30903607986719       -2.14925212142040        2.76712671954132
H          -14.64917006017112       -2.32918884505676        1.75008818968587
H          -15.16383990658233       -1.81957824961400        3.35641791083038
H          -13.95996796775236       -3.09197973701091        3.17921714062221
C           -7.50056976181662        1.26621769355005        5.04914283943454
H           -7.61736040079035        0.19412947732515        4.91630214640884
H           -7.88891265077398        1.52462135962946        6.03548297924527
H           -6.43945086593710        1.50161561744194        5.03153470945985
C           -6.75550778327974        4.08653399571311        3.73071379059746
H           -6.41382290558897        4.71891204530349        2.92114380376729
C           -6.14844865771031        4.17711907824519        4.91039952026811
H           -6.47829247745821        3.62019635393385        5.76907697081893
H           -5.31684900952315        4.83970112879312        5.07332664071801
C           -8.38201672932664        6.71712122622778       -0.62060688947276
H           -7.45711948973561        6.18278450352419       -0.41285182631327
H           -8.46701323137406        7.53160978194836        0.09889339450219
H           -8.31701921990093        7.14688713813213       -1.61629786658566
C          -10.91967969895151        6.43702165800225       -2.58141137526989
H          -11.39016993835490        5.86618853559357       -3.37370440865749
C          -10.68348720390027        7.73103210331566       -2.78436608319712
H          -10.26751502635824        8.36716862762854       -2.02511416815266
H          -10.93038954743757        8.20563051371558       -3.71811169784276
C          -15.61062291167378        3.86862050932652       -2.25770014302297
H          -15.19222471466162        3.76198462223077       -3.25765415431720
H          -15.56469143263335        4.92241393864870       -1.98684895851010
H          -16.65596425795534        3.57481578928505       -2.29033960713274
C          -16.66170811640372        1.34311210636454       -0.61825004406610
H          -17.08325203466844        1.44970385861603       -1.61482435714065
H          -17.34420067553473        1.81588158898725        0.08883583604634
H          -16.61420250815906        0.28488255273071       -0.38115069756817
O          -10.57611770481870        1.16500505212158       -0.14222270933419
H          -10.47442665452285        0.25228537711904        0.21887973426913
H           -9.86283527636304        1.38484318904165       -0.78045486848945
C          -14.64890221270983        6.30388072685151        3.89188272028525
H          -14.16422649878786        7.23376502363739        4.18333577006942
H          -15.26907364243652        5.97051916179387        4.72222975346029
H          -15.28767578544121        6.49610792812754        3.03851682471285
N          -12.74795480304073        4.79382774290110        4.46908713676957
H          -12.65466767370102        5.12095748017115        5.41737542831968
C          -13.64322033841835        5.26816420720987        3.54645870959662
C          -11.99448424668767        3.84803145444180        3.86178261451598
H          -11.21019845644105        3.31092137230181        4.34848291794253
N          -12.35855656368881        3.69099484039235        2.61321806008875
C          -13.38383677284520        4.56658939541621        2.40284255833832
H          -13.85246935640018        4.63932069155679        1.44428900099304
78
 energy: -116.051302373771 gnorm: 0.024143385285 xtb: 6.7.1 (edcfbbe)
Fe         -11.48070244728494        2.47034081958367        1.26962778171025
N          -12.07005019423084        0.79742562767675        2.21576705625647
N           -9.79447454655574        2.49418579905392        2.36232020707666
N          -10.84465202659568        4.04756565270251        0.23712192326081
N          -13.16715440838820        2.42994172407872        0.17497451022517
C          -13.21663908298433        0.10309467852607        2.00638196460760
C          -13.22298988294838       -1.12138869536038        2.77744613102387
C          -12.05344422224976       -1.13793466527872        3.47242276837662
C          -11.34933103403896        0.07358746172091        3.11292385255764
C           -9.43168916121644        1.59962452804490        3.31942302451134
C           -8.22626616651055        2.02516031224790        3.98444056630897
C           -7.87793207824278        3.22938927231461        3.41811511606516
C           -8.86410296772250        3.47967174547128        2.38476034767561
C           -9.71438823288896        4.76630222394253        0.47011719841655
C           -9.55484789635081        5.79904967467281       -0.52272365587834
C          -10.62162051224253        5.68664587165315       -1.37369269938603
C          -11.42760356639326        4.59723561819217       -0.85536302193101
C          -13.50528703953673        3.29429271922438       -0.81104553289355
C          -14.85863872928648        3.04478105689589       -1.25587190754113
C          -15.30943721061637        1.97839039989423       -0.54096211848209
C          -14.22471496210437        1.59853516261829        0.34050508665554
C          -14.24634029873547        0.49988079313064        1.17461849606081
H          -15.13073460759554       -0.11840090496744        1.16319635053861
C          -10.12655958238481        0.44142731106018        3.63888510235395
H           -9.69494966351672       -0.21085554061915        4.38277839340092
C           -8.82454639569474        4.54742036965792        1.50742515465178
H           -8.01317848946962        5.25236011284039        1.61146273155081
C          -12.67826332562699        4.26836614597120       -1.34258779251555
H          -13.05826861596575        4.83886370414923       -2.17836241012481
C          -11.55239169091602       -2.16412850202502        4.42693321868548
H          -12.26759102975547       -2.97728463797777        4.52493357930172
H          -11.39723339382582       -1.72772354079282        5.41366736482795
H          -10.60232352995381       -2.57982781881498        4.09009366942298
C          -14.31213800141383       -2.13832201717871        2.76387936568131
H          -14.65325574691453       -2.32531356676354        1.74704176941179
H          -15.16651558302215       -1.79957057645197        3.35133014611253
H          -13.96649898046935       -3.08063961057915        3.18434323879765
C           -7.50979861997732        1.26115856281744        5.03995947936045
H           -7.63283139168426        0.18928307920941        4.89815566246505
H           -7.89227003109373        1.51519153466274        6.03081651239159
H           -6.44683097642992        1.49438474370126        5.01661105501706
C           -6.76369415058158        4.08805400939382        3.72949212999060
H           -6.41376622845889        4.70794344629099        2.91245170011150
C           -6.15561809254562        4.19159879885270        4.90960028686979
H           -6.48249094265262        3.64861137262182        5.78020787155960
H           -5.31320870199793        4.84726823223425        5.05389560824799
C           -8.38773874437860        6.71535369479065       -0.61923366697810
H           -7.46326441759732        6.17927068224420       -0.41024825223648
H           -8.47473488528386        7.53194644672935        0.09874041890587
H           -8.32693763815753        7.14062184861113       -1.61816914857662
C          -10.92707328087271        6.43256756244846       -2.57130966222079
H          -11.40231931985405        5.85902167037017       -3.35969917151652
C          -10.68130801535002        7.72381616645368       -2.77336183689304
H          -10.26085160024349        8.35861099792148       -2.01315371807820
H          -10.92090410388527        8.20213560347614       -3.70839323944588
C          -15.59221735593793        3.86213757308095       -2.26014734753927
H          -15.15838817871492        3.74530048940198       -3.25257326623832
H          -15.54469354058110        4.91609096833055       -1.98971211021933
H          -16.63702927834646        3.56524748263700       -2.29915858447627
C          -16.65213970201748        1.33638960166828       -0.61103795690152
H          -17.07431920399824        1.44520383986709       -1.60781727181947
H          -17.33316739774268        1.80464206540170        0.10127921125066
H          -16.59406273785694        0.27722883199904       -0.37729995998032
O          -10.56801532992955        1.13551640032551       -0.17785501368802
H          -10.48142454964737        0.23451910652317        0.14379157885296
H           -9.84210730047741        1.34474475732710       -0.79334324262054
C          -14.64706649194917        6.30599502482553        3.88445097540680