78
 energy: -115.972325486745 gnorm: 0.000063892813 xtb: 6.7.1 (edcfbbe)
Fe          14.67234009007613       28.13996836804647        5.00998053489605
N           15.02598291536991       29.38179052180577        6.51548039119108
N           13.81513493431687       26.80191255589939        6.27413001316435
N           14.40684994728971       26.81405468075612        3.43437517693714
N           15.68405357087342       29.39514843664545        3.72676346862057
C           15.66877622110006       30.58954581764089        6.45472138061331
C           15.68124815900021       31.20711860807943        7.74477564562162
C           15.03605961709659       30.34397586987807        8.60036314681004
C           14.64349245234738       29.21271119309700        7.81868565735335
C           13.63026781490706       26.96668796259825        7.61596850415984
C           13.01154027333907       25.79607306420474        8.17884129839585
C           12.82758065681822       24.91032878766764        7.14459473026315
C           13.32193964270894       25.56909962236545        5.94732541899548
C           13.71532328452379       25.63337655763132        3.49297632612936
C           13.51876000704176       25.11095160407476        2.19486119701120
C           14.11976318601340       26.01427345601699        1.30710286172515
C           14.65690470116722       27.06331995869349        2.11886719044007
C           15.86291764593470       29.21905308443641        2.38377981802541
C           16.59892658100053       30.33919161240390        1.84072838166721
C           16.83911905775284       31.19224914832467        2.87914587409351
C           16.25168506605694       30.59227153828325        4.05267122647001
C           16.24457593890800       31.15134720238398        5.31512696661868
H           16.72246805632671       32.11148457778943        5.43419917309373
C           13.99684697104146       28.09034244177097        8.33361477388825
H           13.78824981345316       28.09502067802637        9.39214365068234
C           13.27410412428342       25.02673679214714        4.68464333937914
H           12.83879866607772       24.04462532856192        4.58410940899403
C           15.38602817467215       28.16068495131844        1.63685424154942
H           15.58494824546334       28.18405504086535        0.57653456219583
C           14.77305545322242       30.49668816925779       10.05915169895230
H           15.14357587951471       31.45192488863457       10.42193695497823
H           15.26412042070939       29.70258412091117       10.62234074377011
H           13.70341805267061       30.44375834499931       10.26303213900940
C           16.29357551800618       32.53274269484338        8.04238196466008
H           15.83257233126848       33.31301513292003        7.43624294654685
H           17.36133558801277       32.52029341860802        7.82187626889571
H           16.16445320088982       32.79241991484856        9.08982543089867
C           12.60631764582982       25.64792861413306        9.60283171018756
H           12.24464506164840       26.59530847216281        9.99867516948068
H           13.45101337245011       25.32739131371235       10.21454709497275
H           11.81535591614228       24.90609202778620        9.69245550575179
C           12.23829418808121       23.59208245077677        7.17065694379435
H           11.70693928142669       23.29860745215385        6.27279844294457
C           12.31100409405387       22.73133054304370        8.18232850953355
H           12.86957683188377       22.94292600344722        9.07682051958827
H           11.83533686828845       21.76603485379063        8.13330012241997
C           12.73369894449050       23.89017133173496        1.85992379167569
H           11.96190777910924       23.71218633063997        2.60626279640068
H           13.37536361349708       23.00759046261544        1.82049060570510
H           12.25488391889732       24.00497823526957        0.88904769877186
C           14.18161814040608       25.97518459890527       -0.12807107216372
H           14.31398848846013       26.93705358825348       -0.61172102233919
C           14.10847022258959       24.88988044439646       -0.90121644780964
H           14.03450340351479       23.89614571216276       -0.49896359524393
H           14.15391989303572       24.96679559022819       -1.97480856622198
C           16.98355996226953       30.47236839725363        0.40737130527948
H           16.09691087116633       30.52548904612111       -0.22562030629368
H           17.57295935835902       29.61298747481101        0.08759152015972
H           17.57232173870306       31.37173138541375        0.24604192683527
C           17.55353334276657       32.49934457275942        2.87756207356517
H           16.88504871376464       33.29975909721308        3.19519971707313
H           17.92724394963854       32.73790713078453        1.88498646331202
H           18.39750892205109       32.47275904750616        3.56665816977018
O           16.89672052569591       26.90605540455521        5.08118850150617
H           16.62302998956162       26.08158538372525        4.66666358807830
H           17.36728935475470       27.41272348205007        4.41190954504313
C           10.22220927582699       27.09431811706789        1.90660357388525
H           10.75444466831945       26.53880520412375        1.13409264667160
H            9.42444080250764       27.66585058140078        1.43228837771444
H            9.78267424271513       26.38519780508117        2.60110730947544
N           11.80581321184277       29.02947151813381        2.02142280735224
H           11.71385468447304       29.28900292186013        1.05306924550101
C           11.15991247921415       27.98572454786149        2.63243441505188
C           12.61369572453279       29.60039598679799        2.94039209203518
H           13.23451941488907       30.44944055258192        2.73863017340052
N           12.52644161186969       28.99120800728797        4.09602415378471
C           11.61259082289354       27.99030051068508        3.92027339272096
H           11.34764640911152       27.34005965310497        4.72859859375456
