78
 energy: -115.978503135374 gnorm: 0.235305262398 xtb: 6.7.1 (edcfbbe)
Fe          28.37800000000000       91.48699999999998       52.80200000000000
N           29.40200000000000       93.10700000000000       52.18500000000000
N           29.57800000000000       91.37100000000000       54.44600000000000
N           27.39200000000000       89.84699999999999       53.40299999999999
N           27.26100000000000       91.57499999999999       51.14500000000000
C           29.14200000000000       93.85100000000000       51.03599999999999
C           29.97100000000000       95.02099999999999       51.04800000000000
C           30.76400000000000       95.01000000000001       52.17700000000000
C           30.38900000000000       93.79400000000000       52.87400000000000
C           30.58400000000000       92.26299999999999       54.83400000000000
C           31.18900000000000       91.82699999999998       56.05500000000000
C           30.59800000000000       90.65800000000000       56.41500000000000
C           29.55700000000000       90.37400000000000       55.40600000000000
C           27.59200000000000       89.11400000000000       54.56700000000000
C           26.56000000000000       88.11900000000000       54.73599999999999
C           25.71400000000000       88.22899999999998       53.67900000000000
C           26.22500000000000       89.27800000000001       52.83200000000000
C           26.22900000000000       90.69499999999999       50.77400000000000
C           25.79100000000000       90.98299999999999       49.41500000000000
C           26.51600000000000       92.04200000000000       48.97300000000000
C           27.38500000000000       92.42799999999998       50.07500000000000
C           28.27000000000000       93.52599999999998       50.01300000000000
H           28.26600000000000       94.14699999999999       49.11700000000000
C           30.90600000000000       93.41600000000000       54.12700000000000
H           31.62700000000000       94.09099999999999       54.58700000000000
C           28.63600000000000       89.34500000000000       55.48300000000000
H           28.72600000000000       88.65600000000001       56.32300000000000
C           25.73200000000000       89.64500000000000       51.59000000000000
H           24.88600000000000       89.07599999999998       51.20500000000000
C           31.80900000000000       96.03099999999999       52.60900000000000
H           31.86400000000000       96.84599999999999       51.85600000000000
H           32.80300000000000       95.54100000000000       52.68399999999999
H           31.52500000000000       96.46599999999998       53.59099999999999
C           29.99500000000000       96.01100000000000       49.90700000000000
H           28.96300000000000       96.16200000000001       49.52500000000000
H           30.63000000000000       95.61999999999999       49.08400000000000
H           30.39300000000000       96.98500000000000       50.26400000000000
C           32.27500000000000       92.62200000000000       56.76600000000000
H           32.03400000000000       93.70499999999998       56.71700000000000
H           33.25300000000000       92.44799999999999       56.26899999999999
H           32.33000000000000       92.31300000000000       57.83200000000000
C           30.85600000000000       89.82899999999999       57.56999999999999
H           30.01700000000000       89.24800000000000       57.97799999999999
C           32.09100000000000       89.67900000000000       58.24600000000000
H           32.98400000000000       90.22300000000000       57.90500000000000
H           32.17200000000000       89.01600000000001       59.12000000000000
C           26.47800000000000       87.29700000000000       56.01799999999999
H           26.51500000000000       87.97599999999998       56.89699999999999
H           27.33700000000000       86.59499999999998       56.06900000000000
H           25.52300000000000       86.73000000000000       56.04000000000000
C           24.44600000000000       87.57400000000000       53.42300000000000
H           23.60700000000000       88.15500000000000       53.01199999999999
C           24.23300000000000       86.22099999999999       53.67600000000000
H           25.04000000000000       85.59599999999999       54.08700000000000
H           23.25600000000000       85.76100000000000       53.46800000000000
C           24.74299999999999       90.14600000000000       48.69500000000000
H           23.79000000000000       90.17300000000000       49.26599999999999
H           25.08900000000000       89.09300000000000       48.62200000000000
H           24.56600000000000       90.55900000000000       47.67900000000000
C           26.46300000000000       92.74700000000000       47.62900000000000
H           25.86300000000000       93.67699999999999       47.72200000000000
H           25.98600000000000       92.08399999999999       46.87600000000000
H           27.49200000000000       93.01300000000001       47.30400000000000
O           27.25100000000000       92.60100000000000       53.72500000000000
H           27.56900000000000       93.48999999999998       53.56600000000000
H           26.54900000000000       92.37500000000000       54.22200000000000
C           30.81300000000000       87.70600000000000       49.30800000000000
H           31.10400000000000       86.72900000000000       49.74900000000000
H           31.64500000000000       88.07599999999999       48.67199999999999
H           29.89800000000000       87.56499999999998       48.69300000000000
N           31.51200000000000       89.05600000000000       51.34900000000000
H           32.44100000000000       88.68800000000000       51.38900000000000
C           30.53700000000000       88.69599999999998       50.41400000000000
C           30.97100000000000       89.97300000000000       52.16699999999999
H           31.50000000000000       90.42700000000001       53.00400000000000
N           29.70900000000000       90.22799999999998       51.79199999999999
C           29.43100000000000       89.44999999999999       50.68600000000000
H           28.46900000000000       89.50500000000000       50.19299999999999
78
 energy: -116.026619040233 gnorm: 0.091165789142 xtb: 6.7.1 (edcfbbe)
Fe          28.41758696400560       91.44496298199213       52.77380503760021
N           29.39313695269271       93.11811482218533       52.19702259356912
N           29.57831897265480       91.36999288336453       54.45285410286947
N           27.37564360054476       89.84816943568741       53.41536131227905
N           27.24518519517520       91.57323624063115       51.14301448566695
C           29.15141777182152       93.84458282588757       51.05042587671218
C           29.98428489432418       95.01766730922922       51.03901875487033
C           30.75565564282634       95.00105379712943       52.17105089300689
C           30.36766729356269       93.79928067646500       52.88342442554315
C           30.56507606433212       92.26198085523664       54.82716471096892
C           31.19142515372434       91.83138267153849       56.04862385266664
C           30.60198899780047       90.65215850569423       56.41857353928533
C           29.55629053380139       90.39129950848736       55.41207863606777
C           27.59385746488701       89.13084487468578       54.56498910091102
C           26.56678558233217       88.13367833784936       54.74766100850207
C           25.71202172682811       88.23900077373442       53.68192505798995
C           26.23774569464211       89.29587520727608       52.83793555447014
C           26.24342277450088       90.68974426553838       50.78008905953686
C           25.79366133395297       90.97431174542243       49.42868077123459
C           26.51644910130488       92.04091691172165       48.98536369022398
C           27.39670086005145       92.41591821664566       50.07821239231987
C           28.27157879840261       93.50443406441374       50.03346741232711
H           28.25935910693187       94.12728072449460       49.14471102860459
C           30.89092785877995       93.41159072346188       54.11847530710821
H           31.62456615336713       94.07480233888580       54.56663016686083
C           28.63978291382403       89.35623187078278       55.46952977217438
H           28.72365742337475       88.66852108292581       56.30487520521594
C           25.74851560429557       89.66191968152098       51.59264844807372
H           24.90627468435094       89.09233629675563       51.20830013826192
C           31.78977687427422       96.01069918273332       52.60301178319209
H           31.86103388928001       96.82312144756152       51.87138206628389
H           32.77900033898992       95.54538357738119       52.68720074614841
H           31.52976064793200       96.45105791753221       53.57362688882657
C           29.99537262821039       96.01080516475976       49.91500407296370
H           28.98212013547192       96.16794309458110       49.53018454055202
H           30.62041060750132       95.63592945395165       49.09548382566556
H           30.39032106033164       96.97404611357344       50.25097084995997
C           32.26294388979914       92.61556154666519       56.75789564267147
H           32.03883776488212       93.68707689418595       56.71685389323138
H           33.23714764688368       92.45146304326104       56.28127339516431
H           32.32728351708402       92.31731029962302       57.80936752319242
C           30.87517184531772       89.82671859960375       57.57548755948849
H           30.03856194593575       89.24902440230584       57.96760192039906
C           32.05715516045998       89.69099536772046       58.22419427404208
H           32.95359541449722       90.20434220626774       57.89704352745449
H           32.15128704225563       89.03937264486873       59.08733267459378
C           26.47547656343497       87.30332243252329       56.00223104369474
H           26.51346805283278       87.96074382157735       56.87942084159508
H           27.31731324999357       86.60373651148186       56.06530393287127
H           25.53856340187934       86.73913916730785       56.03507521149820
C           24.45683090804829       87.55075819858133       53.42702915445848
H           23.63521623559508       88.13601780123039       53.01240042293565
C           24.23973981083551       86.24654973730802       53.67741616821566
H           25.02649919338885       85.61345010795603       54.07022458390595
H           23.27984361630899       85.78261155129529       53.47471301568871
C           24.75364625462792       90.15714968715847       48.70671983618247
H           23.80555995325887       90.17252749550384       49.25678721768320
H           25.08138163640978       89.11417272049803       48.62213659015239
H           24.57166350160022       90.55110839533680       47.70134549102408
C           26.46211000833904       92.73812225986688       47.65075760461443
H           25.87371639923125       93.66180301639835       47.72194550857311
H           25.99694061697477       92.09678720542577       46.89458635849550
H           27.46942761054612       93.00263750816720       47.30976199410726
O           27.25241892899015       92.61395422639924       53.71591741869877
H           27.55247970577046       93.51666008285142       53.58197486649865
H           26.50907386480612       92.38745870840876       54.25027332638212
C           30.81729278525381       87.70745124987040       49.31431654532013
H           31.10306086362775       86.73833695875533       49.73839702650202
H           31.63223702003152       88.06387970693035       48.67485351976098
H           29.91840330644346       87.57177985381340       48.70698721694213
N           31.50581775700826       89.04600975726363       51.33593487336078
H           32.43927812533181       88.67675021013262       51.38238261930270
C           30.54895224329138       88.69530297618671       50.40197190306674
C           30.96292569418824       89.96850893920110       52.15171234586659
H           31.48099031727583       90.41972837947284       52.98206990529512
N           29.72425535057262       90.22731334997371       51.78615963450226
C           29.45072623211998       89.44738871147798       50.69514768162042
H           28.49192526378397       89.49869868542594       50.21121862243327
78
 energy: -116.040613857894 gnorm: 0.036769956643 xtb: 6.7.1 (edcfbbe)
Fe          28.44153360497593       91.42530596032843       52.76265534057475
N           29.39954926578359       93.11577190899399       52.19408162964390
N           29.58702094801224       91.36358861584576       54.45025643248640
N           27.37893150445209       89.84416553460288       53.41379053479655
N           27.25735233748890       91.54869356746605       51.13116191609767
C           29.16376479949356       93.83118399414390       51.05814914298345
C           29.99458264519568       95.01172022875433       51.02974589540062
C           30.74577829212280       94.99311736432435       52.16742194653671
C           30.35527890776349       93.79698349861069       52.88636161097190
C           30.55132930842447       92.25724016921953       54.81499065645466
C           31.18988624622621       91.83690713368954       56.03934732511964
C           30.59717412204227       90.65513516974393       56.41334806857811
C           29.56208695105265       90.40147445554477       55.40773405752854
C           27.59884370584705       89.15053831937068       54.56117615344652
C           26.57491000308362       88.15166240457582       54.75523079288055
C           25.71957077229250       88.25594108155187       53.68523190342586
C           26.25958819872644       89.31479641837844       52.84482965206892
C           26.26403396654175       90.68254967322228       50.78551910452759
C           25.79907450069550       90.96521347180298       49.44094320822597
C           26.51968627149576       92.03484894068643       48.99710875255806
C           27.41203965926928       92.39749234303686       50.08140322660313
C           28.27418970127497       93.48115648563784       50.05235685933364
H           28.25211521839254       94.10788069975898       49.17191146398913
C           30.88251934750390       93.40507821000135       54.10760744203245
H           31.62901478011669       94.05565734397540       54.54459271779948
C           28.64427342418062       89.36727264318752       55.45594788377198
H           28.72059418704042       88.68103779784690       56.28795112251171
C           25.76533952569097       89.67706022707159       51.59947570836141
H           24.92647221593763       89.10685359171178       51.21878166553893
C           31.77177206862846       95.98966112561695       52.60230274618181
H           31.84835155555746       96.79810862122497       51.87908656612827
H           32.75531961700643       95.52962803931283       52.69070653550597
H           31.51927401455265       96.42589526734385       53.56852840960088
C           29.99838183319853       96.00885518323334       49.91961560577239
H           28.99286936286785       96.16991289805807       49.53983395591054
H           30.61678140558995       95.64833922767708       49.09740213612346
H           30.39350879264570       96.96430768529598       50.25018812068631
C           32.25080864222555       92.61116467513321       56.74755637230742
H           32.03668718486900       93.67707819485275       56.70838016242656
H           33.22543285248091       92.44881084201003       56.28620672824321
H           32.31240285106632       92.31471994833950       57.79069784556621
C           30.87618024681534       89.82778172154667       57.56969638399837
H           30.03577952062702       89.25296529595833       57.94385392328034
C           32.03241812262384       89.69547778360871       58.19565164307289
H           32.93339496139337       90.19172968706498       57.88164802268907
H           32.13305394867774       89.06204568549994       59.06205806444825
C           26.47263979447348       87.31228180231959       55.98608460163962
H           26.51243195604359       87.95131274993214       56.86834916602620
H           27.30207627097558       86.60853980899206       56.04952004141807
H           25.54260407547522       86.75377742645253       56.01240892028449
C           24.47614779399735       87.54390216452137       53.42934354816214
H           23.67288538395641       88.13766060314686       53.00440726010284
C           24.25553950450957       86.26360153461663       53.67380459452603
H           25.02343678783829       85.61919796223518       54.06304592861393
H           23.30147192075435       85.80103371868651       53.48296892635468
C           24.76238541695197       90.16647873682921       48.72063756938988
H           23.81739181893563       90.17908743490401       49.26097082474534
H           25.08006453834717       89.12808245617614       48.62831259151719
H           24.58539147062102       90.55805687486287       47.72279343939933
C           26.46012089409135       92.72782817534396       47.67313811380927
H           25.87935918366200       93.64878762017835       47.73904489312380
H           25.99764473729349       92.09478190566986       46.92012009622422
H           27.45814211090872       92.98764448042147       47.32639431618753
O           27.21965502695814       92.64061365070421       53.71929644112662
H           27.49696126672664       93.55876403712804       53.63100327614771
H           26.47130601029048       92.42307274112149       54.28140530464085
C           30.82037386220539       87.70953656802878       49.31857509865007
H           31.10369902007640       86.74529091044252       49.73545852196928
H           31.62701079612615       88.05427059287108       48.67433763475557
H           29.92824415147300       87.57853004907932       48.71742370351882
N           31.50319010776280       89.04064508892328       51.32480663671733
H           32.43857208150671       88.66990994438652       51.37612378664636
C           30.55749293066642       88.69712195643777       50.39461730802592
C           30.95680641180070       89.96735814394918       52.14204529632158
H           31.47041725507186       90.41639942543239       52.96583513653082
N           29.72542602119343       90.22658704970462       51.79252759898075
C           29.46180925076361       89.44863850405633       50.70468661673184
H           28.50635075659348       89.49039674758315       50.22498737152149
78
 energy: -116.045490087869 gnorm: 0.030772760623 xtb: 6.7.1 (edcfbbe)
Fe          28.44684193708865       91.42530613337769       52.76224135976580
N           29.40227061874495       93.10955445789487       52.18895102375888
N           29.58587903044188       91.36578712792414       54.44329465629583
N           27.38678417580170       89.85106207318805       53.41441851475874
N           27.27281347508549       91.53246839241457       51.12871607776710
C           29.17397428223003       93.81702693288236       51.05478715919884
C           29.99990311462854       95.00326668265542       51.02162019904007
C           30.74034641543524       94.98517241738327       52.16351309526649
C           30.35201615847425       93.79068903025399       52.88274131431310
C           30.54735913291184       92.25476257717818       54.80183199067559
C           31.18778393393186       91.84046253377424       56.02749238107568
C           30.59104807737903       90.66073146382716       56.39994627424827
C           29.56384735492480       90.40789540928107       55.39936588081286
C           27.60558049893991       89.16337508231570       54.56124795126401
C           26.58194285085682       88.16530761211108       54.75797176098951
C           25.73226996294123       88.26847958632490       53.68578943541813
C           26.27826884506903       89.32383887548821       52.84710864478406
C           26.28353702880124       90.67181012114415       50.78811370933153
C           25.80540405586968       90.95794769730219       49.44996003611465
C           26.52506313356319       92.02551689300414       49.00608247764948
C           27.42785114184000       92.38028467810935       50.08233279038650
C           28.28355814717414       93.46248722324060       50.05450004880858
H           28.24970868953761       94.09539982420208       49.18097113048288
C           30.88591190889280       93.39961581776043       54.09610735376379
H           31.64412007340179       94.03972641345840       54.52432749825552
C           28.64840370735757       89.37384832890955       55.45087685288672
H           28.72189721372241       88.68865885100595       56.28166477195323
C           25.77920493013096       89.67607296713386       51.60236193206674
H           24.93686310240363       89.11067321570781       51.22924884715929
C           31.76206376917177       95.97345173778002       52.60813925500796
H           31.84268754379027       96.78336004485521       51.88881085281537
H           32.74138373693392       95.50681897651258       52.69910208195935
H           31.50516902448726       96.40097738863498       53.57592986284747
C           30.00149365239708       96.00669941822144       49.92004135889734
H           28.99500191344933       96.17396891412753       49.54722774558626
H           30.61522698656835       95.65610238146827       49.09030469151553
H           30.40117987658526       96.95830715063542       50.25615660065471
C           32.24258712227489       92.61168428435765       56.73888998149477
H           32.03363293625605       93.67805675355113       56.69639490560100
H           33.22087961607243       92.44493030786938       56.28742421603550
H           32.29326210740948       92.31377837884403       57.78156789790927
C           30.86096667665076       89.83103970501224       57.55499335871379
H           30.01481957389062       89.26032295910504       57.91967339616328
C           32.02151147192923       89.70165456763328       58.18246236209814
H           32.92764488472074       90.18019546039329       57.85724243551066
H           32.12469785637963       89.06663699936658       59.04603105934018
C           26.47032558797968       87.31711208994361       55.97592592796077
H           26.51296832302237       87.94199556124289       56.86789754280152
H           27.29154463348269       86.60348734884576       56.03134562393559
H           25.53484876574718       86.76834188021357       55.98643611685993
C           24.49622788442485       87.55164327718821       53.42504464036395
H           23.70469780112698       88.14991215080821       52.98702237118226
C           24.26886448253503       86.27203820655899       53.67880116759644
H           25.03188598194560       85.61844497125580       54.06214862957999
H           23.31624457313590       85.81204311324657       53.48092397998630
C           24.76420976535602       90.17065816601601       48.73360370739615
H           23.82026108310131       90.18766054403207       49.27416992987484
H           25.07478598209867       89.13086673683182       48.63659395710901
H           24.59229617701385       90.56896061774502       47.73855037603903
C           26.45805998585602       92.71970977408033       47.68901722520316
H           25.88210407670391       93.64216360665175       47.76178271618839
H           25.98814400030912       92.08839661604350       46.94051015540266
H           27.45512586085915       92.97405611778650       47.33785544916140
O           27.16879688876879       92.67115808824389       53.72134889039582
H           27.43882509404942       93.59874912715560       53.69334526256719
H           26.43659414971590       92.45969338567113       54.31544424470430
C           30.82125541442078       87.71111769891181       49.31947570191985
H           31.10435102735811       86.74756986347036       49.73726925275558
H           31.62630642463273       88.04912324464388       48.66957112568374
H           29.92715645589859       87.58156708230113       48.72193169442895
N           31.50889013963853       89.04279449578451       51.31966979232076
H           32.44374263888145       88.67069463126228       51.37193810933982
C           30.56299385779715       88.70034440948955       50.39332007307386
C           30.96147878579401       89.96817808553044       52.14099358837341
H           31.47649192705726       90.41682653118144       52.96196825231664
N           29.72721117279824       90.22784639055796       51.79831426748530
C           29.46517040015584       89.44698898215390       50.71209269464320
H           28.50947891178775       89.47664335752920       50.23471030290739
78
 energy: -116.049407211980 gnorm: 0.032801630349 xtb: 6.7.1 (edcfbbe)
Fe          28.44944656849600       91.42688086115116       52.76149992089574
N           29.40361159678794       93.09814530223220       52.18122664230992
N           29.57830028328775       91.37248547869984       54.43325784776469
N           27.39831001762196       89.86191663953993       53.41492469321421
N           27.29665985036199       91.51253240713365       51.12649415575842
C           29.18219172853527       93.80186656576619       51.04729185418231
C           30.00498601127751       94.99196928625400       51.01192734855678
C           30.73703046335990       94.97566015515525       52.15763577591305
C           30.35069957037407       93.78170244678311       52.87570557470153
C           30.54549284393175       92.25402838993824       54.78752012522541
C           31.18845541371223       91.84332803709982       56.01182812779515
C           30.58673846568784       90.66709255474558       56.38338289476506
C           29.56132199350654       90.41665320747092       55.39219557207291
C           27.61162024270308       89.17580012644956       54.56479972861284
C           26.58996850715160       88.17595327081658       54.75827151050118
C           25.74777573762265       88.27722106008572       53.68343826717450
C           26.29388052332557       89.33277546520863       52.84946801412703
C           26.30102660679253       90.66072744467833       50.79151074425506
C           25.81369028261977       90.94854018084214       49.45792008730857
C           26.53298051754879       92.01268725296859       49.01322171640915
C           27.44442930533319       92.36221376032991       50.08192958130067
C           28.29384999112527       93.44627963017646       50.04968643139770
H           28.25217438570146       94.08233465348010       49.17974163004325
C           30.89475613299596       93.39449303061141       54.08249677507181
H           31.66540922486601       94.02340348671380       54.50141403224175
C           28.65024762119305       89.38074964914770       55.45239041586218
H           28.72461262707571       88.69452936077407       56.28087943567256
C           25.78779568334549       89.67177630709875       51.60611551783074
H           24.94483861233581       89.10758439673506       51.23883901898945
C           31.75584549707348       95.95723924963694       52.61823608196049
H           31.84420535679979       96.77371197028896       51.90647188436579
H           32.73166028655756       95.48175903757304       52.71250974255215
H           31.48995411203590       96.37265668461053       53.58972218615722
C           30.00473446980452       96.00301471023214       49.91839898438067
H           28.99444770887251       96.18129700008744       49.55649139034896
H           30.61012232116043       95.66074602959594       49.07755312258772
H           30.41378678721237       96.94953919511377       50.26443932668338
C           32.23739245605965       92.61415184893202       56.72902036475627
H           32.03295266335960       93.68228415715126       56.67950951085606
H           33.22163977590073       92.44045423823232       56.29026086081890
H           32.27127589277674       92.31646166763008       57.77414915620500
C           30.84539023503383       89.83206771867324       57.53399680015688
H           29.99257715861824       89.27525333511848       57.90144910871887
C           32.01338195782508       89.69187530062992       58.15468747611352
H           32.91373095479616       90.17842782437879       57.82876269421755
H           32.10965230098338       89.07119223561962       59.03024353810829
C           26.46787317100809       87.31826955627682       55.96615149871801
H           26.51854183358385       87.92718623494326       56.86984560444585
H           27.27734920563138       86.58832403209469       56.00962707578476
H           25.52065648062312       86.78630006030743       55.96034520721461
C           24.52019267298305       87.55913017416206       53.41232356989574
H           23.73549278662397       88.15851785604549       52.96516441770778
C           24.28948031056635       86.27712841571287       53.66974030191280
H           25.04257959885724       85.62408160473323       54.07461946343507
H           23.33123651221846       85.82540664127205       53.47584352867327
C           24.76180858215893       90.17242446800716       48.74840031420108
H           23.81934752141730       90.19986763084277       49.29313496545682
H           25.06109813179395       89.12847399309587       48.64845947060171
H           24.59274554862110       90.57787986012573       47.75457761895909
C           26.45563310104603       92.71214374611553       47.70211673675898
H           25.88597977989049       93.63826063664165       47.78770848389814
H           25.97158247956640       92.08448254804550       46.95803047482331
H           27.45233767116564       92.96033710499685       47.34273667005049
O           27.08774375471188       92.71772976902157       53.71195162419111
H           27.36921097056547       93.64804636317885       53.78984550662975
H           26.40293157529715       92.51579660159608       54.37211939636641
C           30.82193264981267       87.71135594461565       49.32001150107947