78
 energy: -116.058078017982 gnorm: 0.000034735767 xtb: 6.7.1 (edcfbbe)
Fe          28.36791603056095       91.46831295329478       52.77284130852798
N           29.35926006591547       93.11360470948466       52.16904021549601
N           29.48821591387717       91.42626783787757       54.44897955064753
N           27.35195718922800       89.87513124748973       53.40759941148995
N           27.23268122678638       91.55943269655155       51.13915343831093
C           29.18321034208619       93.78962181934557       51.00249564723771
C           30.11469334919779       94.88990686280763       50.90343874862604
C           30.86346798968955       94.86215253918110       52.03927731449849
C           30.38152434964621       93.74199569818775       52.81516872286758
C           30.49328051351649       92.28277091275929       54.78982713127093
C           31.09677591112899       91.89403528984376       56.03673763291939
C           30.44142215976036       90.76120589106998       56.44548142500266
C           29.43483593392697       90.49527217684229       55.43783505865515
C           27.57616061693923       89.16180496960332       54.54446280731351
C           26.65380585947470       88.05847603214090       54.64891304326038
C           25.85803473746634       88.11747015911821       53.53664906809168
C           26.31501047976770       89.26832684310725       52.78016489768541
C           26.21528336824250       90.72326070060576       50.80943059106414
C           25.63676036375026       91.09547902436120       49.53554823494781
C           26.33508230327804       92.17779388262913       49.10292230992268
C           27.32874036073433       92.45187421426959       50.11957796993709
C           28.23728579242411       93.48930459311249       50.04021817255729
H           28.20468487338194       94.11614050256054       49.16235956752649
C           30.90795031133825       93.36998694244568       54.03712315345091
H           31.72497760032716       93.95980383963482       54.42382862195280
C           28.55422153007796       89.43219707485409       55.48437814282860
H           28.63687749866926       88.75567257964553       56.32103670021016
C           25.77975814478423       89.65157014161011       51.56444132518160
H           24.96259805882518       89.06663057140022       51.17051028813271
C           31.96901059183337       95.76703964167167       52.46474407425811
H           32.14524448596377       96.53845176458383       51.71926791147141
H           32.89423045799936       95.20662508782677       52.60293878357511
H           31.72544126869096       96.25357283717614       53.40971566757383
C           30.18153367613138       95.83327426760438       49.75184979120083
H           29.23313847675850       96.35706901285371       49.62998750149701
H           30.39029005056423       95.29439400787801       48.82746313623761
H           30.96416275397536       96.57307499525166       49.90151006062481
C           32.17073498336319       92.64705073322394       56.74214217312727
H           32.03154380215494       93.72072083283064       56.62390766499190
H           33.15464114973464       92.38909800371576       56.34615926421753
H           32.15627371539088       92.40926441821593       57.80389164567168
C           30.64037834792036       89.97252395261084       57.64085620150524
H           29.74875183412705       89.51410999944302       58.05260371851097
C           31.80544544213568       89.76915050131157       58.24741880977783
H           32.73046993868059       90.15819572176677       57.85907844764286
H           31.87664078314857       89.17893906398446       59.14594089591300
C           26.57037517500515       87.11605941196626       55.79851198408286
H           26.73091601150010       87.64071328565785       56.73921024523594
H           27.32559621201752       86.33255465954174       55.71587828668157
H           25.58912309300177       86.64677093854651       55.82554005290400
C           24.75619887872521       87.26321773108126       53.15229670198543
H           23.94622199919732       87.75375752317299       52.62501986808207
C           24.67421866724778       85.95757131629075       53.38713200200040
H           25.46854149114388       85.41030019112426       53.86417878871772
H           23.81398606593722       85.38348465964394       53.08481849769862
C           24.49637077187914       90.38533291407430       48.89076239542752
H           23.61588668181470       90.41589670949429       49.53276147012035
H           24.74701407025332       89.33962662565875       48.71033322924064
H           24.24192007578634       90.84553975151114       47.93914802202681
C           26.16792337218956       92.97360754333204       47.85402527565668
H           25.93427831737366       94.01207643345082       48.08984227524840
H           25.36215767892516       92.57196537656421       47.24458845143761
H           27.08471337458142       92.95879468291518       47.26406309169988
O           26.97346829238057       92.89471313825052       53.90621822099986
H           27.28463335629244       93.73491284803724       53.55205013680797
H           27.33828084027548       92.80910983862830       54.79376552257644
C           30.85997351466844       87.49616785795186       49.75882813951627
H           31.46784524201286       86.76281365086398       50.28854816173214
H           31.39463063833238       87.79457410218552       48.85708533527729
H           29.92389493983892       87.02871782069602       49.47007856091374
N           31.57832156905693       89.45698806189806       51.14107895813759
H           32.56625564242880       89.32370776325435       51.00043250597924
C           30.58232379561282       88.67231175189400       50.62144259146127
C           30.99258382834403       90.43065566953639       51.87360207222887
H           31.53070869470312       91.19248152807995       52.39858660517356
N           29.68752860613411       90.31054650341764       51.84909431739131
C           29.41676515055706       89.22130321453540       51.07376607635339
H           28.40893931942119       88.90766894893726       50.89539590979832
