78
 energy: -115.957132513324 gnorm: 0.329905656449 xtb: 6.7.1 (edcfbbe)
Fe         -11.53800000000000       -2.45400000000000       -1.38400000000000
N          -12.09900000000000       -0.70800000000000       -2.27200000000000
N           -9.79500000000000       -2.47000000000000       -2.50100000000000
N          -10.86400000000000       -4.03000000000000       -0.27200000000000
N          -13.20600000000000       -2.37100000000000       -0.14700000000000
C          -13.21800000000000       -0.00500000000000       -2.02900000000000
C          -13.27900000000000        1.09200000000000       -2.86500000000000
C          -12.10100000000000        1.10100000000000       -3.61200000000000
C          -11.43500000000000       -0.05300000000000       -3.24500000000000
C           -9.43100000000000       -1.58200000000000       -3.42500000000000
C           -8.31300000000000       -2.02400000000000       -4.13600000000000
C           -7.96500000000000       -3.24000000000000       -3.55000000000000
C           -8.90500000000000       -3.46100000000000       -2.54200000000000
C           -9.77800000000000       -4.77400000000000       -0.54800000000000
C           -9.59000000000000       -5.77300000000000        0.40400000000000
C          -10.67300000000000       -5.64900000000000        1.28500000000000
C          -11.47200000000000       -4.63700000000000        0.76800000000000
C          -13.58300000000000       -3.26500000000000        0.77000000000000
C          -14.87300000000000       -3.02000000000000        1.23000000000000
C          -15.33700000000000       -1.95700000000000        0.46000000000000
C          -14.23500000000000       -1.52000000000000       -0.28000000000000
C          -14.27300000000000       -0.45800000000000       -1.19400000000000
H          -15.21800000000000        0.08000000000000       -1.27200000000000
C          -10.19000000000000       -0.44200000000000       -3.75500000000000
H           -9.75300000000000        0.22100000000000       -4.50100000000000
C           -8.89800000000000       -4.51300000000000       -1.62300000000000
H           -8.09700000000000       -5.23900000000000       -1.75400000000000
C          -12.72900000000000       -4.25100000000000        1.26000000000000
H          -13.08200000000000       -4.79200000000000        2.13800000000000
C          -11.67600000000000        2.12000000000000       -4.65700000000000
H          -12.46200000000000        2.89800000000000       -4.75700000000000
H          -11.54000000000000        1.61700000000000       -5.63800000000000
H          -10.72700000000000        2.60500000000000       -4.34400000000000
C          -14.37100000000000        2.17700000000000       -2.82500000000000
H          -14.75100000000000        2.28200000000000       -1.78600000000000
H          -15.21300000000000        1.88700000000000       -3.48900000000000
H          -13.94600000000000        3.14900000000000       -3.15400000000000
C           -7.68700000000000       -1.27600000000000       -5.30400000000000
H           -7.68500000000000       -0.18600000000000       -5.08800000000000
H           -8.27800000000000       -1.45900000000000       -6.22700000000000
H           -6.64000000000000       -1.61700000000000       -5.45000000000000
C           -6.87000000000000       -4.07600000000000       -3.82200000000000
H           -6.46500000000000       -4.68300000000000       -3.00000000000000
C           -6.21400000000000       -4.21700000000000       -5.09900000000000
H           -6.56000000000000       -3.64300000000000       -5.97100000000000
H           -5.36000000000000       -4.90000000000000       -5.21500000000000
C           -8.35100000000000       -6.66900000000000        0.54400000000000
H           -7.43500000000000       -6.06500000000000        0.36900000000000
H           -8.39200000000000       -7.48700000000000       -0.20700000000000
H           -8.31100000000000       -7.09600000000000        1.56900000000000
C          -10.93600000000000       -6.33600000000000        2.48400000000000
H          -11.33300000000000       -5.75000000000000        3.32400000000000
C          -10.74400000000000       -7.74600000000000        2.74900000000000
H          -10.35100000000000       -8.41300000000000        1.96700000000000
H          -10.98900000000000       -8.16700000000000        3.73500000000000
C          -15.72200000000000       -3.93200000000000        2.10400000000000
H          -15.20100000000000       -4.11100000000000        3.06900000000000
H          -15.87600000000000       -4.90600000000000        1.59200000000000
H          -16.70200000000000       -3.45100000000000        2.30700000000000
C          -16.73300000000000       -1.30800000000000        0.53000000000000
H          -17.13000000000000       -1.39400000000000        1.56400000000000
H          -17.42500000000000       -1.82900000000000       -0.16600000000000
H          -16.66100000000000       -0.23300000000000        0.26000000000000
O          -10.55300000000000       -1.12800000000000       -0.16500000000000
H          -10.75600000000000       -0.25600000000000       -0.50500000000000
H          -10.04000000000000       -1.31200000000000        0.53800000000000
C          -14.83300000000000       -6.25400000000000       -3.98200000000000
H          -14.38200000000000       -7.23000000000000       -4.26100000000000
H          -15.42900000000000       -5.87400000000000       -4.83900000000000
H          -15.49000000000000       -6.40000000000000       -3.09800000000000
N          -12.76700000000000       -4.89800000000000       -4.53800000000000
H          -12.68400000000000       -5.24300000000000       -5.47300000000000
C          -13.74300000000000       -5.27500000000000       -3.64800000000000
C          -11.97100000000000       -4.01600000000000       -3.95600000000000
H          -11.10200000000000       -3.56500000000000       -4.43300000000000
N          -12.40900000000000       -3.78800000000000       -2.72700000000000
C          -13.51800000000000       -4.56300000000000       -2.51700000000000
H          -14.05000000000000       -4.53600000000000       -1.57400000000000
78
 energy: -116.026399065848 gnorm: 0.130359425742 xtb: 6.7.1 (edcfbbe)
Fe         -11.53526498194046       -2.46332889070390       -1.37699242190554
N          -12.10388860741131       -0.73727810175345       -2.27896932356156
N           -9.81803758594922       -2.47145563186390       -2.49084415091689
N          -10.88005424148954       -4.03819373484540       -0.30055375415119
N          -13.19353901632598       -2.36721647103602       -0.16269183004587
C          -13.23754640246534       -0.03060303053494       -2.04246001046283
C          -13.28136892329710        1.12005456387816       -2.86597510733476
C          -12.12058429099182        1.11708839334686       -3.61631277740256
C          -11.42133689781428       -0.05452678524778       -3.23614589386907
C           -9.45817823846461       -1.58090114263230       -3.43926919314394
C           -8.30786754003843       -2.02299294230714       -4.14621560229056
C           -7.95023565969206       -3.23547576504525       -3.56801690045910
C           -8.90549341997365       -3.46395370218565       -2.52437294530315
C           -9.76298333717161       -4.76288456779031       -0.55582571356029
C           -9.58082585219772       -5.78202211074450        0.41506568706169
C          -10.66009624155680       -5.67492068222244        1.28794996814965
C          -11.46835331383092       -4.61507746518583        0.77886108990511
C          -13.56498660262869       -3.26478934567102        0.77565833747508
C          -14.89928969533104       -3.02892335316444        1.21278931972913
C          -15.35020197684211       -1.94982989111210        0.47945262776024
C          -14.24537613986200       -1.52859094744982       -0.31943759728598
C          -14.27615997103091       -0.45709332037286       -1.20414418060827
H          -15.20746814536488        0.09199266950046       -1.26581998186464
C          -10.18949783396440       -0.43606443607050       -3.75734783625901
H           -9.75944540584502        0.21905753201290       -4.50476662226417
C           -8.88904958785689       -4.51935939364208       -1.62120204112402
H           -8.09383203952128       -5.24252269177028       -1.75027788675035
C          -12.72003617309597       -4.25099316468503        1.27268579148879
H          -13.08381028196445       -4.80528893933632        2.13082287919447
C          -11.68474973464677        2.11723159450668       -4.65006524860137
H          -12.44986555100865        2.89106870848866       -4.76082032982834
H          -11.54016960626315        1.62783229542052       -5.62143631067609
H          -10.74239866051448        2.59567294516507       -4.35246788187038
C          -14.36272516124434        2.17424677845034       -2.82625805947704
H          -14.74437375691124        2.28182819345274       -1.80448439850305
H          -15.19805729423535        1.89499068705351       -3.48079094888344
H          -13.95816054047277        3.13756385375935       -3.15117597908665
C           -7.68472593655375       -1.28017726087603       -5.29361288107842
H           -7.68394516586458       -0.20223295431214       -5.09257581048129
H           -8.26129937972880       -1.45677051440677       -6.21219762785775
H           -6.65243536919389       -1.60857626060727       -5.44793054711421
C           -6.84266209518580       -4.08193320970776       -3.86040762912954
H           -6.46270531768227       -4.68512452486801       -3.03425296762122
C           -6.22420885254138       -4.21215967153722       -5.06899233261938
H           -6.56227390627424       -3.66537892242788       -5.94244615388888
H           -5.38179965731664       -4.88314339520768       -5.19814976526098
C           -8.36297125484215       -6.66321770087834        0.54459445711197
H           -7.45242250573227       -6.07534132140312        0.37169905875582
H           -8.39204247192316       -7.47586439591457       -0.19242138683156
H           -8.31658159820628       -7.09196692377565        1.55136877374310
C          -10.92873166929220       -6.38212351756460        2.49993779395901
H          -11.33662162678905       -5.78226367598508        3.31672070249232
C          -10.73926932674823       -7.71000653013908        2.74328072123123
H          -10.36446555188222       -8.38275647846729        1.97815687175648
H          -10.98246668627113       -8.14122798950615        3.70953344588086
C          -15.71656870803223       -3.92434914921270        2.10271329269277
H          -15.20793487476918       -4.10949156480817        3.05682699277902
H          -15.87621682500472       -4.88972362585213        1.60531009411587
H          -16.68811822098537       -3.46352430380013        2.30570889332662
C          -16.72007551503689       -1.31208236530221        0.53678004419403
H          -17.12712951917871       -1.39093709413486        1.55025094331678
H          -17.40874904461907       -1.81819183768870       -0.15305049126716
H          -16.66477329532805       -0.25264491038280        0.26536520839825
O          -10.56157567118039       -1.11981660050698       -0.15970192466649
H          -10.74189454259119       -0.23828711007327       -0.48725497513745
H          -10.01058451674249       -1.29839707882161        0.57827118438510
C          -14.82851516390582       -6.25427001029510       -3.98493077344651
H          -14.39279131102225       -7.22220733401656       -4.26027317681223
H          -15.42630527840396       -5.88560815612823       -4.82717302458704
H          -15.47836218377627       -6.39575282472529       -3.11611515448827
N          -12.77568362865601       -4.90931907594123       -4.54055591439788
H          -12.68729929609610       -5.25553917136464       -5.47962440474046
C          -13.75224434319292       -5.27664042599426       -3.65183383950022
C          -11.98008442110942       -4.01023827701177       -3.94585845341450
H          -11.11905754618149       -3.56573922028688       -4.41774961756818
N          -12.40760694559026       -3.77014959825236       -2.72293984650875
C          -13.50898294329337       -4.55475555581615       -2.52157208737030
H          -14.03650912406053       -4.53341116966138       -1.58504246562462
78
 energy: -116.042486386262 gnorm: 0.042153977264 xtb: 6.7.1 (edcfbbe)
Fe         -11.53089376606571       -2.46772507173089       -1.37142603326383
N          -12.11758489617014       -0.77096061362961       -2.29963649553783
N           -9.84364332505855       -2.48036301622705       -2.48787895879597
N          -10.88723696550558       -4.03673867794897       -0.32138636461736
N          -13.19053523832953       -2.37844273719853       -0.19368069183496
C          -13.25817812035132       -0.06405246756391       -2.06595706225615
C          -13.28205138944184        1.13267547819248       -2.86805588409001
C          -12.13615903039425        1.12491533693835       -3.61271684359147
C          -11.41838004581698       -0.06419760047603       -3.23542077890996
C           -9.48998883702194       -1.58909369168476       -3.45263935565022
C           -8.31130025160047       -2.02815969078186       -4.14783574570398
C           -7.94712182912653       -3.22748215744657       -3.57294752797868
C           -8.91117178900566       -3.46678157244295       -2.51141705471996
C           -9.75376633566706       -4.75053910132592       -0.56451416140474
C           -9.57690689870798       -5.77830541201481        0.42628182090159
C          -10.64763532277151       -5.67793727703769        1.28505424742132
C          -11.46526780018351       -4.59463968445841        0.77751623916687
C          -13.54971387561614       -3.26863315141856        0.76886975511194
C          -14.91125183474769       -3.03522237237642        1.19224843480455
C          -15.35387808590647       -1.95275901728651        0.48612826812963
C          -14.25421364350238       -1.54767214158220       -0.36288448559342
C          -14.28281855512274       -0.46394584071848       -1.22147959005521
H          -15.19578684582756        0.11485622224934       -1.25025528043526
C          -10.19721904442387       -0.43793372704009       -3.76631142805182
H           -9.76992786692724        0.21500273005964       -4.51280143131144
C           -8.88013880002458       -4.52573158776006       -1.62093331435115
H           -8.08185114489948       -5.24305311538555       -1.74225326093199
C          -12.71431257104323       -4.25385144034536        1.27417558920830
H          -13.08556464918973       -4.82159951771704        2.11693500872240
C          -11.69162944065928        2.11404848872428       -4.63790693514306
H          -12.44180470475622        2.88977054367858       -4.76198043356048
H          -11.54215671732646        1.62931144766990       -5.60284514289164
H          -10.75077765760117        2.58522639974812       -4.35072453575784
C          -14.35442785819985        2.16860862812464       -2.82781327565230
H          -14.73897356847379        2.27991239603021       -1.81625692640014
H          -15.18657700891839        1.89622012896257       -3.47789159201951
H          -13.96718059788432        3.13067666521004       -3.15299092893275
C           -7.68441285019681       -1.28593052457866       -5.27888776237562
H           -7.68614790691388       -0.21407048237020       -5.08743591194460
H           -8.24461905080919       -1.45856678454908       -6.20090211380035
H           -6.65801883461334       -1.60370880782401       -5.43430708825659
C           -6.82989061088543       -4.08544163968642       -3.88113460923080
H           -6.46648147332173       -4.68225521286703       -3.04983519964770
C           -6.23630922361740       -4.21428250434191       -5.05114281153515
H           -6.56546040908162       -3.68655250501443       -5.92934116727809
H           -5.39313953098180       -4.87079567566924       -5.18735102173326
C           -8.37782978613433       -6.65681458513443        0.54561885500342
H           -7.46842350120487       -6.08118313040548        0.37242748028198
H           -8.40246313907253       -7.46755502389458       -0.18340161136041
H           -8.32722643073266       -7.09006569629371        1.54144062520632
C          -10.92854864839523       -6.40383348621257        2.50517456669376
H          -11.34329089925229       -5.79376207758628        3.30475190019804
C          -10.74017410252794       -7.68532257275733        2.73080010777963
H          -10.36481174686348       -8.36013618292676        1.97988785914539
H          -10.96905717390153       -8.12672943181896        3.68804841582758
C          -15.70556453231318       -3.91490869232134        2.10004353347443
H          -15.19770130804139       -4.09760706024295        3.04546848763527
H          -15.87275640348827       -4.88019869955184        1.61924270368756
H          -16.67447518420578       -3.46869212464322        2.30768914391411
C          -16.70384431420456       -1.31812097305317        0.54135919519932
H          -17.12112099313225       -1.39157933100613        1.54335244727384
H          -17.39169221503282       -1.81397642779726       -0.14615760506626
H          -16.65838342858497       -0.26669954586583        0.26938169848097
O          -10.57376799441789       -1.10884958825238       -0.11480164227532
H          -10.69597430883231       -0.21177619796162       -0.43748955455321
H           -9.97669938688550       -1.27055053001063        0.61357517749123
C          -14.82449264149849       -6.25365045032947       -3.98398908203676
H          -14.39616149645671       -7.21651387652554       -4.25862481308208
H          -15.42434893625965       -5.89493987804283       -4.81964205300189
H          -15.47164397388611       -6.39283002192599       -3.12473003000569
N          -12.78175155595942       -4.91549144717986       -4.54037626925084
H          -12.68632365353251       -5.26584236594468       -5.47987412679620
C          -13.75878639121196       -5.27427655053214       -3.65081841801402
C          -11.99200819982097       -3.99943231383067       -3.93946053947715
H          -11.13721510954082       -3.55848801534842       -4.40820066218955
N          -12.41049150427796       -3.75078833887150       -2.72149739794581
C          -13.50510139478293       -4.54191520606032       -2.52498978601397
H          -14.02936344285836       -4.52826982276101       -1.59223876444508
78
 energy: -116.047237993853 gnorm: 0.027721912062 xtb: 6.7.1 (edcfbbe)
Fe         -11.52886751320536       -2.46078682104126       -1.36762656649948
N          -12.13311541553850       -0.79106739800749       -2.32076671019478
N           -9.85928477405048       -2.48804293398406       -2.48923813127056
N          -10.88698244143483       -4.02993759750052       -0.33194409328316
N          -13.19881875525411       -2.39614840016496       -0.22684704750543
C          -13.27273979937350       -0.08423959302852       -2.08647521373840
C          -13.28838037374524        1.12975887652755       -2.87543740974226
C          -12.14531708144969        1.12302113012758       -3.61404078669003
C          -11.42906296453078       -0.07755785606017       -3.24675161515187
C           -9.51186577799099       -1.60087871465460       -3.46309746490599
C           -8.32088171400841       -2.03572188085998       -4.14855840455989
C           -7.95149900980881       -3.22501870178517       -3.56951132916936
C           -8.91775787350395       -3.46847698061818       -2.50698055539160
C           -9.74872057312725       -4.74010576862289       -0.56641663155408
C           -9.57490197250112       -5.76715400258863        0.43298762398400
C          -10.64318368098530       -5.66451157060451        1.28317794992877
C          -11.46518160677025       -4.58361031275161        0.76720258010709
C          -13.55019107066396       -3.28094526912850        0.74505747245064
C          -14.91360991354471       -3.04394213675371        1.17344401055952
C          -15.35575605636434       -1.96236721186856        0.47566204389918
C          -14.26275170989378       -1.56577302056473       -0.39308308730873
C          -14.29227313321863       -0.47199616494842       -1.23677510710082
H          -15.18925083531571        0.13540295835551       -1.23403843418032
C          -10.21163313687024       -0.44855362933690       -3.78149880431162
H           -9.78504132610131        0.20348875479669       -4.52870876506130
C           -8.87189461744717       -4.52522162162407       -1.61745261495689
H           -8.06637342404882       -5.23615178667614       -1.72995628332420
C          -12.71711128152074       -4.25962621630008        1.25979155232077
H          -13.09099238822335       -4.83710297265308        2.09425600314284
C          -11.69167080926023        2.11337371024876       -4.63051438397765
H          -12.43477972818811        2.89486689001985       -4.75984389655425
H          -11.54105546949758        1.62763053866290       -5.59372144649041
H          -10.74907461551522        2.57642324649245       -4.34016164811298
C          -14.35745925347904        2.16474714746418       -2.83238785167900
H          -14.74019969107565        2.27887600357470       -1.82131149035530
H          -15.18984541255075        1.89227447671679       -3.48104938799332
H          -13.97429537976933        3.12735368766722       -3.16063120982023
C           -7.68182814216924       -1.28840586328870       -5.26674402587223
H           -7.69165910869714       -0.21763901375717       -5.07366071473394
H           -8.22488523035275       -1.46233173824706       -6.19811401233022
H           -6.65185011968957       -1.60034547620920       -5.40686261706351
C           -6.82855472012880       -4.08397652373775       -3.87504041654450
H           -6.46769509224735       -4.67683970228139       -3.04229357715305
C           -6.23509084068924       -4.21923614951579       -5.05432927056937
H           -6.57464214647289       -3.71109490322367       -5.93945871763098
H           -5.39207728606459       -4.87488638127706       -5.18908072017637
C           -8.38602152377712       -6.65439799827328        0.54734464225785
H           -7.47280108357585       -6.08695794453607        0.37339519483849
H           -8.42019761263605       -7.46342863649834       -0.18210345831256
H           -8.33876741468320       -7.09167651847675        1.54090802364487
C          -10.93174248900528       -6.39344062745750        2.50466555770394
H          -11.36080756720322       -5.78773736928366        3.29738536638624
C          -10.72352323846796       -7.68426077797908        2.72411593187959
H          -10.35240794050738       -8.35200489062257        1.96676037258107
H          -10.95894301769627       -8.13708493432151        3.67352074300041
C          -15.69238507797930       -3.91062962682864        2.10408646632324
H          -15.16990495311462       -4.07913922236533        3.04312948073840
H          -15.86613562554586       -4.88255384643149        1.63965297660187
H          -16.65988428747923       -3.46604656242272        2.31940698571872
C          -16.69785403298573       -1.32128725236104        0.54045258966813
H          -17.11435076449333       -1.39616369604069        1.54228211801571
H          -17.38768457402930       -1.81114149841228       -0.14798627439804
H          -16.64848186774051       -0.27014260920336        0.27208501945161
O          -10.60793680455244       -1.09373671823911       -0.02943389887280
H          -10.61854754388531       -0.18651360751756       -0.38621569006501
H           -9.92659227824052       -1.25509029905198        0.64108899926512
C          -14.82114075366087       -6.25282624850214       -3.97871590467105
H          -14.39068648390104       -7.21439054400920       -4.25232302210303
H          -15.42373245189177       -5.90131034945306       -4.81506102035427
H          -15.46902451343204       -6.39262382920624       -3.12131900223576
N          -12.78560802781551       -4.91124527497713       -4.53832387823537
H          -12.68465420488232       -5.26904586556901       -5.47493879888364
C          -13.76146149148583       -5.26762162741820       -3.64650340460572
C          -12.00266065708622       -3.98430500909120       -3.93980069974426
H          -11.15234584151591       -3.53979708102457       -4.40996973818863
N          -12.41778860074648       -3.73236972755587       -2.72292305230456
C          -13.50839221813361       -4.52763346951294       -2.52511126456290
H          -14.03143179151111       -4.51791944434708       -1.59272015397253
78
 energy: -116.048929464277 gnorm: 0.055556275943 xtb: 6.7.1 (edcfbbe)
Fe         -11.53713807150686       -2.45916067544030       -1.37252895153502
N          -12.14046026860824       -0.80044328858061       -2.32749659203138
N           -9.86728220955184       -2.48836805624698       -2.48019899584855
N          -10.88390764673984       -4.01997150156152       -0.33910545233176
N          -13.20834419390660       -2.41592611607622       -0.26266426842808
C          -13.28053815806489       -0.09695738722257       -2.09712112376002
C          -13.29520530736144        1.12311911791662       -2.88171237936177
C          -12.15235251812462        1.11897268379463       -3.61429145323497
C          -11.43918412311132       -0.08984387301910       -3.25341471121455
C           -9.52918558601778       -1.61077754667461       -3.46800105308377
C           -8.33454706874807       -2.04476984788298       -4.15003741125220
C           -7.95876884634419       -3.22411176394300       -3.56410037265364
C           -8.92154329987045       -3.46543996305915       -2.49823201457620
C           -9.74240065515857       -4.72755231318116       -0.56426198435698
C           -9.57290030392897       -5.75485078843429        0.43936405145672
C          -10.64350105276649       -5.65127309384132        1.27987971974979
C          -11.46620118569792       -4.57411484344599        0.75403093465707
C          -13.55446584142785       -3.29779205557792        0.71249743832740
C          -14.91406320098840       -3.05531416235231        1.15225345963916
C          -15.35632683787902       -1.97433485572980        0.45969476236891
C          -14.26876226487543       -1.58219325757427       -0.41807208857671
C          -14.29819330481184       -0.47663954275230       -1.24543060596443
H          -15.18088741303066        0.14799749396213       -1.22197918093057
C          -10.22702052198359       -0.46113899572520       -3.79671305863298
H           -9.80604314529813        0.18386558990897       -4.55328615624896
C           -8.85940780748825       -4.51987334100766       -1.60860623817607
H           -8.04787852512644       -5.22472666706629       -1.71422528261351
C          -12.72483299786518       -4.27021747855853        1.23722039976247
H          -13.09985942451011       -4.85608354852102        2.06407998825970
C          -11.68691337883414        2.11101993184554       -4.62359074300450
H          -12.42339803227949        2.89976213294961       -4.75549775744356
H          -11.53508452729153        1.62501381807048       -5.58716975046507
H          -10.74249908841243        2.56577100674955       -4.32487739797375
C          -14.36589775884461        2.15744866564664       -2.83951901533296
H          -14.74323810033691        2.27967535724267       -1.82649860883386
H          -15.20141998873790        1.87966190975437       -3.48319961850284
H          -13.98457167222846        3.11923712698384       -3.17676621204490
C           -7.67917052811680       -1.29141689416592       -5.25457777432810
H           -7.69867367941812       -0.22087193200611       -5.05663675808900
H           -8.19900320892818       -1.46637078288192       -6.19974700813535
H           -6.64318069687839       -1.60038953022390       -5.36901486992181
C           -6.83504849668373       -4.08543033486018       -3.86680468062534
H           -6.46026568109850       -4.66304965762127       -3.03185141324813
C           -6.24839042531493       -4.23259807679486       -5.05470029958920
H           -6.58950611673717       -3.72809824252898       -5.94026918959796
H           -5.39766409409012       -4.88092635646248       -5.18131324034928
C           -8.39227023383841       -6.65334183248267        0.54865426447906
H           -7.47199008941130       -6.09684992590302        0.37422235195046
H           -8.44222735483848       -7.45979580428543       -0.18398116765908
H           -8.35068419175876       -7.09509025607691        1.54154527249762
C          -10.94329429309265       -6.38320514472514        2.49750541659037
H          -11.38255307427211       -5.78842248931657        3.28931495249077
C          -10.72086525570244       -7.67887469880848        2.70668004104190
H          -10.32019922149985       -8.32711807277992        1.94777254543679
H          -10.94329773946967       -8.13868697899926        3.65562851386358
C          -15.67343791308513       -3.90712386361357        2.11252704842184
H          -15.12770847695293       -4.05186585089054        3.04379373712744
H          -15.85399206332657       -4.89036971963072        1.67198843589377
H          -16.63842742545610       -3.46053823574849        2.33962818946012
C          -16.69377302986955       -1.32421479133102        0.53486406812226
H          -17.10660383067950       -1.40593201151715        1.53864704895099
H          -17.38918118372716       -1.80314970529369       -0.15667170003500
H          -16.63589828908834       -0.27018344823316        0.27709816157744
O          -10.65897913665560       -1.07354339871388        0.07086121320765
H          -10.54273302364584       -0.17248261168156       -0.32761029294485
H           -9.85242705508241       -1.23103633962373        0.64015453661902
C          -14.81968813754657       -6.25394714437329       -3.97179356254742