78
 energy: -116.058077964274 gnorm: 0.000065955679 xtb: 6.7.1 (edcfbbe)
Fe         -11.55667432002194       -2.46384776966916       -1.34382255442666
N          -12.16028584372974       -0.80876980814266       -2.31832908128990
N           -9.86716022616666       -2.47837253971685       -2.44485427412150
N          -10.92250063031383       -4.06727545330990       -0.34369718189023
N          -13.20363751567890       -2.40005847463784       -0.22623118279543
C          -13.33327123324266       -0.14306034666559       -2.14595859301258
C          -13.42935619717741        0.96970003494254       -3.06285366002827
C          -12.28498560146832        0.96020693162028       -3.79897176421560
C          -11.50682897187180       -0.16135814277077       -3.32394286224094
C           -9.52022400188063       -1.60449398756796       -3.43273121604979
C           -8.26329843373565       -1.97534965143337       -4.02657203820026
C           -7.85474079082899       -3.11540227640213       -3.38369619798336
C           -8.87261831740148       -3.40345996188055       -2.39361730036199
C           -9.77859595687689       -4.77013324257491       -0.56538628968779
C           -9.67723322078257       -5.88591995014225        0.34223239655333
C          -10.79842869240384       -5.84516093222798        1.12649347848056
C          -11.55740064626301       -4.69289423222284        0.67743000491868
C          -13.53908704385456       -3.25284144825692        0.77537932031922
C          -14.82174918822814       -2.89721146143981        1.34492867822787
C          -15.25358120496637       -1.80758050639809        0.65758883224354
C          -14.22783450301351       -1.51277935061107       -0.32071177707581
C          -14.30396452263279       -0.46298469339367       -1.21519971512132
H          -15.18615164443232        0.15779152582446       -1.18338981537141
C          -10.27589783294891       -0.51683405977760       -3.84079013680018
H           -9.88370288277962        0.08754458135585       -4.64445543772249
C           -8.82934522129653       -4.47935916167254       -1.52849685876477
H           -7.98739154593997       -5.14926020385489       -1.61142427039953
C          -12.78169133259671       -4.32553813253871        1.20423581687666
H          -13.18066526505418       -4.92475028767855        2.00851717725067
C          -11.85341623320943        1.88335820741531       -4.88692073190832
H          -12.60231983052169        2.65193410832602       -5.06099550523693
H          -11.70076359579065        1.33682719433175       -5.81815619055558
H          -10.91475282266870        2.37303231192113       -4.62588145839276
C          -14.58646581461809        1.90631598501114       -3.12931488905918
H          -14.72232747081518        2.41580215394191       -2.17504524738022
H          -15.50483688042928        1.36439532657039       -3.35595925407827
H          -14.43310704942566        2.65810883348302       -3.89970666950013
C           -7.54988091446350       -1.20051496144374       -5.07952231003906
H           -7.67621453597096       -0.13002707742818       -4.92378987218427
H           -7.93273973792232       -1.44420298616201       -6.07221315511057
H           -6.48696128450491       -1.43228004716745       -5.05643538989915
C           -6.65176795595609       -3.89302562338371       -3.58035831200473
H           -6.24768288081830       -4.36271461538219       -2.69109861292191
C           -6.02997762284563       -4.07413861265302       -4.74107033594793
H           -6.40982063452276       -3.67309017976001       -5.66449649927886
H           -5.12665939648424       -4.65717355202107       -4.81064982400950
C           -8.52275998342668       -6.82243494656809        0.42497805172521
H           -7.58350100874911       -6.28959350198593        0.28411488005642
H           -8.59130035817646       -7.59451289546485       -0.34329381230532
H           -8.50467857638449       -7.30689138024469        1.39903272433669
C          -11.18890522244800       -6.71707946480064        2.21230782145820
H          -11.72580129505655       -6.24069683668617        3.02442204252557
C          -10.94860945084794       -8.02265575068247        2.27735133352886
H          -10.46193334953970       -8.55593297059667        1.47934036605590
H          -11.25611209037473       -8.61078271465076        3.12617880670278
C          -15.47466341312312       -3.62812447516051        2.46744955321115
H          -14.84246528529379       -3.60723550122839        3.35526992023052
H          -15.64625390366450       -4.67093956715404        2.19914285949632
H          -16.43166816942360       -3.17724682300523        2.71836019605252
C          -16.50920520355141       -1.02195120513600        0.82253909126979
H          -17.12443487003797       -1.43843930305477        1.61627893643713
H          -17.08949661121312       -1.02774141746142       -0.10050342760356
H          -16.28238633580407        0.01462062426169        1.07290162792443
O          -10.44755828696582       -1.05098833977605        0.08368273071502
H          -10.79338311398899       -0.20785993838378       -0.22904261682346
H           -9.55298345062578       -1.13635300219699       -0.26360075676323
C          -14.50697110102162       -6.42531753535196       -3.92720212939602
H          -13.96071531297638       -7.14930217330505       -4.53167920095274
H          -15.40069762407213       -6.12840157016849       -4.47590614421659
H          -14.80962029120368       -6.90348049507729       -3.00099063113794
N          -13.13158018278516       -4.44414817634897       -4.60153117253544
H          -13.25764059969013       -4.56586246001617       -5.59292216149587
C          -13.65821123479519       -5.24571064888340       -3.62279997328326
C          -12.41507768308297       -3.47222088082179       -3.99346280542042
H          -11.88915905887850       -2.69932584081017       -4.51462560239440
N          -12.45623074703528       -3.60931375737010       -2.69049613363272
C          -13.22626075407869       -4.70810299794246       -2.44427510149068
H          -13.41573798312935       -5.03612751829290       -1.44307851208903
