87
 energy: -128.467297356662 gnorm: 0.000096303867 xtb: 6.7.1 (edcfbbe)
Fe          75.33637805327849      101.04502275307813       96.43778577276034
N           76.88302710657084      101.86169087237482       97.41636558922009
N           74.58965728468897      100.38955914350551       98.17782178458998
N           73.79971364473683      100.20169940839446       95.46379464146801
N           76.06973533789576      101.72594411011330       94.70454344773967
C           77.95527272046007      102.49041054214933       96.86651051450291
C           78.87964172067605      102.91736498551047       97.89466761991000
C           78.33040599839012      102.54135244633052       99.08029638683416
C           77.08533392907719      101.87805685936760       98.75838850878182
C           75.08391768981153      100.62449884702868       99.42120613981952
C           74.25093323070659      100.00438408788767      100.42781311375356
C           73.24744177118811       99.37609305962761       99.75809155326883
C           73.47587269909417       99.63183178945081       98.35287690292475
C           72.81266159625940       99.44027793990402       95.99719731303003
C           71.92657336849093       98.94890152688765       94.95901068244400
C           72.40686139944043       99.46075389760500       93.78139181327380
C           73.57105724920723      100.23656574300095       94.12279714826538
C           75.48502450599764      101.63792564834993       93.48269224188232
C           76.30007349281301      102.29721327966925       92.47936787248953
C           77.41687372735610      102.74022369321563       93.13564487003282
C           77.23945916065556      102.39269616927461       94.52131201263622
C           78.13921973937809      102.73093244745240       95.51911479563051
H           79.04060733945224      103.24573690093659       95.22159639635152
C           76.24280677264470      101.32369978912392       99.70503759800982
H           76.52182027355411      101.42671811446365      100.74307812584550
C           72.65597189710509       99.16234723291757       97.34348326647643
H           71.82415672607742       98.53782037883060       97.63287121116272
C           74.34197710669491      100.91708925267338       93.19526987184437
H           74.04911984197568      100.85223760105548       92.15864772040912
C           80.16110975968896      103.63214576769444       97.63096813923401
H           79.97421974031219      104.58792390661725       97.14024581905338
H           80.80375259682310      103.03909282525186       96.97976597498743
H           80.69628483810921      103.82338235478613       98.55808432671969
C           78.84873119554534      102.73380649445866      100.46497108020094
H           79.00342448438607      101.77228301425683      100.95593220362112
H           78.13959652425156      103.30689357567530      101.06281586507333
H           79.79594938388635      103.26774495115440      100.45343547407290
C           78.57747561599240      103.49408970191590       92.58310512497282
H           79.51433412054975      102.99808954323596       92.83833684840894
H           78.60997790946205      104.50509072116684       92.99155800153341
H           78.50605892526988      103.56832430027896       91.50074089889921
C           75.99538261834277      102.46384916484622       91.07389608394631
H           76.84466534156724      102.38888040610163       90.40245213944900
C           74.79792565447836      102.73658482623580       90.56713019218317
H           73.93248039381051      102.87652227176486       91.19251075921684
H           74.64693174711047      102.85434075876056       89.50659406182106
C           71.83109248098310       99.33175592005634       92.41397221454510
H           72.33906638098792       98.54791377500240       91.84933922016189
H           71.93602740859515      100.26399583336531       91.86118993508363
H           70.77407306058700       99.07970438231048       92.47543372737299
C           70.76733278508124       98.11713628188603       95.18909981599037
H           70.26256156234800       98.26855980350209       96.13675777231947
C           70.29315772158888       97.19842170461614       94.35294200198982
H           70.77752434359786       96.96676371682756       93.42071206287022
H           69.41226314647477       96.62395551110453       94.58824627315248
C           72.10999989903732       98.57553986487711      100.29503368105290
H           72.12864767230910       97.56356506780195       99.88963232151366
H           71.15668089881517       99.02976148106021      100.02241375782619
H           72.15944384449345       98.51055636666258      101.37940633514106
C           74.50725810557864      100.07630039763228      101.89490207779430
H           75.46556972198367       99.61771133894175      102.14170135894915
H           73.72853352153798       99.55888329005630      102.45017669137533
H           74.53498401337785      101.11389949383495      102.22847416104291
C           77.77290614788129       96.40007099192933       94.50623431662379
H           77.39993509973802       95.44419939358593       94.87438473354561
H           78.86191740299317       96.35613191018834       94.48616070762247
H           77.41158068743295       96.54723238355827       93.49325804922678
N           77.62188731595477       97.60351632407362       96.69771179943346
H           78.18281820020341       96.94571801888543       97.21357492006968
C           77.30491336846693       97.51601312841834       95.36692070607917
C           77.04331687516458       98.72567423324278       97.18261066544632
H           77.12128214563867       99.05068525399287       98.19947079474386
N           76.38111628897764       99.35216108993492       96.24196916058750
C           76.53460203677380       98.61272539923948       95.10678064922280
H           76.08299014735148       98.91700114598828       94.18543232684588
C           73.67090044179830      106.37775122939146       96.62781415503387
H           73.39048628026997      106.79388638729992       97.59556107612397
H           72.94042007493991      106.70934954346639       95.88975499722061
H           74.64576736956272      106.76676349417498       96.35096699973104
N           72.63752300418999      104.12961713528634       97.01543310810629
H           71.72040749410490      104.47737806681518       97.24227972354591
C           73.72614570728969      104.89490304811815       96.68638148055086
C           73.02190306357913      102.83356607624229       96.97544213545775
H           72.37474716734167      102.00823960471331       97.18931925052870
N           74.28462593436358      102.73224693430529       96.64200098228444
C           74.73667566159794      104.00543495045154       96.45921223841151
H           75.75201928375328      104.19421692275942       96.17867370675906
