78
 energy: -115.972963134300 gnorm: 0.260155975643 xtb: 6.7.1 (edcfbbe)
Fe          20.84400000000000      -28.21500000000000        3.73200000000000
N           21.61700000000000      -30.03700000000000        3.17500000000000
N           21.89000000000000      -27.32100000000000        2.25200000000000
N           20.20500000000000      -26.36400000000000        4.37500000000000
N           19.90600000000000      -29.11700000000000        5.29500000000000
C           21.32600000000000      -31.25500000000000        3.73200000000000
C           21.94000000000000      -32.28800000000000        2.93000000000000
C           22.58200000000000      -31.69400000000000        1.91900000000000
C           22.38800000000000      -30.27100000000000        2.06100000000000
C           22.63300000000000      -27.96300000000000        1.28100000000000
C           23.13000000000000      -26.98000000000000        0.34700000000000
C           22.70500000000000      -25.77800000000000        0.75900000000000
C           21.91500000000000      -25.97300000000000        1.95800000000000
C           20.57900000000000      -25.14900000000000        3.85100000000000
C           20.10500000000000      -24.10900000000000        4.73500000000000
C           19.45800000000000      -24.70800000000000        5.75000000000000
C           19.51100000000000      -26.13200000000000        5.53500000000000
C           19.20700000000000      -28.44000000000000        6.29100000000000
C           18.77800000000000      -29.36000000000000        7.30400000000000
C           19.29100000000000      -30.70900000000000        6.85300000000000
C           19.97700000000000      -30.47000000000000        5.60900000000000
C           20.57900000000000      -31.44800000000000        4.86400000000000
H           20.45200000000000      -32.47600000000000        5.20300000000000
C           22.87400000000000      -29.31300000000000        1.21300000000000
H           23.51700000000000      -29.65600000000000        0.40200000000000
C           21.29600000000000      -24.97700000000000        2.68600000000000
H           21.38200000000000      -23.96000000000000        2.30400000000000
C           18.95499999999999      -27.09600000000000        6.33600000000000
H           18.23900000000000      -26.75700000000000        7.08500000000000
C           23.38700000000000      -32.37500000000000        0.79300000000000
H           23.21800000000000      -33.47200000000000        0.82800000000000
H           24.47100000000000      -32.17300000000000        0.93200000000000
H           23.05200000000000      -31.98999999999999       -0.19400000000000
C           21.83200000000000      -33.80300000000000        3.21100000000000
H           20.94600000000000      -34.21600000000000        2.68300000000000
H           21.71400000000000      -33.97499999999999        4.30200000000000
H           22.74400000000000      -34.31900000000000        2.84200000000000
C           24.00100000000000      -27.31300000000000       -0.88400000000000
H           23.62900000000000      -28.24500000000000       -1.36000000000000
H           25.05500000000000      -27.46600000000000       -0.56800000000000
H           23.94200000000000      -26.48400000000000       -1.62100000000000
C           22.94700000000000      -24.39700000000000        0.11900000000000
H           22.12100000000000      -23.67600000000000        0.03500000000000
C           24.14800000000000      -24.03500000000000       -0.34800000000000
H           25.00300000000000      -24.72500000000000       -0.28500000000000
H           24.29500000000000      -23.04300000000000       -0.80100000000000
C           20.32700000000000      -22.60100000000000        4.49900000000000
H           19.36000000000000      -22.12000000000000        4.23900000000000
H           21.03900000000000      -22.45300000000000        3.65900000000000
H           20.72600000000000      -22.13100000000000        5.42300000000000
C           18.76100000000000      -24.08700000000000        6.97900000000000
H           18.26600000000000      -24.74700000000000        7.70700000000000
C           18.72100000000000      -22.77400000000000        7.21700000000000
H           19.19900000000000      -22.06600000000000        6.52400000000000
H           18.21000000000000      -22.38400000000000        8.10900000000000
C           17.97800000000000      -29.04700000000000        8.58000000000000
H           16.99800000000000      -28.60200000000000        8.30400000000000
H           18.54000000000000      -28.32200000000000        9.20700000000000
H           17.80000000000000      -29.98400000000000        9.15000000000000
C           19.13400000000000      -32.03600000000000        7.60700000000000
H           18.19300000000000      -32.53300000000000        7.29000000000000
H           19.08900000000000      -31.84400000000000        8.70000000000000
H           19.99100000000000      -32.70400000000000        7.37400000000000
O           22.39000000000000      -27.90600000000000        5.09100000000000
H           22.31200000000000      -26.99600000000000        5.37700000000000
H           23.00400000000000      -28.49100000000000        5.35900000000000
C           15.95000000000000      -27.83200000000000        0.90700000000000
H           15.17400000000000      -28.53400000000000        1.28100000000000
H           15.95300000000000      -27.85600000000000       -0.20400000000000
H           15.71100000000000      -26.80700000000000        1.26400000000000
N           17.83900000000000      -29.48100000000000        1.14700000000000
H           17.41400000000000      -30.17100000000000        0.56100000000000
C           17.29200000000000      -28.24800000000000        1.42600000000000
C           18.99800000000000      -29.59600000000000        1.77200000000000
H           19.64600000000000      -30.47000000000000        1.71500000000000
N           19.21600000000000      -28.48800000000000        2.45700000000000
C           18.16000000000000      -27.63200000000000        2.26400000000000
H           18.12600000000000      -26.66200000000000        2.74300000000000
78
 energy: -116.025634252570 gnorm: 0.105528787467 xtb: 6.7.1 (edcfbbe)
Fe          20.83956540862561      -28.21763515507550        3.72311250343741
N           21.60984239720895      -30.03499296415348        3.16974283423024
N           21.88531667526274      -27.31662023802825        2.24492056144736
N           20.22194342941548      -26.36963104068455        4.38742524069804
N           19.91114898652565      -29.11308738018085        5.29395446735937
C           21.32369892334972      -31.24994957457420        3.72733941531730
C           21.93736771953481      -32.30157962809282        2.93790096004178
C           22.58957413530536      -31.70013745918055        1.91444107435980
C           22.38375669429156      -30.27446618131573        2.06776897715166
C           22.63153993072473      -27.94660986659223        1.28246730064484
C           23.14105962031059      -26.97257616127794        0.33869786721566
C           22.69992985478249      -25.75469792895862        0.74864631253197
C           21.90518270029630      -25.97873653566389        1.94705737476431
C           20.57360072635559      -25.15414382751085        3.86396640565290
C           20.09629863289248      -24.09711541868952        4.73309823855894
C           19.43387932742232      -24.69891427420838        5.76531001938546
C           19.50628008194046      -26.12966046649777        5.52821066900850
C           19.20240589071539      -28.47216995873086        6.28246036263355
C           18.78203166848341      -29.40624883664551        7.29154556621946
C           19.27312761896362      -30.67315520923745        6.87497642009351
C           19.95776561341330      -30.44598064181817        5.62684805504254
C           20.57020437317799      -31.43712189216372        4.87120422816719
H           20.44917185365911      -32.46146980039030        5.20908866697264
C           22.87346306415808      -29.30687885013118        1.21323280979743
H           23.50942690143655      -29.65143554282616        0.40432067322644
C           21.29220151792553      -24.98287670289758        2.68770230808000
H           21.39163525024917      -23.96955871564617        2.31258271915872
C           18.95237264519932      -27.10821863207464        6.33407976350100
H           18.26275249976543      -26.76790293613148        7.09969522052290
C           23.37794391136152      -32.36552350527928        0.80541665833715
H           23.22008918881114      -33.44856059384377        0.82767172243012
H           24.44998298290564      -32.17061856088371        0.92739044418167
H           23.06017900945563      -31.99238084038839       -0.17438894046999
C           21.83062586207268      -33.78740941400638        3.21146675924519
H           20.95929463349301      -34.20771534675247        2.69381817107439
H           21.71896063010285      -33.97392035020187        4.28317362175692
H           22.72575923363636      -34.30697247889630        2.85421352481297
C           23.98900053111723      -27.30986518212776       -0.87043974041143
H           23.63298405691430      -28.22903167887859       -1.34888303136170
H           25.03371389322554      -27.46143833430504       -0.57294238042737
H           23.94309664808129      -26.49677578077496       -1.60200202676169
C           22.95327007546947      -24.41862862160238        0.12658276839500
H           22.12468031403896      -23.71393203231662        0.05548391868961
C           24.14005324562097      -24.04757041255206       -0.34388740473814
H           24.99645766421860      -24.70855776642727       -0.28388701779027
H           24.29160474318739      -23.06829646516409       -0.79073202998815
C           20.32777153755399      -22.61982604513754        4.49358809387319
H           19.37859831428516      -22.12947541989119        4.24161098876348
H           21.02928800934669      -22.45865942383511        3.67105700521904
H           20.73837548158385      -22.14488577497737        5.39144152631923
C           18.77205053743811      -24.08638149182763        6.95553715043193
H           18.29075447985986      -24.75621316886552        7.66783817021896
C           18.71991043626075      -22.78192410766078        7.21277603423019
H           19.17180798528326      -22.06034036700692        6.55133131607307
H           18.21824212499348      -22.39768161931355        8.09505181058547
C           17.99787507554633      -29.06628260522716        8.54628922689932
H           17.02549246231451      -28.61773402895988        8.29811358308804
H           18.53583559191634      -28.34627528819547        9.17964278910808
H           17.80788339323077      -29.96870782588877        9.13575759175006
C           19.13118966132231      -31.99912607557297        7.59490661212912
H           18.20917728891400      -32.51527668842002        7.29314756999744
H           19.09025549423006      -31.84386321808184        8.67821990760446
H           19.97134546893938      -32.67185192973722        7.37787071313269
O           22.39890026784968      -27.88876805421745        5.08004416476889
H           22.33530532256680      -26.98914302496420        5.40000926067787
H           23.04231529812138      -28.50185356769640        5.38494630495373
C           15.94982775654597      -27.83527859585898        0.90611169279083
H           15.17578897097861      -28.52098840835919        1.27034788694554
H           15.94401760827761      -27.85107139231678       -0.18983537452095
H           15.71572375684676      -26.82568499573555        1.25383395359599
N           17.82408836081008      -29.47785095325228        1.13768999497758
H           17.40051202647784      -30.17264192750282        0.54838631579078
C           17.28067982165556      -28.25204774312293        1.42739759877720
C           18.99568843223273      -29.58400724149117        1.77762070147454
H           19.63704078468556      -30.44750714868973        1.72091926800021
N           19.22772161741619      -28.48898587493657        2.46777789531675
C           18.16945145693536      -27.64581126174464        2.26401648891434
H           18.13584441047660      -26.68108554773293        2.73570172591773
78
 energy: -116.040777228008 gnorm: 0.037017829887 xtb: 6.7.1 (edcfbbe)
Fe          20.83542178926675      -28.21819904553901        3.71889545709090
N           21.59842851351068      -30.02829464495492        3.16516279311577
N           21.87008543037856      -27.31715513222898        2.23376692923826
N           20.22438823299723      -26.37681532838976        4.39199160129752
N           19.90834232974505      -29.11004243438961        5.28830482594075
C           21.31754816448831      -31.23866132605973        3.72455453806928
C           21.93205966190765      -32.30230759141853        2.94765689833622
C           22.59057177337539      -31.69745019590081        1.91672445838258
C           22.37394212973034      -30.27204844751379        2.07379305029744
C           22.62251382967552      -27.93750592239066        1.28387336322445
C           23.14825594351249      -26.97082474363809        0.34034664897443
C           22.69341874908799      -25.74405745991600        0.74668410390594
C           21.88915780270835      -25.98847453228462        1.93877188264403
C           20.56949597139587      -25.16414564003211        3.87248171816345
C           20.09088683137217      -24.09668949835734        4.72470159193956
C           19.41474744412711      -24.69685176847663        5.76748216547844
C           19.50398312400537      -26.13192999836547        5.52133289400258
C           19.20129620207587      -28.48798280057396        6.26996505690571
C           18.78500955671273      -29.44060365131137        7.27631385498256
C           19.25446576843252      -30.64297903846061        6.88483329885651
C           19.94514128659457      -30.42738316602276        5.63039384508152
C           20.56286227297845      -31.42359268045043        4.87501956189718
H           20.44782144763087      -32.44359839656741        5.21622752973649
C           22.86660118623355      -29.30224336680379        1.21341708957444
H           23.49970528800700      -29.64757006783296        0.40792390285298
C           21.28941096540858      -24.99145598845631        2.69146362267053
H           21.40626937984700      -23.97978523684236        2.32648062551012
C           18.95873653983379      -27.11692624404455        6.33547540651593
H           18.29951411453051      -26.77940390076491        7.12461724378250
C           23.36843847085039      -32.35135018335292        0.82137823820911
H           23.21757082577191      -33.42782709163538        0.83569541414510
H           24.43525018776309      -32.15792590143865        0.93071659687045
H           23.05930383574380      -31.98256379812659       -0.15476881427366
C           21.82835612153493      -33.76753838327268        3.21624136043737
H           20.96448009451163      -34.19386612716579        2.70406911830490
H           21.72065446805637      -33.96604556808651        4.27807027407364
H           22.71499389874360      -34.28876329710881        2.86275037287066
C           23.97867888410977      -27.30434192959110       -0.85337658554278
H           23.62697644766294      -28.21615427223740       -1.33203617476010
H           25.01997535167318      -27.45809563989986       -0.56916770398079
H           23.94007204328915      -26.49734408281065       -1.58094770960797
C           22.95249288721366      -24.44708129367219        0.14254552684283
H           22.11928307476056      -23.75436897924691        0.08948226869060
C           24.13044827309905      -24.06441226015525       -0.33715161328795
H           24.99525989434922      -24.70081283655541       -0.28144842367906
H           24.28023673128427      -23.09413021716661       -0.78308784891650
C           20.32930362780111      -22.64251371868541        4.48599653554113
H           19.39132664575596      -22.13974059441201        4.24449837520795
H           21.02226463600500      -22.47982598844082        3.66746954653438
H           20.75158965524480      -22.16738323941732        5.37015191650150
C           18.77905703809247      -24.09402365026291        6.91836924662973
H           18.31821692843275      -24.77821240095277        7.62153493784154
C           18.71358915586778      -22.79346927095112        7.20217066058402
H           19.14515985088249      -22.04567912139219        6.57021469159606
H           18.22443668444433      -22.42630858112279        8.08909690672907
C           18.01416566628287      -29.08742710919612        8.51356803948246
H           17.05126873264257      -28.63514789645706        8.26752367246210
H           18.55356045959649      -28.36987426719588        9.13618952405742
H           17.82004612771943      -29.97204238423181        9.11473231079633
C           19.12665223618844      -31.96312959696979        7.58499086571120
H           18.21546866969929      -32.48482022755286        7.28325357678190
H           19.08693232331026      -31.82625956338683        8.66382707954402
H           19.96512065653745      -32.62396503747092        7.36745428391602
O           22.44954421767761      -27.86860443683746        5.04561615108352
H           22.38102621550146      -26.99706065812930        5.45185292648729
H           23.06756974308233      -28.50005902649535        5.42300074675490
C           15.95064678224032      -27.83402321450127        0.90753387950691
H           15.17458966766035      -28.51058885413033        1.26236674360953
H           15.94214918220273      -27.84624789248035       -0.18071840615930
H           15.72002672006236      -26.83201039063498        1.24909223242289
N           17.81381586893131      -29.47619094976690        1.13246202959506
H           17.39306586291930      -30.17291774414064        0.53950949697453
C           17.27388490052415      -28.25460891645539        1.43241127950164
C           18.99293598034460      -29.57715123887539        1.78261326474931
H           19.62952499619898      -30.43387128219262        1.72386288732566
N           19.23513319594188      -28.49365827866911        2.47961016992861
C           18.17674006834476      -27.65834376575092        2.26838141025862
H           18.14163428387633      -26.69524059333094        2.73274276318008
78
 energy: -116.045339392473 gnorm: 0.041911486354 xtb: 6.7.1 (edcfbbe)
Fe          20.84138685888619      -28.21720118287654        3.72185559901275
N           21.58878145646640      -30.02130727506922        3.16220365996403
N           21.85074734929503      -27.32442153137139        2.22439023783144
N           20.22230375507869      -26.38436926396346        4.38838301019300
N           19.91233368180710      -29.10488679596218        5.28445842756540
C           21.31141897691634      -31.22960019802644        3.72196195886250
C           21.92815823168207      -32.29396599670913        2.95347784579651
C           22.58644093106194      -31.68989589341130        1.92195326306582
C           22.36459757341165      -30.26737940776006        2.07435963689971
C           22.61039344463558      -27.94075789278543        1.28215870902557
C           23.14687830678091      -26.97606893582887        0.34737337440210
C           22.68884181828792      -25.75047641876226        0.75320430407533
C           21.87433467765833      -25.99867236113669        1.93460645893847
C           20.56530493966617      -25.17420035296786        3.86632216618140
C           20.08870479587137      -24.10415129998393        4.70762699205579
C           19.40952316161074      -24.69901654221955        5.75291268865018
C           19.50267049404960      -26.13401273643629        5.51284526641723
C           19.20159648255159      -28.48090008389295        6.25913361632435
C           18.77707539496132      -29.43455360137289        7.26401276346944
C           19.25306070564528      -30.64215372456084        6.87434087413924
C           19.94488952292025      -30.42204130118553        5.61981504370344
C           20.55935047487388      -31.41720104183399        4.87140287815171
H           20.44838259976444      -32.43426502301007        5.21915222082726
C           22.85771258023729      -29.30291650616731        1.21076298591187
H           23.49214698503983      -29.64787538427850        0.40758926818985
C           21.28627623652043      -24.99985612753870        2.68922117789551
H           21.42357093934640      -23.98691959130480        2.33650331690134
C           18.96603710271754      -27.11437484377247        6.33623038953457
H           18.33675034542285      -26.77955411683731        7.15179843164589
C           23.36490029185993      -32.33771223971273        0.82930561074869
H           23.21737155235328      -33.41430605941154        0.84264844999070
H           24.43075033822791      -32.13843560382833        0.93730157902292
H           23.05376922904569      -31.96645236924698       -0.14519426073675
C           21.82521030780472      -33.75529536645784        3.22572072747791
H           20.96051688763167      -34.18278886728564        2.71562339767995
H           21.72025445850726      -33.95524841060237        4.28770184801441
H           22.71190329999797      -34.27503085887814        2.87079949000087
C           23.97568164991127      -27.30335838421502       -0.84322320423557
H           23.62019027999774      -28.21201775767164       -1.32462405026824
H           25.01713985616111      -27.45981948704938       -0.56160562875199
H           23.93790247194980      -26.49064494483411       -1.56438957925334
C           22.94828872258961      -24.45915086921703        0.15793899856328
H           22.11144975425513      -23.77057254834523        0.12179094659543
C           24.12146509463842      -24.07416576009950       -0.33268688280379
H           24.99270392037657      -24.70254927100049       -0.27928123185250
H           24.26483618486184      -23.10564384864826       -0.78047689742883
C           20.33957021932492      -22.65692885820024        4.46799653936499
H           19.40361695301440      -22.14090286742126        4.24579247417252
H           21.02057411039107      -22.50321229370311        3.63788992391431
H           20.78814166104551      -22.19057024584250        5.34468756810932
C           18.78019457088434      -24.10237896480561        6.90002851473058
H           18.33225378439875      -24.80331002155341        7.59436361165365
C           18.69649590927146      -22.80593698029341        7.20590984733909
H           19.09477923977918      -22.02758628822773        6.58418319955314
H           18.21037788201751      -22.46689456544168        8.10488729316820
C           18.01375647134842      -29.08832481986554        8.49693045227791
H           17.05450612895001      -28.63806171607113        8.24403379618617
H           18.56641658177106      -28.37463887843447        9.10853474945578
H           17.82501809148084      -29.97484661821481        9.09555620017438
C           19.12532529420179      -31.95331957233557        7.57553908441593
H           18.21575335282350      -32.47088840464296        7.26768410762125
H           19.08130239929791      -31.81067860154492        8.65271013620472
H           19.97089388911206      -32.60070501892819        7.35741338796312
O           22.53966462715672      -27.84065382068549        4.98811258323472
H           22.41148451775960      -27.01967740620800        5.52265660893085
H           23.07898474605473      -28.50592470307651        5.47114809033823
C           15.95306957511104      -27.82835432431239        0.91025347072592
H           15.17003694615039      -28.50084919430567        1.25830072635999
H           15.94739600125128      -27.83835863055904       -0.17809220807219
H           15.72501252083332      -26.82563661780397        1.25076135126737
N           17.81040115536501      -29.47595803424441        1.13412407063330
H           17.39144788887988      -30.16965170559039        0.53568436571462
C           17.27269100286652      -28.25491648472791        1.44017138870750
C           18.98949127763506      -29.57943387268763        1.78783493536783
H           19.62529656105536      -30.43526366523245        1.72475070757116
N           19.23469560171102      -28.50107548008484        2.49145233664991
C           18.17749170832227      -27.66528765171715        2.27934735743606
H           18.14285520739763      -26.70158561570690        2.74094745043482
78
 energy: -116.047963659073 gnorm: 0.024282868250 xtb: 6.7.1 (edcfbbe)
Fe          20.85020801207827      -28.21703788352361        3.72504165693376
N           21.58048329282323      -30.01273894863001        3.16172416726599
N           21.82823762254796      -27.33636826686731        2.21587707234741
N           20.22352696450388      -26.39558480889593        4.38524040700787
N           19.92659777758681      -29.09659652893296        5.28140481643094
C           21.30655932482999      -31.22004136795588        3.72166328892601
C           21.92427836337954      -32.28300403319970        2.96005103389617
C           22.58047157572084      -31.68107215659982        1.92900077384436
C           22.35528022391309      -30.26210043018774        2.07491339315778
C           22.59655427533554      -27.94859369568785        1.28001066636254
C           23.14417000441941      -26.98421319869689        0.35725369277810
C           22.68520073669133      -25.76208493498498        0.76369897268113
C           21.86040377377669      -26.01172416762112        1.93304092223800
C           20.56348506451150      -25.18702756951909        3.85821593084493
C           20.08519551199756      -24.11558054201450        4.68740962451399
C           19.40536526831699      -24.70425703507782        5.73276825507974
C           19.50468236102731      -26.13834480396545        5.50595582219295
C           19.20859831464865      -28.47044184230715        6.24986634287241
C           18.77072405760721      -29.42346599631716        7.24897914538375
C           19.25083352546740      -30.64217138377360        6.85591916505384
C           19.94966219335412      -30.41655949694150        5.60736692134924
C           20.55788784097729      -31.41172094477087        4.86864329242786
H           20.44645357928039      -32.42606830838806        5.22186981206191
C           22.84773397808941      -29.30639554308327        1.20676056388785
H           23.48473623052831      -29.65072037179754        0.40597532874094
C           21.28558007086224      -25.01028264609561        2.68734331036583
H           21.44349661803864      -23.99671604079936        2.34627061927254
C           18.98000438864310      -27.11096333889158        6.34166506163771
H           18.37731282536321      -26.78193349678353        7.17928206679097
C           23.36312842385074      -32.32225047707146        0.83588559651416
H           23.22111747442320      -33.40055516803832        0.84842584278330
H           24.42824407118130      -32.11325826084524        0.94550382623304
H           23.04713448533231      -31.94712613472592       -0.13708806128852
C           21.82132732551913      -33.74386286511412        3.23887635930259
H           20.95271736768924      -34.17114905797975        2.73260955329855
H           21.72039474287090      -33.94046972980001        4.30347195596517
H           22.70868395299618      -34.26266458553504        2.88070381572739
C           23.97600008701964      -27.30408510687204       -0.83295532143645
H           23.61564566612005      -28.20907660896387       -1.32042260822036
H           25.01775555018723      -27.46464533150375       -0.55094718591331
H           23.93884565889293      -26.48206654428210       -1.54579821911752
C           22.94309437997154      -24.46705560417262        0.17665329216594
H           22.10325735254948      -23.78063248227349        0.15918818479077
C           24.11158745833579      -24.08169511906581       -0.32620775502254
H           24.98617936436127      -24.70882340536258       -0.28281165198511
H           24.24705685110286      -23.11213805676362       -0.77447373071906
C           20.34578359082067      -22.67003707028151        4.45132152091306
H           19.41216793377124      -22.13970859307303        4.24982480444059
H           21.01418968483445      -22.52337990563986        3.60692571990486
H           20.81559064203207      -22.21793365920710        5.32654357355129
C           18.77503674912070      -24.11187397134366        6.88174446218822
H           18.34600769028380      -24.82687419145452        7.57467374577753
C           18.67218087769495      -22.82019589058315        7.20138021247127
H           19.05125763977664      -22.01783266562711        6.59200818991991
H           18.19245858861235      -22.51146014503241        8.11701945582236
C           18.00889616701069      -29.08569944145874        8.47923758099868
H           17.05140221177735      -28.63674230768524        8.22147367770379
H           18.57161242569066      -28.37569074944309        9.08490887333605
H           17.82407341981135      -29.97692573243706        9.07331589420158
C           19.12020771871967      -31.94586471481886        7.56154687970244
H           18.21318361005951      -32.46302813320293        7.24648080497169
H           19.06833813197431      -31.79470210296689        8.63806490943349
H           19.97446917158639      -32.58215039284259        7.34760425963669
O           22.58391753066734      -27.83936445913996        5.00574172891532
H           22.49365007075770      -27.03035000548351        5.51159619355114
H           23.10988186437237      -28.49049231238471        5.49539754884559
C           15.95720913305552      -27.81776327079286        0.91296188403030