78
 energy: -116.058049007028 gnorm: 0.000053020716 xtb: 6.7.1 (edcfbbe)
Fe          20.99335856226002      -28.25519592970440        3.79019293938942
N           21.61356673044921      -30.03886955632119        3.15763589890572
N           21.89157801815920      -27.37447559603495        2.24418775501585
N           20.43219339921501      -26.45372671377310        4.49667080691302
N           20.10759033656076      -29.13205860033250        5.37183910561180
C           21.40617057762653      -31.24245807429340        3.75293862930596
C           22.03948261087547      -32.30378135899231        2.99959012527301
C           22.62726897958454      -31.71028419561689        1.92771541571699
C           22.34711804750259      -30.29473459527997        2.04319622721348
C           22.55132449121747      -27.99094441350640        1.22895138166894
C           23.03387067291800      -27.02938137122370        0.26935826543265
C           22.65637288696226      -25.79875247138465        0.73497220839280
C           21.93628254764771      -26.04534869004324        1.97113981140400
C           20.70023567931753      -25.24071472797199        3.93597877416020
C           20.12423719787266      -24.17714392591319        4.71583249118992
C           19.47585978392798      -24.77609808596764        5.76488385068945
C           19.68726373025143      -26.20080965590241        5.60477904776107
C           19.36621586449796      -28.52192509181408        6.33670019301404
C           18.82012999336773      -29.49671211135678        7.25313578165869
C           19.25040532606027      -30.71293664555996        6.81963198266680
C           20.04945428885621      -30.46472861457859        5.64200195956971
C           20.67073360738955      -31.45577053040235        4.90438385557689
H           20.56630166948107      -32.47313870660765        5.24963870908500
C           22.77399601205253      -29.35297401160784        1.13005506860683
H           23.34278968722882      -29.70503819119136        0.28309125512889
C           21.40445171491231      -25.04408295531330        2.76014216397847
H           21.53513069849394      -24.02565049754287        2.42766708752922
C           19.16907910649940      -27.15927597053066        6.45626489436330
H           18.55777262247232      -26.81914649385718        7.27777887656065
C           23.41921474022950      -32.32348498369682        0.82444799294521
H           23.49964868513287      -33.39968853904836        0.95685695706754
H           24.42516320481826      -31.90455497743514        0.79888819662487
H           22.94799083694324      -32.13057483025471       -0.13969694991577
C           22.01278007671889      -33.74265481480946        3.38802917068312
H           20.98830151838546      -34.11551171098022        3.41818468936196
H           22.45123617713021      -33.88017127385452        4.37655416057068
H           22.57436599805464      -34.34487292313491        2.67821691461546
C           23.73868070382555      -27.36361267721118       -0.99863986894208
H           23.32362891009544      -28.26683660239182       -1.44335019942166
H           24.80158003674580      -27.53296376458444       -0.81922510452043
H           23.63657363115772      -26.54596272436127       -1.70943801948537
C           22.86878189564817      -24.49333047930887        0.15015411774779
H           22.07867197309900      -23.77005034999642        0.31772380561736
C           23.93632013822719      -24.12631349812877       -0.55154374374645
H           24.77251808126710      -24.78476769328969       -0.70847094993840
H           24.02167501038068      -23.13772668147685       -0.97157434523456
C           20.29092341209339      -22.72386760979713        4.43830497119442
H           19.56590248179735      -22.38215065065176        3.69755591263519
H           21.28861159805102      -22.51685427801569        4.05395042535376
H           20.14349726567980      -22.15050508103914        5.35141885755193
C           18.74750762867925      -24.16927708274990        6.85652171385151
H           18.79834748172191      -24.69566643536130        7.80284620631910
C           18.03483375027291      -23.04973444741244        6.78242176248988
H           17.90831367154438      -22.51025590668825        5.86022114715271
H           17.52818399695040      -22.64713758612513        7.64388623070858
C           17.96337148434707      -29.16156414644938        8.42553263781500
H           17.07161605334500      -28.62181138171004        8.10637413548361
H           18.50581240797172      -28.52992151741293        9.12976271665172
H           17.65055629864919      -30.06300356990490        8.94679481219288
C           18.99133796238661      -32.06540618585744        7.39009893866469
H           18.48843513827182      -32.70095529774428        6.66055065459040
H           18.36379852630841      -31.99817444079687        8.27534092246361
H           19.92744645296766      -32.54939366721763        7.66968722133289
O           22.84962097744937      -28.02905953314466        5.11821607704216
H           22.75659730366247      -27.11124813558203        5.39591504001108
H           22.57854169471664      -28.57905191905958        5.86127855573992
C           16.49241643161415      -27.29077744508908        0.64666496291124
H           15.52624406630419      -27.28019208442198        1.15109921044910
H           16.38155346156775      -27.83527554649078       -0.29095621900133
H           16.77926135068168      -26.26802944867681        0.42350049901996
N           17.43811048828135      -29.21941254974186        1.93402951833442
H           16.68960041357709      -29.85874096923700        1.72291300710221
C           17.52769271459014      -27.92145396723359        1.50393274039459
C           18.52975358806091      -29.47733500180892        2.68897788410268
H           18.72634452350158      -30.41858721557070        3.15941405970572
N           19.30426202324814      -28.42223161031226        2.76305548012023
C           18.69465817028630      -27.44662358319467        2.03024223716406
H           19.13248071986417      -26.47506539888488        1.93197629460599
