78
 energy: -115.951395589464 gnorm: 0.292696104797 xtb: 6.7.1 (edcfbbe)
Fe         -38.77099999999999      -71.58799999999998      104.87300000000000
N          -38.21200000000000      -73.38200000000001      104.18200000000000
N          -40.47500000000000      -71.75000000000000      103.74099999999999
N          -39.40600000000000      -69.93200000000000      105.76200000000000
N          -37.11700000000000      -71.61300000000000      106.06100000000001
C          -37.02700000000000      -74.08600000000000      104.43099999999998
C          -36.99800000000000      -75.37599999999999      103.75700000000001
C          -38.20000000000000      -75.46700000000000      102.98999999999998
C          -38.89200000000000      -74.18200000000000      103.22100000000000
C          -40.85600000000000      -72.66600000000000      102.84099999999999
C          -42.09400000000000      -72.41600000000000      102.15800000000000
C          -42.47800000000000      -71.09300000000000      102.64199999999998
C          -41.41899999999999      -70.76100000000000      103.60999999999999
C          -40.58200000000000      -69.18100000000000      105.40199999999999
C          -40.78200000000000      -68.05400000000000      106.30199999999999
C          -39.65000000000000      -68.06699999999999      107.20600000000000
C          -38.77900000000000      -69.17499999999998      106.79200000000000
C          -36.71300000000000      -70.62600000000000      106.88800000000001
C          -35.37300000000000      -70.79400000000000      107.46699999999998
C          -34.90600000000000      -71.99900000000000      106.84900000000000
C          -36.02100000000000      -72.38500000000001      106.01500000000000
C          -35.98900000000000      -73.59299999999999      105.25000000000000
H          -35.07800000000000      -74.18799999999999      105.30499999999999
C          -40.13800000000000      -73.89700000000001      102.63400000000000
H          -40.58500000000000      -74.65000000000001      101.98599999999999
C          -41.50100000000000      -69.53800000000000      104.37100000000000
H          -42.31300000000000      -68.84600000000000      104.14499999999998
C          -37.50099999999999      -69.51499999999999      107.33199999999999
H          -37.10100000000000      -68.89099999999999      108.13100000000000
C          -38.63500000000000      -76.58799999999999      102.10299999999999
H          -37.86500000000000      -77.38900000000000      102.11300000000000
H          -38.75599999999999      -76.21800000000000      101.06300000000000
H          -39.59600000000000      -77.00699999999999      102.47100000000000
C          -35.94500000000000      -76.43000000000001      103.87800000000000
H          -35.36500000000000      -76.26900000000001      104.81200000000000
H          -35.25400000000000      -76.37200000000000      103.01000000000001
H          -36.42099999999999      -77.43300000000001      103.91800000000001
C          -42.76000000000000      -73.26100000000000      101.15000000000001
H          -42.51499999999999      -74.32800000000000      101.34000000000000
H          -42.40400000000000      -72.98500000000000      100.13499999999999
H          -43.86099999999999      -73.12600000000000      101.21599999999999
C          -43.59699999999999      -70.21200000000000      102.27500000000001
H          -43.96900000000000      -69.42399999999999      102.94499999999999
C          -44.14599999999999      -70.39599999999999      101.10899999999998
H          -43.77600000000000      -71.18400000000000      100.43600000000001
H          -44.98700000000000      -69.76599999999999      100.78200000000000
C          -41.97600000000000      -67.14100000000001      106.28900000000000
H          -42.89700000000000      -67.73699999999999      106.11199999999999
H          -41.86800000000000      -66.39400000000001      105.47400000000000
H          -42.06400000000000      -66.62400000000000      107.26800000000000
C          -39.27900000000000      -67.13000000000000      108.31499999999998
H          -38.61299999999999      -67.50100000000000      109.10700000000000
C          -39.67600000000000      -65.90100000000000      108.43100000000000
H          -40.34400000000000      -65.45699999999999      107.67800000000000
H          -39.34999999999999      -65.28700000000001      109.28299999999999
C          -34.66200000000000      -69.85400000000000      108.41500000000001
H          -35.16100000000000      -69.88000000000000      109.40699999999998
H          -34.70500000000000      -68.81699999999999      108.01800000000000
H          -33.60400000000000      -70.17100000000001      108.53499999999998
C          -33.57000000000000      -72.66100000000000      107.03099999999999
H          -33.10500000000000      -72.30499999999999      107.97499999999999
H          -32.90400000000000      -72.40099999999998      106.18099999999998
H          -33.70200000000000      -73.76300000000001      107.08699999999999
O          -39.78500000000000      -72.65099999999998      106.27599999999998
H          -39.61699999999999      -73.57299999999999      106.08100000000000
H          -40.28600000000000      -72.33699999999999      106.94000000000000
C          -35.41300000000000      -68.00900000000000      101.98800000000000
H          -35.90199999999999      -67.06800000000000      101.65600000000001
H          -34.79099999999999      -68.40400000000000      101.15700000000000
H          -34.77399999999999      -67.79100000000000      102.87000000000000
N          -37.38800000000000      -69.46400000000000      101.48900000000000
H          -37.45600000000000      -69.16900000000000      100.53599999999999
C          -36.46699999999999      -69.01999999999998      102.35999999999999
C          -38.18600000000000      -70.35299999999999      102.09999999999999
H          -39.01900000000000      -70.86899999999999      101.62400000000000
N          -37.77300000000000      -70.47900000000000      103.36900000000000
C          -36.71699999999999      -69.67199999999998      103.56200000000000
H          -36.22100000000000      -69.61499999999998      104.52299999999998
78
 energy: -116.018133230824 gnorm: 0.124774258767 xtb: 6.7.1 (edcfbbe)
Fe         -38.75796646909171      -71.58566260363295      104.86188011403874
N          -38.19693758752338      -73.38633421949599      104.14241275164568
N          -40.47243271403095      -71.71722315798468      103.72647011348097
N          -39.40023543875503      -69.90169264031302      105.74119204003264
N          -37.09344859150227      -71.58438815169990      106.05256474665363
C          -37.03441032793145      -74.07953233295792      104.42986466588998
C          -37.01715306274054      -75.36202063782257      103.75370460934639
C          -38.18296783974279      -75.44077511609021      103.00555532115213
C          -38.89987426166720      -74.18923172831327      103.24209242132957
C          -40.85265580027635      -72.68150813722744      102.85749061828351
C          -42.08094065631766      -72.37782869231958      102.17586831228314
C          -42.45206507237443      -71.09694338478576      102.65753908378007
C          -41.42400201927403      -70.74192975322109      103.63063866167268
C          -40.57234902850778      -69.19856186130399      105.41979995687525
C          -40.74650412524541      -68.06879886563455      106.31178383938685
C          -39.64236863436995      -68.07219541472006      107.18545074326630
C          -38.80101829108767      -69.19652543276167      106.78621542903001
C          -36.73014128998386      -70.60222894647421      106.91425027307912
C          -35.38433507596328      -70.80160169754299      107.44481943449217
C          -34.92797500801168      -71.97879866712380      106.84831183167201
C          -36.02151427003172      -72.41042381389487      106.00435389700522
C          -36.00385763754558      -73.59856199481864      105.24626537382092
H          -35.09505886945804      -74.18825986714238      105.30143365458277
C          -40.12820714813742      -73.88769015452247      102.65844912478796
H          -40.56333172685770      -74.63003522551080      101.99615933370326
C          -41.47084678457626      -69.55376479401154      104.39416535196845
H          -42.28156441447926      -68.86578314858566      104.16766688324795
C          -37.53709320940441      -69.52027584690379      107.32018028389237
H          -37.12704062697399      -68.89044232023409      108.10384833768607
C          -38.62553556757454      -76.56639922968914      102.11948901639531
H          -37.87876273688092      -77.37009945758498      102.11389201055580
H          -38.75723835807254      -76.22319023889953      101.08430044483725
H          -39.57868489389474      -76.99404625947389      102.46276685183487
C          -35.95813827357360      -76.41448264710658      103.87838247138605
H          -35.37413868216646      -76.27422296651771      104.79565942454036
H          -35.26593333284571      -76.37596898675866      103.02549759735402
H          -36.40942412275783      -77.41416809962773      103.91390428159878
C          -42.75268756422270      -73.24688857240798      101.16823018546123
H          -42.52146576088179      -74.30727988928075      101.33741879117748
H          -42.41513216767371      -72.99504100363771      100.15095999886225
H          -43.84264131130090      -73.13002597328877      101.21496670354469
C          -43.57732521467255      -70.24267279211369      102.27964517564124
H          -43.93492853532885      -69.45698532137050      102.94756462460681
C          -44.15417825623033      -70.39960936644533      101.09633124961981
H          -43.79596242695694      -71.15692826710183      100.41535838001231
H          -44.98248355726687      -69.77467212162871      100.77723609608346
C          -41.94825704803725      -67.16090753825303      106.29403990674257
H          -42.87187157996210      -67.72993907279512      106.11579039862158
H          -41.86537056103130      -66.41055123622377      105.49335798360400
H          -42.05955260058435      -66.63653215854393      107.25004641018711
C          -39.29019256932985      -67.15629258064726      108.29169013405534
H          -38.62261815907355      -67.53233494498028      109.07053736233644
C          -39.68769822896259      -65.89945114664302      108.42169247189992
H          -40.33431965202724      -65.43921876135977      107.68593700265556
H          -39.36361304752038      -65.29165790470039      109.26292962313154
C          -34.67644438196528      -69.87406692477764      108.39730479639745
H          -35.15439120185615      -69.88284644316489      109.38733572864005
H          -34.70247534187261      -68.84113674857433      108.02400725327063
H          -33.62780812962558      -70.16759493638797      108.52698298193717
C          -33.59543785094067      -72.64849242568665      107.02935204717045
H          -33.11730428741069      -72.30970096601571      107.95664619794475
H          -32.91987011613548      -72.40949527951882      106.19533711285129
H          -33.70041915419711      -73.74008360118239      107.08420921207716
O          -39.77435230345122      -72.66501634548052      106.27752114692009
H          -39.63254903646379      -73.59524567702579      106.10163054987754
H          -40.31260047735886      -72.34334707563289      106.97705840582033
C          -35.41647785447190      -68.01061268157946      101.99051217334735
H          -35.89069945502303      -67.07800821158342      101.65990296832692
H          -34.79546931284163      -68.39358807618797      101.17134594540859
H          -34.78232464494274      -67.79516473030428      102.85418411952135
N          -37.38542631184795      -69.46242458698728      101.48763457922858
H          -37.45710968854701      -69.16699335314256      100.52919472962110
C          -36.45709610764801      -69.01464713022845      102.36653768750459
C          -38.18074662924262      -70.35411045509147      102.11063947609503
H          -39.00453447325355      -70.86440256785284      101.64142243641865
N          -37.78395553337594      -70.48759425640917      103.36677302217414
C          -36.72163378482990      -69.67149066749080      103.54966977854517
H          -36.22842373200683      -69.61235171556446      104.50374584606963
78
 energy: -116.040273793537 gnorm: 0.034476490589 xtb: 6.7.1 (edcfbbe)
Fe         -38.74817337174200      -71.58111931073084      104.85056602008325
N          -38.18873610342303      -73.39343695098117      104.12196121211703
N          -40.46562221143058      -71.69471776245851      103.72487312681545
N          -39.40826803287963      -69.88934582501471      105.74141624430231
N          -37.08142042924251      -71.56209499875708      106.04046118052423
C          -37.03848502474509      -74.06581456924786      104.42223503883382
C          -37.02932599486871      -75.35099000052067      103.75127875313885
C          -38.17247525962417      -75.42258843338998      103.02113465328759
C          -38.89157248129661      -74.18367709188557      103.25272016093447
C          -40.83645958443381      -72.69002083271309      102.87209870556507
C          -42.06409054371467      -72.34790766967153      102.19559992427619
C          -42.42530621012193      -71.10304855976446      102.66433949801471
C          -41.41650097242901      -70.72776075404410      103.64397759149652
C          -40.55120588137557      -69.21066157597581      105.42557120723704
C          -40.72165525393178      -68.08234765920866      106.31642097295982
C          -39.63974998526015      -68.07843158572781      107.16489758378252
C          -38.81265174684254      -69.21024554462188      106.76425365706010
C          -36.74378160166268      -70.58315802881128      106.92098398715375
C          -35.39962869136379      -70.81034667202779      107.43002852837992
C          -34.95258584895936      -71.95933333189330      106.84808903944450
C          -36.02737217691460      -72.42148881152947      105.98555737924748
C          -36.01611717900288      -73.59186934685796      105.23713772268317
H          -35.11674639921369      -74.18920340782140      105.30435727043169
C          -40.11010505541215      -73.86836436199565      102.67609764166956
H          -40.53912744894462      -74.60488725979296      102.00818839173746
C          -41.43791606986812      -69.56750063734525      104.40929533824981
H          -42.25560862236053      -68.88665799156016      104.20166254594470
C          -37.56279187420274      -69.52302494560676      107.29517465054529
H          -37.15848614019270      -68.88794925427638      108.07360220218047
C          -38.62105737911374      -76.54640801275819      102.13446234488568
H          -37.88352638763956      -77.34653472253451      102.12439647574318
H          -38.75579674048556      -76.20911074728222      101.10571411862026
H          -39.56978327707598      -76.96997492148836      102.46947819532460
C          -35.96693169140836      -76.40023527611802      103.87803094596150
H          -35.38589037331890      -76.26681588018208      104.78679934288540
H          -35.27905847020825      -76.36813220987031      103.03119086040763
H          -36.41002116165304      -77.39498690886364      103.90878444349997
C          -42.74338072925753      -73.23157900387555      101.19131985869275
H          -42.51359063384619      -74.28327344694016      101.35842197606478
H          -42.41668892097993      -72.99157545381466      100.17442375875815
H          -43.82585332918753      -73.12042135397196      101.23135136321119
C          -43.54989484468982      -70.27313889671862      102.27151382265741
H          -43.89458256912404      -69.50070468600474      102.95085516457189
C          -44.15634763959503      -70.39887815342193      101.08843854805457
H          -43.81539803433409      -71.12938788987684      100.38460444087359
H          -44.98150099749380      -69.77695820738742      100.79004570701412
C          -41.92324965906046      -67.17983614407517      106.29792414232755
H          -42.83886054412385      -67.74445314923661      106.11599759698070
H          -41.84425187713211      -66.42928497284247      105.50676243610570
H          -42.04078577473093      -66.65820265997364      107.24483205962282
C          -39.29896849239942      -67.17757324550041      108.25701565822126
H          -38.63798421116203      -67.56856066525972      109.02515242252169
C          -39.69343271243947      -65.91031041397930      108.40245020247924
H          -40.32539746584161      -65.42684623394788      107.68297031042111
H          -39.37850060679258      -65.31513645876488      109.24490457493935
C          -34.69084855214611      -69.89319671608462      108.38128803056416
H          -35.16283540359147      -69.89734121052351      109.36597623437081
H          -34.70876035518071      -68.86508583738593      108.01602020360204
H          -33.64940076520229      -70.18016520248788      108.51134646447953
C          -33.62362718599545      -72.63345463482146      107.02724802715342
H          -33.13982727904809      -72.30371323629940      107.94519816390779
H          -32.94855105147164      -72.40593969596239      106.19846460180764
H          -33.72330383745700      -73.71723588673261      107.07848564560412
O          -39.75836281710039      -72.68084622705476      106.30198796170808
H          -39.67200938454900      -73.62443883583953      106.14607450623441
H          -40.33528767550052      -72.36920174483163      107.00083388498518
C          -35.41949130425370      -68.01259067077127      101.99451906466412
H          -35.88570298288553      -67.08537069681914      101.66407426956917
H          -34.79894620868918      -68.38872432807973      101.18209102710013
H          -34.78699813822717      -67.79864887921228      102.84766187210316
N          -37.38535671333905      -69.46267984512131      101.48386255277939
H          -37.46133369868058      -69.16821720853885      100.52285744499190
C          -36.45104189739506      -69.01172471885646      102.37284509150599
C          -38.17518788991259      -70.35579778286346      102.12081012433748
H          -38.99349293416974      -70.86375733105974      101.65701090950263
N          -37.79357325751887      -70.49522106765595      103.36715809393384
C          -36.72522158971648      -69.67009666322379      103.54070272156213
H          -36.23213835941580      -69.60723869085255      104.48866210458949
78
 energy: -116.046557403492 gnorm: 0.029541972826 xtb: 6.7.1 (edcfbbe)
Fe         -38.74737068808676      -71.58718179085379      104.85147911387585
N          -38.17001587073219      -73.38002471524065      104.10448187223584
N          -40.44787848655711      -71.68448652851089      103.72809781673888
N          -39.39454472562776      -69.88241133382648      105.71824231851956
N          -37.08191272760342      -71.54813786842239      106.01883114209612
C          -37.03189470912580      -74.05512849310378      104.41564334884647
C          -37.02281410228267      -75.34338818660527      103.75199961412000
C          -38.16777323996988      -75.41296096266218      103.02399547350927
C          -38.88028084698244      -74.17530803805306      103.25774317262916
C          -40.81261946135104      -72.68438660106243      102.87749579834824
C          -42.04008421287841      -72.34135231190093      102.20126608764696
C          -42.40321275655742      -71.10067635408636      102.65817959185721
C          -41.40148581963620      -70.72350464880863      103.64540191833819
C          -40.54590473939485      -69.22325732745833      105.42407031359492
C          -40.71466261780321      -68.08929759227458      106.30439489575110
C          -39.63193741958497      -68.08115726164509      107.14386943250435
C          -38.81269263974885      -69.21942611256176      106.74810787521531
C          -36.75144743699803      -70.57462140600578      106.90702913946677
C          -35.41384147426146      -70.80762882659610      107.42064090416395
C          -34.96791373647275      -71.95191606314113      106.84031477214046
C          -36.03380895472462      -72.41356284164131      105.96737229177477
C          -36.01630576367504      -73.58532830468873      105.23322754836269
H          -35.12652086420593      -74.19397486720557      105.31427452714347
C          -40.09627145498541      -73.85684430573797      102.68360626435536
H          -40.51870920127165      -74.58785558002826      102.00805386818615
C          -41.43558915666657      -69.57655860667778      104.41864783987597
H          -42.25704644296977      -68.89764809126096      104.23237478375037
C          -37.57104775249450      -69.52334420336530      107.28277338731040
H          -37.17818974033924      -68.87451418277169      108.05373904224545
C          -38.62402629361223      -76.53049153157987      102.14179923145740
H          -37.88690063268562      -77.32945075214892      102.13321145039332
H          -38.75906197870079      -76.18525664609693      101.11714151362017
H          -39.57319283007691      -76.94324708038440      102.48389375395975
C          -35.96458414263876      -76.39106790068824      103.87870638225303
H          -35.38774795098566      -76.25774712947657      104.78894504531064
H          -35.27981132266825      -76.35470414775568      103.03090480564650
H          -36.41298196984694      -77.38282103906890      103.90439445422020
C          -42.73019862723456      -73.22687594940206      101.21117756992169
H          -42.49857947276871      -74.27396678193486      101.39205115985011
H          -42.41046606887709      -72.99022576027554      100.19299069184743
H          -43.81025774348313      -73.10538348242234      101.26390462476813
C          -43.53136702299878      -70.28668152581338      102.26334350582604
H          -43.86578334948904      -69.53169874084122      102.96430055232514
C          -44.15632695446904      -70.38881716261885      101.08735069997472
H          -43.82403982320484      -71.08973529772759      100.34259856981286
H          -44.99019074582249      -69.76385500462253      100.81907226957972
C          -41.91085709121138      -67.19346896989784      106.29622725277486
H          -42.81837537099172      -67.76637638288109      106.11124260252907
H          -41.82502514674558      -66.44004064694698      105.51102202977509
H          -42.02004200422954      -66.68390880293894      107.24956429568870
C          -39.30149615837779      -67.18961340877313      108.23306224546654
H          -38.64751681505019      -67.60028604536591      108.99445939093319
C          -39.69500861171888      -65.92422113857826      108.38541152963070
H          -40.30678644068904      -65.41765609948183      107.66062062375366
H          -39.38910107136684      -65.34002528527158      109.23723921875576
C          -34.70530313225665      -69.90156131822627      108.37371884509980
H          -35.18309460120879      -69.91234594379367      109.35387994533848
H          -34.71968582001866      -68.87557281821339      108.00613265843467
H          -33.66733820540154      -70.19963107775138      108.49821141875871
C          -33.64579581773022      -72.62666251144260      107.02199030956918
H          -33.16475146260576      -72.29371609995501      107.93907721913980
H          -32.97750832083022      -72.40023438195746      106.18917729122032
H          -33.75758297950835      -73.70774917763379      107.07368392750006
O          -39.72939179983963      -72.70267019682460      106.36072223174052
H          -39.73448986085010      -73.65698444978628      106.19065471298740
H          -40.36579000064395      -72.39730854706377      107.01905659687063
C          -35.42262424735590      -68.01592674857294      101.99868419695963
H          -35.88684427285562      -67.08785521928451      101.66772192056514
H          -34.79962344675101      -68.39086815798375      101.18753104943407
H          -34.78931656270608      -67.80202694354512      102.85215879757315
N          -37.38892438559614      -69.46853579808125      101.48272776055364
H          -37.46696469327667      -69.17676831842195      100.52133316274883
C          -36.45415144786452      -69.01461187002785      102.37585812303730
C          -38.17540517476635      -70.36081493131100      102.12677203287731
H          -38.99253537671896      -70.87226543424613      101.66486342215396
N          -37.79975729240297      -70.49879774670599      103.37346840180145
C          -36.72949323633535      -69.66952043107995      103.54212020477406
H          -36.23412517954467      -69.60106575890042      104.48746614618342
78
 energy: -116.049663026436 gnorm: 0.045816238880 xtb: 6.7.1 (edcfbbe)
Fe         -38.74331875391665      -71.59017595434449      104.85246654184802
N          -38.15714029177354      -73.36526232021673      104.10210580302588
N          -40.42952564651522      -71.67936809897033      103.74316312641720
N          -39.39293120048387      -69.89564481012059      105.71001690511194
N          -37.08660761354864      -71.53320832265911      105.99109390495653
C          -37.02383829420309      -74.04288365383800      104.41018556099608
C          -37.01357680540023      -75.33359606789737      103.75504829306026
C          -38.16298108416443      -75.40228917365076      103.02860829879533
C          -38.86438287030303      -74.16185137745735      103.26043937739496
C          -40.78798637502162      -72.67668705063259      102.88755390681051
C          -42.01052798348323      -72.33878175448024      102.20338052216536
C          -42.37956216607575      -71.09686017630767      102.65199260411579
C          -41.38420190710793      -70.72145445461319      103.64623806630992
C          -40.53938398929829      -69.23299506469523      105.41553763159004
C          -40.71150379162488      -68.09994118955434      106.29086859304228
C          -39.62246361207794      -68.08620234610102      107.12337376183656
C          -38.80599409827530      -69.22229216557460      106.72416202832817
C          -36.75707959094995      -70.56699803387095      106.88528001317104
C          -35.42839488140982      -70.80236476829445      107.40984982607820
C          -34.98244056594730      -71.94689063436103      106.82929454963688
C          -36.04235797399702      -72.40062815894163      105.94974595475765
C          -36.01221279542042      -73.57686968315105      105.22940437380632
H          -35.13170120171993      -74.19576401761894      105.32554207290572
C          -40.07828336406541      -73.84475451718058      102.68442508573943
H          -40.49511310051833      -74.57234144170465      102.00408346595206
C          -41.43522064122780      -69.57911917781924      104.41904904981989
H          -42.26481677364877      -68.90645613753239      104.25837235286055
C          -37.56786268957195      -69.51416643870012      107.26220366794837
H          -37.19147942146991      -68.85798414633601      108.03284932584897
C          -38.62940924674839      -76.51249887023975      102.15061075292020
H          -37.89689461101361      -77.31546986201965      102.13987231083416
H          -38.76536187961473      -76.16094679399831      101.12840449724284
H          -39.58083386510768      -76.91433952465431      102.49857237281182
C          -35.95899766203333      -76.37995992483805      103.87861498264729
H          -35.38521874212771      -76.25090055677111      104.79165490802245
H          -35.27324903255857      -76.33834705933401      103.03176967678361
H          -36.41028989216520      -77.37090817556550      103.89771576562390
C          -42.71376648736081      -73.22232453509099      101.22944873175740
H          -42.48871997554959      -74.26792813512003      101.42437782511867
H          -42.40269467109611      -72.99522858552254      100.20777367243699
H          -43.79129451765399      -73.08235045447879      101.29740624874793
C          -43.51084932490594      -70.29516212576338      102.25602126963609
H          -43.84281119952993      -69.56361130137226      102.98307072535022
C          -44.14787058835058      -70.37114573545112      101.08736461098589
H          -43.83680719822618      -71.04829793200365      100.30690657197090
H          -44.99687965005027      -69.74694269056634      100.85691025271824
C          -41.90155144730358      -67.20797933512686      106.29369540389007
H          -42.80591292903021      -67.78214512451444      106.10180804571606
H          -41.81152438563887      -66.44473946090670      105.51940219222331
H          -42.00363829788018      -66.71401462036194      107.25648781581666
C          -39.29843521071062      -67.19894044204747      108.21069301648436
H          -38.66168844147948      -67.63175951331824      108.97400171922538
C          -39.68852528080794      -65.93558815823265      108.36255485195329
H          -40.28474182219730      -65.41295068672832      107.63366078457219
H          -39.40215394922112      -65.36363348596900      109.23025440153430
C          -34.72221719208547      -69.90718189008743      108.36860916785720
H          -35.20662140060252      -69.92365481586265      109.34476122801136
H          -34.73001302046008      -68.88080078691515      108.00326916884902
H          -33.68751025548330      -70.21680326785626      108.49181843760690
C          -33.66779562167218      -72.62411264087058      107.01392476869216
H          -33.18690834188042      -72.28682456801248      107.92917496337586
H          -33.00416794529166      -72.40329707465884      106.17652808156363
H          -33.79130311944049      -73.70323897565079      107.07115236693859
O          -39.67356766367635      -72.73231816357681      106.44686802793710
H          -39.81204607218866      -73.68626966184245      106.22784030130819
H          -40.42633690244446      -72.44260347873978      107.01646806222185
C          -35.42674634436995      -68.02030501145678      102.00276327384063