78
 energy: -116.058079351413 gnorm: 0.000035424788 xtb: 6.7.1 (edcfbbe)
Fe          -5.56310867337287       -6.65703378332200        6.95754546178941
N           -5.57736737152814       -8.30569618310427        5.83982680411186
N           -5.02647813375500       -5.56746471745120        5.37634002938923
N           -5.49365418638104       -5.01144514066476        8.11978760509086
N           -6.05071659936065       -7.75636758729286        8.57270290708130
C           -5.84874943208622       -9.57374958735825        6.24467437384562
C           -5.75785590582203      -10.49788686043550        5.13437112075440
C           -5.42871898639936       -9.75323623865653        4.04635842639900
C           -5.32103182949973       -8.38545645536397        4.50819483675531
C           -4.85613830393552       -6.01195401410732        4.10367482447930
C           -4.47603839052019       -4.93210867418269        3.22759621388457
C           -4.41084334438310       -3.80889598661401        4.00733772408360
C           -4.77202527599520       -4.23398658558633        5.34762082781392
C           -5.18399453156808       -3.74577499459646        7.72016693644532
C           -5.26804994529452       -2.82535162364976        8.82338103666483
C           -5.64685773718269       -3.56459239155972        9.91376849815161
C           -5.79240812436074       -4.92715024910217        9.44265976604895
C           -6.27158202101893       -7.30240872139647        9.83688585581382
C           -6.65025308590900       -8.38956480671939       10.71054897459185
C           -6.65879445757621       -9.51284218999604        9.94227334694989
C           -6.28575852878607       -9.09639052268289        8.61011458763907
C           -6.18368018447130       -9.95484752703514        7.53101918735294
H           -6.38486360435881      -11.00078992497508        7.70611809802514
C           -4.99474932477044       -7.32463685719155        3.68893392206261
H           -4.81306691068999       -7.54004757414506        2.64711107953643
C           -4.82859883960733       -3.38085191346642        6.43257306768238
H           -4.57884411420409       -2.34431052862508        6.26509323568753
C           -6.14743563072744       -5.99023415718450       10.25249480290240
H           -6.34543127730072       -5.78100322771537       11.29237583258743
C           -5.20204690663079      -10.18592460005275        2.63857541613681
H           -5.34180193823171      -11.25929232623559        2.53575556253443
H           -4.18818856258344       -9.94012725943483        2.32263473386007
H           -5.89718368834452       -9.68308806387360        1.96571274596084
C           -5.98951421626087      -11.96652941108716        5.24110105567035
H           -7.00183700204986      -12.17329572683910        5.59018039086808
H           -5.29070245808670      -12.41360204795940        5.94834106603554
H           -5.85551621055681      -12.44988656889796        4.27658096432034
C           -4.27232390867918       -5.05197505773570        1.75778414644724
H           -4.99580264108971       -5.74039828280185        1.32356074550413
H           -3.27249470269448       -5.42706186346351        1.53365195230710
H           -4.38843137526701       -4.07926210660390        1.28395467335403
C           -4.09021026390300       -2.45017481148692        3.63012792124114
H           -4.61089577180191       -1.67461155840244        4.18042496782799
C           -3.22123627397843       -2.09535639284625        2.68903869543236
H           -2.63950533406181       -2.81849169770180        2.14490506448069
H           -3.04127413834860       -1.06026644893862        2.44989710507943
C           -5.05003364014791       -1.35531578303211        8.73255708517227
H           -5.45272802954828       -0.96238330805442        7.80012122153591
H           -3.98578260457878       -1.11602130254563        8.76675232053356
H           -5.54198582028502       -0.85314079536310        9.56305603371595
C           -5.89289495528692       -3.13118804453508       11.27135540124617
H           -6.67587377309132       -3.66449792588526       11.79817599650686
C           -5.23902773391914       -2.16063658560471       11.90136837762633
H           -4.42154637625540       -1.63017339080724       11.44503892682469
H           -5.48457712012462       -1.87986512906815       12.91217427925356
C           -6.95692880694713       -8.23547990714954       12.16075054912984
H           -7.79750755933287       -7.55610792810827       12.30446506159299
H           -6.09809842675347       -7.82660354749433       12.69371475499020
H           -7.21148213869081       -9.19389884837499       12.60658880405167
C           -6.97541298771813      -10.91785726064121       10.32610735472376
H           -7.21700478852915      -10.98484693853283       11.38399500327619
H           -6.12529655064038      -11.57059078679449       10.12649074247737
H           -7.82709319188227      -11.29004397751053        9.75580355796009
O           -3.37533248840379       -6.99401220201836        7.55618944434479
H           -3.17306873719035       -6.14477682475321        7.96365461786449
H           -3.50126602092880       -7.62809138245526        8.27052291928826
C          -10.51014273656218       -4.37471112517310        5.77955085686510
H          -11.25306346767899       -4.34270795439637        6.57643490928980
H          -11.01120459759765       -4.67114997859114        4.85811349918595
H          -10.09895786120186       -3.37896060586090        5.64713287896380
N           -9.64195310438098       -6.65583271559657        6.34027434633159
H          -10.53652267795949       -7.11629814734083        6.30421731444480
C           -9.41786628984739       -5.32291843943685        6.11470596334098
C           -8.45006320839711       -7.23055361635444        6.61853656938940
H           -8.32080689209865       -8.27033801385905        6.83781935586845
N           -7.48582860116738       -6.34308563495153        6.58288218708455
C           -8.07218637490292       -5.15188212973896        6.27019093250083
H           -7.49140229454841       -4.25760652139151        6.17948214392989
