78
 energy: -115.963629107383 gnorm: 0.272548489720 xtb: 6.7.1 (edcfbbe)
Fe          35.28100000000000        4.19700000000000       10.30100000000000
N           37.19300000000000        3.95300000000000        9.80000000000000
N           35.05200000000000        5.60700000000000        8.90200000000000
N           33.39200000000000        4.55800000000000       10.93900000000000
N           35.54600000000000        2.95600000000000       11.87400000000000
C           38.10100000000000        3.10500000000000       10.40500000000000
C           39.32500000000000        3.15000000000000        9.64500000000000
C           39.14500000000000        4.01200000000000        8.60800000000000
C           37.80100000000000        4.53200000000000        8.70300000000000
C           35.99300000000000        5.89300000000000        7.93900000000000
C           35.40500000000000        6.84300000000000        7.01900000000000
C           34.12000000000000        7.07200000000000        7.41500000000000
C           33.88500000000000        6.27400000000000        8.59800000000000
C           32.52900000000000        5.48900000000000       10.39400000000000
C           31.35900000000000        5.57200000000000       11.23500000000000
C           31.53800000000000        4.73300000000000       12.29100000000000
C           32.82400000000000        4.08800000000000       12.11000000000000
C           34.61999999999999        2.71200000000000       12.86800000000000
C           35.23500000000000        1.82400000000000       13.83300000000000
C           36.52400000000000        1.65100000000000       13.46800000000000
C           36.73100000000000        2.34300000000000       12.21100000000000
C           37.94900000000000        2.32800000000000       11.54900000000000
H           38.77199999999999        1.71900000000000       11.91800000000000
C           37.28099999999999        5.42300000000000        7.78700000000000
H           37.88700000000000        5.75500000000000        6.94500000000000
C           32.66500000000000        6.26300000000000        9.25000000000000
H           31.82900000000000        6.84900000000000        8.87400000000000
C           33.32200000000000        3.16800000000000       13.01700000000000
H           32.70100000000000        2.80800000000000       13.83600000000000
C           40.15100000000000        4.35500000000000        7.51100000000000
H           39.80800000000000        3.92600000000000        6.54600000000000
H           41.14300000000000        3.92500000000000        7.76400000000000
H           40.23100000000000        5.45800000000000        7.40700000000000
C           40.57399999999999        2.29700000000000        9.91600000000000
H           40.27000000000000        1.32600000000000       10.36300000000000
H           41.24399999999999        2.82700000000000       10.62700000000000
H           41.11000000000000        2.10300000000000        8.96200000000000
C           36.13400000000000        7.43600000000000        5.81000000000000
H           36.74300000000000        6.64600000000000        5.32000000000000
H           36.80600000000000        8.25600000000000        6.14200000000000
H           35.39300000000000        7.82500000000000        5.07900000000000
C           33.04800000000000        7.87300000000000        6.88300000000000
H           32.00100000000000        7.54100000000000        6.94000000000000
C           33.36000000000000        9.14400000000000        6.26000000000000
H           34.40100000000000        9.49300000000000        6.19400000000000
H           32.55900000000000        9.77400000000000        5.84600000000000
C           30.15700000000000        6.48600000000000       10.93100000000000
H           29.94500000000000        6.47000000000000        9.84100000000000
H           30.39099999999999        7.52800000000000       11.23700000000000
H           29.26100000000000        6.12200000000000       11.47800000000000
C           30.75500000000000        4.38400000000000       13.43900000000000
H           31.02700000000000        3.49700000000000       14.03000000000000
C           29.62000000000000        5.13700000000000       13.86700000000000
H           29.30300000000000        6.03300000000000       13.31300000000000
H           29.04900000000000        4.83000000000000       14.75600000000000
C           34.51300000000000        1.24100000000000       15.05700000000000
H           33.64200000000000        0.63800000000000       14.72200000000000
H           34.15100000000000        2.06600000000000       15.70700000000000
H           35.20700000000000        0.58600000000000       15.62600000000000
C           37.64500000000000        0.97800000000000       14.27800000000000
H           37.79100000000000       -0.06200000000000       13.91600000000000
H           37.36600000000000        0.95000000000000       15.35300000000000
H           38.59300000000000        1.54100000000000       14.14600000000000
O           35.80200000000000        5.77700000000000       11.69100000000000
H           34.97400000000000        6.17500000000000       11.96000000000000
H           36.61400000000000        6.01600000000000       11.96400000000000
C           32.47400000000000        0.10100000000000        7.52600000000000
H           32.68700000000000       -0.93300000000000        7.87200000000000
H           32.47100000000000        0.11600000000000        6.41500000000000
H           31.48000000000000        0.41300000000000        7.91200000000000
N           34.87300000000000        0.92100000000000        7.76400000000000
H           35.25899999999999        0.20900000000000        7.17800000000000
C           33.53700000000000        1.03300000000000        8.04500000000000
C           35.57000000000000        1.87700000000000        8.37000000000000
H           36.64500000000000        2.02900000000000        8.29700000000000
N           34.69300000000000        2.56900000000000        9.05200000000000
C           33.41400000000000        2.08700000000000        8.88900000000000
H           32.55900000000000        2.53300000000000        9.38000000000000
78
 energy: -116.028474923391 gnorm: 0.104461874203 xtb: 6.7.1 (edcfbbe)
Fe          35.27946040319551        4.20030234639261       10.31811233632585
N           37.19314958511738        3.95180637465751        9.79993842283119
N           35.04302805924216        5.57849131381970        8.88608863348005
N           33.39542740564653        4.57149365021672       10.95240533272197
N           35.55136051766527        2.96080775237040       11.87822047781317
C           38.10482935558536        3.11206080611986       10.38890995547778
C           39.33793001741336        3.13769925616114        9.63522191713309
C           39.15862159341670        4.00478029934973        8.60227296007621
C           37.80976239279539        4.51571027577104        8.71135567854960
C           35.97222398452374        5.90171424150633        7.93376921129103
C           35.40334715509260        6.85429930133985        7.00500770283817
C           34.11483617709717        7.08264866669142        7.40066426355489
C           33.89655096910090        6.26044727607565        8.58110117142788
C           32.51761354317122        5.47662432596775       10.41118733080962
C           31.33967721998702        5.57601609034560       11.23722058558580
C           31.51827500108633        4.72909772581156       12.29962626038500
C           32.81359628427670        4.09209092839464       12.09658658990273
C           34.63565974787372        2.68361579252297       12.85727459609939
C           35.23981707399854        1.81779356864906       13.85075509180309
C           36.53420168464831        1.64544397141271       13.48611201312849
C           36.71915130576661        2.34170961672202       12.22629324601102
C           37.92320368061723        2.34606348537350       11.53635899806628
H           38.74564680276904        1.74303303156247       11.90662763830522
C           37.26571696325749        5.41666108895401        7.80965371452281
H           37.87204621313752        5.74878466033284        6.97358209138370
C           32.69006918666075        6.23889558293191        9.26140108187085
H           31.86189578218541        6.83541053469631        8.89571481625203
C           33.34304321737242        3.16351571583953       12.98185661336592
H           32.73934371764793        2.81696451184425       13.81266443726784
C           40.14353398341731        4.35384791910118        7.51718698210640
H           39.81323086452865        3.93533304299726        6.55780061563989
H           41.12739783939220        3.93879202742331        7.75692985447980
H           40.23262409547264        5.44060565651386        7.40899369249286
C           40.56398442235196        2.30108915251717        9.91679993261032
H           40.27704667083417        1.33974063348272       10.35612046269086
H           41.23457769810900        2.81755710608060       10.61505976923978
H           41.10385981675096        2.10613361398229        8.98384508685072
C           36.12826669195770        7.42992501094238        5.81572794729290
H           36.73425549400245        6.65885718325156        5.32571592281345
H           36.79373841813062        8.24302083198344        6.13334418119011
H           35.40583710959137        7.81949324604254        5.09080702984635
C           33.07362363372803        7.91663420309864        6.85202967001657
H           32.03955074618288        7.57619133039077        6.92678377399627
C           33.34806950334084        9.11461379987891        6.26547946618659
H           34.36741812292313        9.47897669236913        6.20733925728283
H           32.56660251353171        9.74825747165711        5.85964590700315
C           30.16658951115601        6.47752361071081       10.92728747703352
H           29.95015972383623        6.47139244485258        9.85396964381953
H           30.38499955659247        7.50907430695592       11.23279946303894
H           29.27435700743220        6.12805921421438       11.45283304260198
C           30.71097232905042        4.40984289874384       13.44388197815110
H           30.99230029996912        3.53230577825251       14.02375379099975
C           29.63604953085268        5.12223296393425       13.86531961520714
H           29.31766946221014        6.01571497374917       13.34604393856579
H           29.06763454010730        4.82537899289606       14.73920954355853
C           34.51931115206558        1.24751074218630       15.04926730529626
H           33.65807223107136        0.64913675700461       14.72609838278191
H           34.15736429264024        2.05243208983693       15.69987828416780
H           35.19262508748053        0.59962875590520       15.61931930719576
C           37.63709625977094        0.97447452660354       14.26986724443883
H           37.79237434256534       -0.05335900028887       13.92109216319997
H           37.37461831205725        0.94838593770862       15.33272559245462
H           38.57393638120576        1.52978797989727       14.15167093392110
O           35.78933148988307        5.78078571366492       11.68432662155787
H           34.97891423843924        6.19410781741179       11.97748791237876
H           36.63946146034800        6.04008484738160       11.98591468925667
C           32.48269751038901        0.09893720771182        7.52586162957796
H           32.68014087793372       -0.92550634703828        7.86296315159206
H           32.46635044829555        0.11105845530873        6.42946731599067
H           31.50307557805602        0.40868076824741        7.90266794813706
N           34.86251413414920        0.90550218281853        7.74960145650339
H           35.25492955845832        0.19194456476288        7.16131602000221
C           33.53368247341684        1.02403854124633        8.04676331608671
C           35.54663320756836        1.87978068892933        8.37657470337682
H           36.61231588042639        2.02637607268629        8.30340209297460
N           34.69711810876777        2.60345703948149        9.06726792446083
C           33.43742724307108        2.09432136223854        8.88866816248828
H           32.58517510613979        2.53385699843948        9.37310662916395
78
 energy: -116.043452619584 gnorm: 0.039238699992 xtb: 6.7.1 (edcfbbe)
Fe          35.27566239145718        4.19839616880507       10.32768528318455
N           37.19390730999068        3.94950445380405        9.79859294916207
N           35.03440752770508        5.54635446829381        8.86495515568664
N           33.39523268684883        4.57784281484540       10.96278487233950
N           35.55462929397198        2.96271166226876       11.87990070884449
C           38.10494012211115        3.11607154313850       10.37524619512295
C           39.34319978194645        3.12495508634109        9.62646635118888
C           39.16423361764016        3.99730000174683        8.59654327794326
C           37.81361881975707        4.50148936700748        8.71703982560840
C           35.95474436733403        5.89559958935995        7.92363074172479
C           35.40170813602933        6.85593240499692        6.99625353519794
C           34.11126051654387        7.07818061510727        7.39370332773073
C           33.90416332540546        6.23842305904254        8.56439277334066
C           32.51101218817765        5.46585687545004       10.42479752909058
C           31.32575909506484        5.57094644555176       11.23594620792198
C           31.50678520670183        4.71775746413589       12.29950099720017
C           32.80635168054804        4.09369536300401       12.08657183018732
C           34.64786245299484        2.66320308104102       12.84782504466037
C           35.24238813297355        1.81014676964082       13.85729959047764
C           36.54197909078179        1.64209556240456       13.49569989959952
C           36.71143136511876        2.34538194955654       12.23849752617701
C           37.89948085722445        2.36725202430825       11.52557837121378
H           38.72138112610511        1.77125067401190       11.89692363865840
C           37.24967746692580        5.40492547097091        7.83039639938005
H           37.86072380290589        5.74661430056300        7.00718959294107
C           32.71594506648598        6.21317109320064        9.27202985613875
H           31.89931630593912        6.82696406788244        8.92001408238151
C           33.36215110352414        3.16240616146920       12.95080464269919
H           32.77156537949914        2.82629543791332       13.78985629363469
C           40.13532383737331        4.35418662793594        7.52134754356197
H           39.81211067625495        3.94531984368864        6.56293557026008
H           41.11741695686094        3.94999469658849        7.75178230531786
H           40.22635669161767        5.43311799243763        7.41498589059181
C           40.55429521957085        2.30251072871120        9.91865126080690
H           40.27751879181017        1.34696183185354       10.35635578479858
H           41.22178493225679        2.81516942486130       10.61168157886781
H           41.10339890888211        2.10814218758328        8.99989254973390
C           36.12238835769900        7.42447674278797        5.82172119836823
H           36.72777203167450        6.66347836280944        5.33290376986440
H           36.78502443824533        8.23466378794449        6.12956651437724
H           35.41121441826613        7.81535007123435        5.09856366806666
C           33.09485853184997        7.94559425441746        6.83518041296535
H           32.07108563719948        7.59393906178621        6.91696648198875
C           33.34395676880335        9.10540505822518        6.27107564059904
H           34.34786304565848        9.48842354700246        6.21039165676589
H           32.57033629321518        9.73171383409666        5.86034361294006
C           30.17314241874177        6.46381168316908       10.92106065407751
H           29.96616190302558        6.47074368253019        9.85325912950129
H           30.38256898089577        7.48919113858571       11.23103721927581
H           29.27661790758103        6.12473176376996       11.42855966037985
C           30.68011779993470        4.42479522957602       13.44428737486868
H           30.96932586745381        3.54748923620363       14.00999179826671
C           29.64085707266661        5.11955216424120       13.87065018895715
H           29.31688242187455        6.02106679949089       13.38632164177236
H           29.07456182567865        4.82078143917631       14.73511410641608
C           34.52583718016425        1.25401089885248       15.04178073020877
H           33.66866990741894        0.66069839174645       14.72348952026709
H           34.16318326053267        2.04899015526332       15.69246248247308
H           35.18625832320630        0.61022029748470       15.61632777990916
C           37.63138959236531        0.97010842626705       14.26143907541604
H           37.79221587786151       -0.05063759147478       13.91650535394042
H           37.37916449647251        0.93857415550203       15.31882320304586
H           38.56399060450361        1.51950475910254       14.15260122659046
O           35.79180652011215        5.80610260142532       11.66697617247722
H           35.00489156597159        6.22918327386046       12.01721253628858
H           36.64555705970633        6.06231865193241       12.01074255385574
C           32.48801260959836        0.10075046376873        7.52992645479694
H           32.67792933975187       -0.92045263310977        7.85771873073249
H           32.46828564104224        0.11177600363553        6.44102425126075
H           31.51502164388227        0.40777815304923        7.89875821522257
N           34.85507565848255        0.89727860885827        7.74092130156265
H           35.25183520104473        0.18510524724197        7.14982510714571
C           33.52998209643385        1.02205629566812        8.05306190961746
C           35.52831463771087        1.88084779384212        8.37997645395797
H           36.58666941383417        2.02227879901731        8.30640454937452
N           34.70415630289171        2.62182084976034        9.08183923089851
C           33.45730612907190        2.10257593435125        8.88959741385925
H           32.60498698513712        2.53777529738554        9.36783203427177
78
 energy: -116.047331465765 gnorm: 0.021334349445 xtb: 6.7.1 (edcfbbe)
Fe          35.27615080785874        4.20196933038575       10.33425985433529
N           37.19238512613877        3.94354921026898        9.79411870877864
N           35.02711179621654        5.51719176959242        8.84407495490839
N           33.39425998257155        4.57502944449589       10.96820320827845
N           35.55842093693975        2.96785941206542       11.88232796276236
C           38.10283330521172        3.11353213975531       10.36892393561006
C           39.34049335409473        3.11594150053129        9.62050512321989
C           39.16191887554244        3.98993257896096        8.59182240645378
C           37.81181936343170        4.49165450052393        8.71429012693814
C           35.94768954010456        5.87820176510637        7.91105272788606
C           35.40057841282708        6.84684125459902        6.99114882408768
C           34.11066439830955        7.06617933908493        7.39025540872174
C           33.90296905275680        6.21710875623805        8.55176396137014
C           32.51031418768500        5.45789241396811       10.42810067978319
C           31.32123412920723        5.56089602121887       11.23208153592189
C           31.49879466368343        4.70468453139593       12.29423977616073
C           32.79990958422581        4.08558264326112       12.08374002284821
C           34.65141124220798        2.65596872363156       12.84312273534081
C           35.24548188700058        1.80848415937543       13.85551888954952
C           36.54649105801781        1.64344574263998       13.49619146258706
C           36.71322951728945        2.35180226724721       12.24336781223396
C           37.89354195438315        2.37832870549016       11.52332313684241
H           38.71686675720035        1.78973836552069       11.89734101967198
C           37.24368108663971        5.39446673125955        7.83421354657768
H           37.86217878117892        5.75132169538603        7.02498085105893
C           32.72670203136570        6.19807862861882        9.27553304890254
H           31.92109723167843        6.83192757316565        8.93801849247390
C           33.36717621497987        3.15491367722824       12.93827955774587
H           32.78589346555773        2.82187534338462       13.78235107164124
C           40.12937310630282        4.35761187166632        7.52018054737392
H           39.80807361143192        3.95661782987378        6.55818681781439
H           41.11454459298031        3.95879558683873        7.74554683874776
H           40.21506847779696        5.43746531075092        7.42245880682834
C           40.55010261444874        2.30011833049247        9.92387958826929
H           40.27560292768968        1.34493985101106       10.36302954378891
H           41.20950196865738        2.81788679303243       10.62045854996346
H           41.11065840085563        2.10571526697793        9.01215619671753
C           36.12064052042037        7.41930769235931        5.82179294267558
H           36.72787385349445        6.66045354656876        5.33281969983932
H           36.78151044625952        8.23009858054050        6.13013842782628
H           35.41042049974715        7.81213495251465        5.09917297333275
C           33.10412744383093        7.94358526211951        6.82818424101695
H           32.08300214002135        7.59038013493585        6.90888730799601
C           33.34691287816771        9.11885995010701        6.25989068412469
H           34.34310479034131        9.52422996199057        6.20998036921318
H           32.56470986087078        9.73588002917858        5.85300642473329
C           30.17331198831861        6.45009840651286       10.90451128153009
H           29.99051535754496        6.47040275342856        9.83212673060513
H           30.37473150897330        7.47225898155235       11.23048769231944
H           29.26396927399030        6.10612132132693       11.38605998143679
C           30.66105604360892        4.42000555097333       13.43557357371168
H           30.93992813737024        3.53318893087373       13.98913714508073
C           29.63297147652994        5.12997901416987       13.89108195686400
H           29.31662575938332        6.05739220534019       13.44738248229543
H           29.07244353338737        4.81486617370227       14.75339096273233
C           34.52834608703609        1.25860562101786       15.03878024857466
H           33.67017971846157        0.66760389303305       14.72093920390906
H           34.16636140717043        2.05564203463427       15.68697664808990
H           35.18492288938649        0.61606332200751       15.61859551324638
C           37.63217379994453        0.95987300975877       14.25307232052468
H           37.79161079074277       -0.05806805081637       13.89929809761929
H           37.38246886801706        0.91742434588347       15.31052739815135
H           38.56648955805683        1.50683638204142       14.15056368082195
O           35.80815184741855        5.87265500182145       11.62988453328097
H           35.03681741054411        6.25621999206575       12.07834374277202
H           36.65516702216487        6.07498442650476       12.04794357301870
C           32.48856781577761        0.10706338326711        7.53581395972921
H           32.67776766586093       -0.91581059912897        7.85870909642318
H           32.47090931677219        0.11948715335591        6.44712501305235
H           31.51476598087242        0.41154823548929        7.90188303245586
N           34.85184004917593        0.89918994985889        7.74155491729086
H           35.24677472502377        0.18916536842954        7.14563146967207
C           33.52777764159046        1.02796182944777        8.06182359504306
C           35.52493447590138        1.88097396297431        8.38395332240739
H           36.58193241201031        2.01800295460478        8.30877162918481
N           34.71106542140900        2.62688188147464        9.09166930323054
C           33.46516821591965        2.10921097779251        8.89814545644902
H           32.61272692401338        2.54569241124311        9.37332163552452
78
 energy: -116.047759448400 gnorm: 0.058821593900 xtb: 6.7.1 (edcfbbe)
Fe          35.27716112695143        4.20584801459512       10.33346671126430
N           37.19209731126802        3.93866708910108        9.78851973315424
N           35.01915772032430        5.48856409698584        8.81983204066110
N           33.39376188550803        4.57156458450345       10.97339545974316
N           35.56597899246165        2.98637068150504       11.89104412630181
C           38.10226039329626        3.11123107567031       10.36412024026905
C           39.33769804361545        3.10786158270222        9.61424589604216
C           39.15904392224475        3.98197111430251        8.58559070369914
C           37.80990484302509        4.48270423199613        8.70777378934006
C           35.94193821139940        5.85804009689593        7.89442279733711
C           35.39952273633085        6.83722658428533        6.98530146701834
C           34.11037252946028        7.05790745307241        7.38746986644856
C           33.89910494910740        6.19736789478675        8.53765972446098
C           32.51005875263002        5.45066665020018       10.42829315571220
C           31.31789619892310        5.54932420694859       11.22734493194119
C           31.49185930905039        4.69222411206216       12.28858086453377
C           32.79391205472125        4.07780452598323       12.08446842524070
C           34.65602968356702        2.65970072347356       12.84500941814932
C           35.24908312652288        1.80886929088962       13.85221851803087
C           36.55142987133814        1.64758010529137       13.49532531237227
C           36.71946752202813        2.36454577439956       12.25002837720250
C           37.89341701230006        2.39071584777753       11.52457273196744
H           38.71897361403033        1.80817329482487       11.90164607102550
C           37.23950180568867        5.38372857328624        7.83189264305584
H           37.86680492675225        5.75828120398828        7.03740761303008
C           32.73492119841924        6.18670183473065        9.27739761932479
H           31.94145273702447        6.84334657362039        8.95496306188148
C           33.37006113917705        3.15169190626879       12.93402850604918
H           32.79293896986488        2.81432186692617       13.77854190561683
C           40.12313624885855        4.36270563293161        7.51596076831551
H           39.80205406449218        3.97222880982756        6.54883703745697
H           41.11223167987960        3.96794455429513        7.73521694681483
H           40.20034612902394        5.44562099199307        7.43194045352555
C           40.54710172875945        2.29706327591433        9.93147813900743
H           40.27202995678084        1.34119494584355       10.37120047857977
H           41.19396811021975        2.82178167850179       10.63641716198822
H           41.12229678016644        2.10325418512997        9.02751319041418
C           36.11974776655513        7.41432645534412        5.81928574415711
H           36.72923973953623        6.65656278905913        5.32949392077226
H           36.77876484299103        8.22604268078291        6.13097130989213
H           35.40781449522402        7.80959626370455        5.09814613891405
C           33.11428153185638        7.94473986179150        6.82490356606698
H           32.09314312308136        7.59283109727716        6.89237442115677
C           33.35292219478858        9.12811117552284        6.25992423067419
H           34.34259140527764        9.54721330960781        6.20669948202891
H           32.55873384655630        9.72694658300424        5.84719846784440
C           30.16771305212292        6.43145405805571       10.89411603510493
H           30.01001333379582        6.46583923774826        9.81605604994593
H           30.35744753684569        7.45116817005512       11.23730557287994
H           29.25372915472084        6.07396014503529       11.36101644701867
C           30.64398926445347        4.41630922109685       13.42449284046413
H           30.88939339105785        3.50381110859706       13.95504774388265
C           29.63487746239091        5.14820848732193       13.90186665824905
H           29.32279330794643        6.08562169812382       13.47721589576534
H           29.07681638093662        4.81661294562429       14.76211154499316
C           34.52957932134015        1.26267139159321       15.03560388843094
H           33.66834853361298        0.67474753458375       14.71860432996469
H           34.17039570651795        2.06506145050387       15.68063375802638
H           35.18340999160981        0.62029731206241       15.62024369043461
C           37.63437081304542        0.94502104949187       14.24055802246962
H           37.78728921690153       -0.06830893472192       13.86718262275306
H           37.38559702114015        0.88287339344411       15.29856495926437
H           38.57345381902786        1.48747524757924       14.14701166624561
O           35.83208617364495        5.97639670760016       11.56034443263570
H           35.08082235031860        6.27217200079888       12.14858423501846
H           36.65645260198112        6.06833384041096       12.12153938355462
C           32.48518884360031        0.11791479191891        7.54326991401074