78
 energy: -116.058073370293 gnorm: 0.000059757018 xtb: 6.7.1 (edcfbbe)
Fe          35.35799727254373        4.28830343707741       10.39267315927588
N           37.23002830386032        3.95956995507509        9.79570572362302
N           35.06043063489478        5.51170094813280        8.84704572077979
N           33.49009009285361        4.65953972342573       11.05177229230961
N           35.66457377224067        3.09437793160207       11.98563227642480
C           38.16474688940285        3.18286853772282       10.40297805118005
C           39.40890838083045        3.20383648722496        9.66366802459809
C           39.19924055366425        4.01006847883574        8.59003221251245
C           37.83075730664304        4.47145346254580        8.69003848462965
C           35.94584016836215        5.80104660926932        7.85786223912045
C           35.37067130634884        6.71520330644840        6.90303557399574
C           34.10314200715508        6.98482673467949        7.34399641550006
C           33.93153515809277        6.20886865135348        8.55891582282787
C           32.56722074758674        5.47290684748084       10.46509461277920
C           31.33609726583292        5.47189438195591       11.21052617491153
C           31.52856488974205        4.62501389772882       12.27102325698418
C           32.88062615868080        4.12043820030723       12.14004922180093
C           34.75920201673176        2.76078149448363       12.94581584646376
C           35.33703979786284        1.83377034991647       13.89198530230547
C           36.61424637458582        1.61082469525109       13.47824083463635
C           36.79871446927296        2.40405288314782       12.28497271430029
C           37.97497000970670        2.44891203278781       11.55947187236095
H           38.80601481516440        1.86305123547928       11.92175717894797
C           37.24019065218121        5.31907866384106        7.77584915721712
H           37.84270451906646        5.64778542152521        6.94294220103296
C           32.77312614828487        6.21026626299417        9.31133146493035
H           31.96021226160515        6.83469836962840        8.97350775135962
C           33.46579398454641        3.24001881172790       13.03139069323247
H           32.86613388372549        2.89662159028118       13.86012125902205
C           40.13818768083362        4.39282775887884        7.49810815401599
H           39.74511091183209        4.08608283129652        6.52847019794796
H           41.10839330028779        3.92253925027507        7.63865584594730
H           40.28023570025398        5.47337943299937        7.47881420853693
C           40.63879105897408        2.46367812234851       10.06556259089225
H           40.44807342562087        1.39059307817428       10.10443643469044
H           40.97212019841695        2.78322959717152       11.05308500280421
H           41.44522862790544        2.64173298013751        9.35857478917974
C           36.03952285441292        7.19030107579629        5.66079924658170
H           36.62913873138317        6.39257539669531        5.21151261776479
H           36.70852613654222        8.02523514447256        5.87507437686746
H           35.29550362890676        7.52280863368443        4.93964917605788
C           33.08776174918003        7.82713626186888        6.75178851927885
H           32.06470575607864        7.49408989588721        6.88557010325727
C           33.31334677229712        8.95220345387453        6.08095654928631
H           34.30242457954935        9.35740318850877        5.95874786400869
H           32.50676438441840        9.52417881382200        5.65287657339530
C           30.09897707450699        6.20499688054137       10.82470292921325
H           29.95949688655572        6.18498577106961        9.74483252657187
H           30.15064435049807        7.24914761783773       11.13793648617263
H           29.23167239314649        5.74732000626449       11.29613484482842
C           30.60736850063273        4.25127120253140       13.32129512494679
H           30.70144966734172        3.23517120958845       13.68691260908332
C           29.68860045076487        5.04645473857641       13.85981024652044
H           29.58207003408559        6.07739985571654       13.57050003997149
H           29.02444603457882        4.69712034748392       14.63292278829855
C           34.61423180400801        1.27237887138027       15.06810275710262
H           33.73266414526743        0.71723694776509       14.74649981901645
H           34.28551407982819        2.07066589977585       15.73406938078514
H           35.25573458779468        0.59935819431085       15.63171955957123
C           37.66505834980418        0.74266576456976       14.08137278668125
H           37.98523985668575       -0.02247394888370       13.37349129439715
H           37.29209754911248        0.24744362784887       14.97447514779090
H           38.53897494316904        1.33359578229541       14.35665967477231
O           36.02190655119912        6.02327356262945       11.73693978131057
H           35.16570280150742        6.38828995219429       11.98565163339962
H           36.34752595257381        5.52385567774266       12.49370103878745
C           32.42735065722995        0.84057261060121        7.13741774628729
H           31.92192221701191        0.00536769758413        7.62224085585388
H           32.88426287064107        0.47511203446323        6.21787917981357
H           31.68837277694938        1.59393549944964        6.88348061321279
N           34.51882573279572        0.71495060349411        8.50925069628833
H           34.71618734533124       -0.25092400587810        8.30498638247311
C           33.45068313082461        1.43139499468569        8.03643590910894
C           35.24968789716095        1.53850539750909        9.29406274694627
H           36.14657379585711        1.24675417316861        9.80043498598397
N           34.70942437715401        2.73179001244829        9.34691084308608
C           33.59006653887916        2.68086003690382        8.56907039599543
H           32.96361130872633        3.53974866649308        8.44598138613136
