78
 energy: -115.959865551359 gnorm: 0.264365741025 xtb: 6.7.1 (edcfbbe)
Fe         -12.29500000000000       -1.58500000000000        1.39700000000000
N          -12.85100000000000        0.33200000000000        0.67500000000000
N          -10.57200000000000       -1.35300000000000        0.33400000000000
N          -11.64800000000000       -3.37400000000000        2.16300000000000
N          -13.91700000000000       -1.59100000000000        2.66800000000000
C          -14.02000000000000        0.97700000000000        1.02300000000000
C          -13.94800000000000        2.33800000000000        0.50100000000000
C          -12.78300000000000        2.47700000000000       -0.16400000000000
C          -12.07700000000000        1.20700000000000       -0.06600000000000
C          -10.18600000000000       -0.29600000000000       -0.47000000000000
C           -9.00900000000000       -0.68500000000000       -1.19700000000000
C           -8.66800000000000       -1.94200000000000       -0.84100000000000
C           -9.64700000000000       -2.38900000000000        0.12800000000000
C          -10.47900000000000       -3.99400000000000        1.81800000000000
C          -10.33200000000000       -5.13700000000000        2.71300000000000
C          -11.40200000000000       -5.14000000000000        3.56000000000000
C          -12.24200000000000       -4.01700000000000        3.21500000000000
C          -14.26000000000000       -2.65600000000000        3.49500000000000
C          -15.63000000000000       -2.48500000000000        3.91800000000000
C          -16.10300000000000       -1.19300000000000        3.28300000000000
C          -15.00900000000000       -0.71000000000000        2.50900000000000
C          -15.04000000000000        0.44400000000000        1.76500000000000
H          -15.98000000000000        0.99600000000000        1.76500000000000
C          -10.83400000000000        0.92100000000000       -0.58500000000000
H          -10.32100000000000        1.71500000000000       -1.12800000000000
C           -9.65400000000000       -3.59900000000000        0.77100000000000
H           -8.93100000000000       -4.33600000000000        0.42200000000000
C          -13.43600000000000       -3.69100000000000        3.83000000000000
H          -13.75000000000000       -4.32100000000000        4.66200000000000
C          -12.22000000000000        3.71300000000000       -0.92000000000000
H          -12.94500000000000        4.55200000000000       -0.85000000000000
H          -12.06400000000000        3.45900000000000       -1.99000000000000
H          -11.25900000000000        4.02800000000000       -0.46100000000000
C          -15.07800000000000        3.36800000000000        0.71200000000000
H          -15.47800000000000        3.27300000000000        1.74400000000000
H          -15.89900000000000        3.17800000000000       -0.01200000000000
H          -14.68000000000000        4.39600000000000        0.57300000000000
C           -8.27500000000000        0.19800000000000       -2.22500000000000
H           -8.40200000000000        1.26800000000000       -1.95300000000000
H           -8.70200000000000        0.03000000000000       -3.23700000000000
H           -7.19100000000000       -0.04700000000000       -2.22500000000000
C           -7.45200000000000       -2.77500000000000       -1.34600000000000
H           -6.94500000000000       -3.42200000000000       -0.61700000000000
C           -6.94000000000000       -2.79700000000000       -2.58800000000000
H           -7.38200000000000       -2.18100000000000       -3.38500000000000
H           -6.07300000000000       -3.43100000000000       -2.82300000000000
C           -9.11500000000000       -6.10200000000000        2.68600000000000
H           -8.21200000000000       -5.55100000000000        2.34700000000000
H           -9.31300000000000       -6.93700000000000        1.98000000000000
H           -8.93100000000000       -6.50300000000000        3.70600000000000
C          -11.78700000000000       -6.07500000000000        4.74500000000000
H          -12.35600000000000       -5.67700000000000        5.59800000000000
C          -11.44200000000000       -7.38200000000000        4.76600000000000
H          -10.87300000000000       -7.82300000000000        3.93400000000000
H          -11.72600000000000       -8.02100000000000        5.61500000000000
C          -16.48700000000000       -3.36700000000000        4.84500000000000
H          -16.36900000000000       -3.02500000000000        5.89600000000000
H          -16.15400000000000       -4.42400000000000        4.77000000000000
H          -17.55700000000000       -3.28500000000000        4.55800000000000
C          -17.51100000000000       -0.58900000000000        3.45200000000000
H          -17.91900000000000       -0.87200000000000        4.44600000000000
H          -18.18500000000000       -0.98100000000000        2.66100000000000
H          -17.45400000000000        0.51900000000000        3.38800000000000
O          -11.23500000000000       -0.26600000000000        2.95200000000000
H          -11.55600000000000        0.62400000000000        2.80600000000000
H          -10.64600000000000       -0.51800000000000        3.56800000000000
C          -15.72400000000000       -4.88300000000000       -1.70300000000000
H          -15.25100000000000       -5.76800000000000       -2.18000000000000
H          -16.36400000000000       -4.36900000000000       -2.45200000000000
H          -16.34200000000000       -5.22300000000000       -0.84500000000000
N          -13.72900000000000       -3.36600000000000       -2.05900000000000
H          -13.68200000000000       -3.52800000000000       -3.04500000000000
C          -14.65400000000000       -3.94200000000000       -1.21800000000000
C          -12.92700000000000       -2.57700000000000       -1.36000000000000
H          -12.12400000000000       -1.97700000000000       -1.78700000000000
N          -13.27500000000000       -2.65300000000000       -0.08500000000000
C          -14.35100000000000       -3.50300000000000        0.03100000000000
H          -14.80000000000000       -3.71600000000000        0.99300000000000
78
 energy: -116.019964124287 gnorm: 0.112216857827 xtb: 6.7.1 (edcfbbe)
Fe         -12.27941490666608       -1.56094013066360        1.40400026973531
N          -12.84803505946172        0.32855079604691        0.68356069040403
N          -10.57213830709711       -1.37684778613141        0.31014972281752
N          -11.64514204383017       -3.34031274696308        2.18095607500909
N          -13.92711829623020       -1.60269519222579        2.62808409531331
C          -14.00358655641582        0.97834339791461        1.02573207294851
C          -13.96085447149756        2.33712390525986        0.49348908539777
C          -12.78161004173541        2.47755572920126       -0.16682204241201
C          -12.08363869776650        1.20275090965287       -0.04767943748847
C          -10.18204172578051       -0.32027495293284       -0.47503867753210
C           -8.99155599854434       -0.68619186428904       -1.20876347678686
C           -8.65487450697070       -1.96196704441217       -0.85658257133009
C           -9.64737242876368       -2.39013141501996        0.12139635753416
C          -10.50400906793126       -4.00125314120029        1.82836302720933
C          -10.33567729198887       -5.14784835351258        2.71741590498452
C          -11.40395124947969       -5.14796402813338        3.57955525453695
C          -12.23157911780953       -4.00553100375204        3.21976958696670
C          -14.28403099562065       -2.62602658184436        3.47595096310065
C          -15.64835789499776       -2.44293721136547        3.91322592747020
C          -16.10122350651520       -1.23639547980106        3.30395197777708
C          -15.00985741811592       -0.74350311748970        2.51795078138553
C          -15.03039791485194        0.43839709625681        1.78294071712740
H          -15.96850253418942        0.98720727727242        1.75647492609281
C          -10.83846453536708        0.90567936235867       -0.57795480387387
H          -10.33607557141334        1.69581692344923       -1.12989590745308
C           -9.66190647348486       -3.60594814619860        0.78132485914569
H           -8.92209297534856       -4.32956616252083        0.44988024659708
C          -13.44172286889602       -3.67819670535949        3.82045222202573
H          -13.76171879630556       -4.31821080168860        4.63796697129174
C          -12.23188601999872        3.69182058018731       -0.90431743448947
H          -12.93459769933815        4.53043417437706       -0.84864902839271
H          -12.06727188873468        3.45653098694389       -1.96282936299201
H          -11.27876662293247        4.01448408010056       -0.46774742064793
C          -15.06354150981992        3.35536377298034        0.70921702916892
H          -15.46694012197209        3.27330054055656        1.72490100335102
H          -15.88205386471879        3.18210345772860       -0.00013270376679
H          -14.68696007436635        4.37455430354137        0.57140238417547
C           -8.27991201143326        0.19501049440000       -2.21225470766667
H           -8.39911446719741        1.25317152179876       -1.95725513253025
H           -8.69260441549671        0.03480039159528       -3.21643422548844
H           -7.21160798016271       -0.04509330685644       -2.22322824686970
C           -7.47694749778952       -2.76615936247435       -1.34011661001629
H           -6.98343143319215       -3.40359054139213       -0.60553471821609
C           -6.96061841941447       -2.78290835323960       -2.56927742667905
H           -7.38128180434475       -2.19225930544153       -3.37501782156459
H           -6.10248123062860       -3.40776353218666       -2.81013702589749
C           -9.13579454424677       -6.08489734388975        2.68683534122997
H           -8.23655298582711       -5.55473077021803        2.35202140608495
H           -9.31412836393378       -6.91855751913871        1.99524090337042
H           -8.94206425764891       -6.49257210846084        3.68550085316635
C          -11.75767765321088       -6.07186807334681        4.71443341114139
H          -12.33122544710697       -5.66383439025949        5.54941874536479
C          -11.43506632979952       -7.36495566979469        4.75441821541109
H          -10.88396568889824       -7.82544279237064        3.94476060109259
H          -11.71971472795686       -7.99872472214738        5.59191719800321
C          -16.46781454674464       -3.34015247053523        4.82505796125273
H          -16.36684727349728       -3.02634182210728        5.87376996761509
H          -16.15351173786948       -4.39029870172484        4.76118571430827
H          -17.52994643546147       -3.28418976206095        4.55993152530940
C          -17.47856011076048       -0.61201571562710        3.45585966146624
H          -17.90763943339335       -0.87064997266554        4.43003627887468
H          -18.16328542327693       -0.97569176262982        2.67678257538468
H          -17.44178575991373        0.48364214230611        3.38700465085003
O          -11.25200927137931       -0.27183040924269        2.94120179821893
H          -11.54802558588506        0.62785844530343        2.81550580383456
H          -10.62392486671863       -0.51497644583318        3.59536961620592
C          -15.71569168198963       -4.88116965719041       -1.70322938830446
H          -15.26264390678877       -5.76036034310370       -2.17642410203134
H          -16.35741269920389       -4.38187832500475       -2.43944114017079
H          -16.32925732136349       -5.21358865917640       -0.86143634220081
N          -13.74228129617923       -3.37073491191921       -2.06606559775695
H          -13.69271120704509       -3.53196778203314       -3.05691033133320
C          -14.65261094861819       -3.94958371714973       -1.21946811584828
C          -12.93253933625391       -2.57953948589479       -1.34713908279901
H          -12.13624067619603       -1.98829364549608       -1.76920958991253
N          -13.26961342720818       -2.63108067461913       -0.07442631474202
C          -14.33632151551695       -3.48907365384293        0.02592197894316
H          -14.78616722549103       -3.70198271465369        0.97913242849834
78
 energy: -116.039767173163 gnorm: 0.042242825744 xtb: 6.7.1 (edcfbbe)
Fe         -12.27454236591124       -1.54470281476405        1.40741046158112
N          -12.84173096404042        0.31992656265666        0.70038926586250
N          -10.57578405100091       -1.39920953763204        0.29645734994492
N          -11.64005584643071       -3.30350290669135        2.19923074466716
N          -13.93685892561192       -1.61096426257644        2.58938947797338
C          -13.99463114760903        0.96578505429481        1.01821200112685
C          -13.96709567557341        2.32516461851560        0.49446236663668
C          -12.77659462174007        2.46624638530035       -0.16105833095837
C          -12.08704572601720        1.18911109172304       -0.02847372349482
C          -10.18678174528508       -0.34683461070227       -0.47856077052728
C           -8.98810649679214       -0.69203668647036       -1.21666627119576
C           -8.65497535308742       -1.97931529387476       -0.86471911041256
C           -9.65877484081359       -2.39370668235659        0.11659975314601
C          -10.51949616550908       -3.99137935300071        1.84236951051023
C          -10.34433559600708       -5.14673380084298        2.71194574875432
C          -11.40917035628681       -5.14345379767231        3.58732571301549
C          -12.22041776318604       -3.98120864696225        3.22694923526424
C          -14.29543621231677       -2.60644543448641        3.44782777038768
C          -15.65848719864751       -2.40732475863678        3.90050672616966
C          -16.09315088895472       -1.26940369973747        3.31960626207331
C          -15.00902577807003       -0.77536182209501        2.49928262184730
C          -15.03165055820176        0.41516664498928        1.76829486471507
H          -15.94467483812335        0.99845912134282        1.81464919097799
C          -10.84652753301120        0.88204177421973       -0.57393464341921
H          -10.35527247472313        1.66648404310232       -1.13713665396733
C           -9.66674103797789       -3.60677165156279        0.79776675425998
H           -8.90708746192165       -4.31827603476915        0.49288274257063
C          -13.44650226603665       -3.66228609256410        3.80611423950959
H          -13.78289119208830       -4.31455216040973        4.60351135322709
C          -12.24261649147030        3.66204676666259       -0.88714397204798
H          -12.93598729547202        4.49823347712113       -0.83671579342774
H          -12.07299989236925        3.43817536339946       -1.94037776206099
H          -11.29309640557843        3.98996351335182       -0.46366766735309
C          -15.04888543836575        3.33587884555986        0.70369424467318
H          -15.45331048933608        3.26440794507547        1.71110845164885
H          -15.86886036573498        3.17717446092768        0.00289464460288
H          -14.67955177982002        4.34877951592750        0.56355918408140
C           -8.28575594761666        0.18783676746939       -2.19549144673265
H           -8.40082691012578        1.23905975123540       -1.94746121148019
H           -8.68942558352841        0.03816572868349       -3.19764426593703
H           -7.22498614702624       -0.04894321241586       -2.22414670290877
C           -7.51392797926127       -2.75719452515939       -1.32283629079341
H           -7.03842759260186       -3.39251319857115       -0.58199054701421
C           -6.98985169738549       -2.76787218890603       -2.54558856629428
H           -7.39239446636458       -2.19614051912877       -3.36249624879505
H           -6.13219838569363       -3.37934091785356       -2.78734628838010
C           -9.16338432102237       -6.06537346738121        2.68403432741355
H           -8.26725010258984       -5.54338477743692        2.35402348713822
H           -9.32735876754629       -6.90050600614778        2.00123707453439
H           -8.96823248526099       -6.47589710888133        3.67290655341735
C          -11.73676759911263       -6.05429626189250        4.67211348287807
H          -12.30654876996720       -5.63364554224343        5.49614706541639
C          -11.42468072042086       -7.34402748534552        4.73452908039151
H          -10.88741774468280       -7.83236372437069        3.94320862280859
H          -11.70861589133045       -7.96722878128530        5.56932708028447
C          -16.44630698030318       -3.31166163656973        4.80507605295427
H          -16.34971892645676       -3.01291642353251        5.85149589405360
H          -16.13068380852085       -4.35212326767565        4.73544463340893
H          -17.50478789383543       -3.27216263056266        4.55173299773486
C          -17.44656865569556       -0.63466300015512        3.46001306414387
H          -17.88831987915967       -0.87970820920369        4.42330019787727
H          -18.13103218594983       -0.98417594363762        2.68292238880847
H          -17.40506503199336        0.45157665250443        3.38397819841383
O          -11.27372782546014       -0.29096002406345        2.94666892628069
H          -11.52090548487660        0.62905061384192        2.83877590366852
H          -10.61088383993529       -0.50204017834189        3.60655001413400
C          -15.70688377872815       -4.87994451585025       -1.69863475829534
H          -15.26611819079204       -5.75558511660919       -2.17175764024054
H          -16.34805990335133       -4.38735053692752       -2.42819822674831
H          -16.31847663188353       -5.20677933171564       -0.86581725171257
N          -13.75033803743990       -3.37223557875638       -2.07360421998719
H          -13.69895234089422       -3.53250833512363       -3.06663069415897
C          -14.64884925879264       -3.95320257936391       -1.21882661130368
C          -12.93839359172353       -2.57688401129479       -1.34271088663576
H          -12.14474898836332       -1.99355740957309       -1.76020066791553
N          -13.26395697941065       -2.61436053546793       -0.07384873837338
C          -14.32445932303487       -3.47273610372728        0.02041300770176
H          -14.77555811273985       -3.68798156492583        0.96734722988195
78
 energy: -116.046141239570 gnorm: 0.024481115822 xtb: 6.7.1 (edcfbbe)
Fe         -12.27643717300455       -1.53730905115162        1.41033767000550
N          -12.84460704332690        0.30340577472457        0.70905511809825
N          -10.59131293957690       -1.41085422110321        0.29057113426965
N          -11.63509438967698       -3.27502296303712        2.20705876893876
N          -13.94740985335015       -1.62281367693166        2.55540528291721
C          -13.99070470062141        0.95617342104155        1.02640565914315
C          -13.96704030252610        2.30626754559421        0.49477640075124
C          -12.77568149266749        2.44317814578399       -0.15595769828049
C          -12.09060429791889        1.16922516484367       -0.02062313430198
C          -10.20304565685401       -0.36281390594130       -0.48551133861665
C           -9.00558523732263       -0.70118452938515       -1.22138306584325
C           -8.67529679235116       -1.98632615517288       -0.86438003439593
C           -9.67307623253913       -2.39710281309748        0.11806456248090
C          -10.52077509170046       -3.96929176859557        1.84873884723858
C          -10.35214278659809       -5.12904834623248        2.70031107805690
C          -11.41283098053866       -5.12554266252113        3.57522377295229
C          -12.21616950722701       -3.95889824758024        3.22551882840167
C          -14.29126361557023       -2.60984631605850        3.42510094385449
C          -15.64808102555101       -2.40960449950676        3.89597114371317
C          -16.09484697867865       -1.27001634081560        3.30445968894908
C          -15.00883255919198       -0.77802178935461        2.48197397035035
C          -15.02983289469715        0.41719103223985        1.77361711972026
H          -15.93606775704860        1.00574393517755        1.83179971364845
C          -10.85919757608694        0.86215080743032       -0.57873195241192
H          -10.37825470357931        1.63937810224732       -1.15763158196321
C           -9.66354362039436       -3.59952845818456        0.81219615613471
H           -8.88248549340604       -4.30214569108614        0.54029145967583
C          -13.44819824208736       -3.65688188461277        3.79155943719558
H          -13.80307282975896       -4.32201342923251        4.56930117508755
C          -12.24311414787550        3.63511115584106       -0.87635707166922
H          -12.94158300236582        4.46654302351385       -0.82183525086906
H          -12.07513791877407        3.40865564210746       -1.92900255345181
H          -11.29364405765131        3.96101475741494       -0.45134974431570
C          -15.04237641422487        3.31921597710278        0.69731781173657
H          -15.44388518939301        3.25560562636231        1.70669338001199
H          -15.86424522131124        3.16116535278264       -0.00165269616321
H          -14.66441792280838        4.32784049499380        0.54853108674224
C           -8.29346894884526        0.18324624062282       -2.18492497147254
H           -8.40453173398135        1.23262840756272       -1.92527628949288
H           -8.69212608459106        0.04618667664778       -3.19173102294082
H           -7.23345851915606       -0.06005322786704       -2.21040817115507
C           -7.54136889608296       -2.76455815229203       -1.30491299639103
H           -7.08599562920023       -3.40619911747018       -0.55747396736591
C           -7.00904239311427       -2.76157734746227       -2.52384817755493
H           -7.41457719999143       -2.19421874466717       -3.34263857145358
H           -6.14660677884505       -3.36323267208290       -2.76225479773508
C           -9.18176618511036       -6.05035122146919        2.67491398669190
H           -8.28562091787213       -5.52635665688520        2.34924556676080
H           -9.34760176047865       -6.88524820717535        1.99258248659335
H           -8.99868203736679       -6.45923398854326        3.66685943520302
C          -11.72841985383008       -6.03710496165585        4.64851281030648
H          -12.29680382452880       -5.60906562266476        5.46706977747672
C          -11.41290143059944       -7.32714820415357        4.71692938627028
H          -10.88942044745405       -7.83237458507660        3.92469811655763
H          -11.69455479229553       -7.93916704215950        5.55808295226235
C          -16.42405008821641       -3.30675451455408        4.80367146878777
H          -16.31866333232338       -3.00125648253575        5.84560819221662
H          -16.09536731351160       -4.33974039531784        4.71884827312789
H          -17.48187981546334       -3.26646851763628        4.54926707728645
C          -17.43799779109609       -0.63770014605542        3.45527224279316
H          -17.87258621279376       -0.88846999171788        4.41977652993809
H          -18.11593024304524       -0.98825031539773        2.67505678525416
H          -17.37713510889922        0.44540717088069        3.38121329685602
O          -11.30761207371205       -0.31141347974652        2.99779233971576
H          -11.47030898007355        0.63236620774091        2.85935160600936
H          -10.58564838206106       -0.49985943586223        3.61050945879684
C          -15.69806642030837       -4.87743262396356       -1.69061814643304
H          -15.26024590351920       -5.75499349459440       -2.16405137961828
H          -16.34216345108172       -4.38738100667011       -2.41978122204127
H          -16.30776480310850       -5.20172051555523       -0.85514499532616
N          -13.74930938713965       -3.36539202368236       -2.07903165810382
H          -13.70095681949356       -3.52741316160740       -3.07200153017251
C          -14.64152621582542       -3.94685295455809       -1.21715608059235
C          -12.93836358080154       -2.56489613070406       -1.35077813691756
H          -12.14347393151619       -1.98512410187710       -1.76885831727883
N          -13.26049010585862       -2.59609578214560       -0.08207588954453
C          -14.31635116126734       -3.45678534940741        0.01763678165560
H          -14.76726579728536       -3.67054373784150        0.96420366323797
78
 energy: -116.048582668767 gnorm: 0.053569188885 xtb: 6.7.1 (edcfbbe)
Fe         -12.28288078863501       -1.53216909293782        1.41219004954554
N          -12.84484338138478        0.28229359635274        0.72726849441368
N          -10.60676568055060       -1.41370281700859        0.30043610471687
N          -11.63722953757706       -3.24602113145497        2.20736476786925
N          -13.94717241736642       -1.62763748332500        2.52542288102499
C          -13.99059826035896        0.94024674840550        1.03434238558693
C          -13.96622981539539        2.28245342371744        0.49882113272039
C          -12.77610927083885        2.41431397699035       -0.14947522697910
C          -12.09552495133793        1.14500273266520       -0.01158312657400
C          -10.22271478886116       -0.37606269504572       -0.49094149737760
C           -9.02978733318112       -0.71200698064328       -1.22547868407015
C           -8.69922031565926       -1.99150107682250       -0.85782757951766
C           -9.68742392574106       -2.39511637575244        0.12771495375526
C          -10.52251611219596       -3.94066395536951        1.85357741238527
C          -10.36281424486022       -5.10499980935982        2.68661097078695
C          -11.42241501670377       -5.10449519828863        3.55737330899806
C          -12.21935649581022       -3.93741778753935        3.21671019222162
C          -14.28483231779095       -2.61247863131221        3.39628405258565
C          -15.63483348133223       -2.41291759590953        3.88055584136946
C          -16.08761691422389       -1.26837737892481        3.29365740635420
C          -15.00718924306410       -0.78348677398467        2.46057205865341
C          -15.03338239968884        0.41530434555780        1.77598490588788
H          -15.93050688654472        1.01268922940067        1.85207485434987
C          -10.87697096117567        0.84183871508862       -0.58930085730241
H          -10.41042839221815        1.61062750030638       -1.18892226152035
C           -9.65529146390866       -3.58541742120466        0.83241701754141
H           -8.86020739682188       -4.27992975235180        0.59073192014281
C          -13.45703810189440       -3.65559911552473        3.76900529896091
H          -13.82767762382864       -4.32906656070011        4.52972546553343
C          -12.24081080067414        3.60350074353738       -0.86958977210729
H          -12.94148358323937        4.43337048683082       -0.81095828794284
H          -12.07378874797477        3.37596901067826       -1.92260506506686
H          -11.29094119880027        3.92548729757076       -0.44139497981304
C          -15.03801539398292        3.29992711527374        0.69125624644817
H          -15.43717200268787        3.24878222044231        1.70315829948925
H          -15.86120049108373        3.13753154274540       -0.00605513069115
H          -14.65169429372700        4.30455227381313        0.52932877559437
C           -8.30550956306790        0.17798635715922       -2.17450263737189
H           -8.40855239632814        1.22485964115933       -1.89519092990155
H           -8.69808210414470        0.06149743541843       -3.18773866075777
H           -7.24655788709283       -0.07634247284912       -2.19327523042522
C           -7.56766157994850       -2.77961786803695       -1.28510793397864
H           -7.13256984957353       -3.42708243278298       -0.53131283673688
C           -7.02798081215417       -2.76256334766562       -2.50067769487888
H           -7.43141607921871       -2.18197798176416       -3.31153617748425
H           -6.16174872487387       -3.35717062387167       -2.73790286834473
C           -9.19983245567850       -6.03319538573703        2.66273474858397
H           -8.29854957664744       -5.51300464435118        2.34362526558318
H           -9.36961865184977       -6.86604026053700        1.97848163325251
H           -9.03105910782898       -6.44331098469375        3.65768508908445
C          -11.73176417898476       -6.02032551707484        4.62723021618031
H          -12.29059604143558       -5.58794231462591        5.44879291491585
C          -11.40798264009563       -7.30920564824805        4.69458363763766
H          -10.88774057796890       -7.82169351988271        3.90437374435050
H          -11.67369204527768       -7.90884472160949        5.54922699993379
C          -16.39671040539073       -3.30543510054490        4.79859084744793
H          -16.27800930730830       -2.99506951051606        5.83728729864290
H          -16.05920307160455       -4.33406899850956        4.70764928122401
H          -17.45787132294195       -3.26886501072035        4.55553919960904
C          -17.42665986887041       -0.63866500024378        3.45165287634652
H          -17.85954974470156       -0.89541278322618        4.41583308639953
H          -18.10408540167511       -0.98434678220708        2.66900219826241
H          -17.35652934446972        0.44325930336082        3.38320856237891
O          -11.38087152071663       -0.34160462517402        3.09054907684986
H          -11.39723346775865        0.62893724439760        2.87095410825298
H          -10.52864518369799       -0.48732010642419        3.58528305044037
C          -15.68687947763485       -4.87284811247920       -1.67970296342703