78
 energy: -116.057559431114 gnorm: 0.000095700149 xtb: 6.7.1 (edcfbbe)
Fe          14.41895202071888       54.40048455958135       19.13224053870044
N           13.03569418872200       55.76616057312544       18.60396701178621
N           13.97805390873975       53.32834109735103       17.51078998466422
N           15.85840497776336       53.11495832252510       19.61532452912699
N           14.85907075986089       55.50315868584049       20.75593462547671
C           12.67117407520925       56.87770674357428       19.29890228277633
C           11.63304803751692       57.59973128564239       18.59910100890306
C           11.37432254837964       56.89521036859134       17.46399595204774
C           12.25205813489487       55.74744564834518       17.48968505446964
C           13.05783928871434       53.62646484016118       16.55469833602258
C           12.98779230662776       52.57972822829875       15.56855730466416
C           13.86917576578125       51.61258301075897       15.96908740060519
C           14.49854195867487       52.12140056591409       17.17301150194813
C           16.20665939322743       51.99417114401711       18.92837708850548
C           17.33157296380836       51.33985543508312       19.54892233583111
C           17.65353794604337       52.08936149634908       20.64850417813094
C           16.71631626753901       53.19738747661071       20.66301617165997
C           15.79575222277322       55.22068828554389       21.70132848612573
C           15.75846602816814       56.19788411569973       22.76548494336317
C           14.77257365350543       57.07790835493328       22.44161482461950
C           14.22260238659359       56.62753875702716       21.18306051439510
C           13.20847601413623       57.28024133385839       20.50781190439840
H           12.80459283287556       58.17355578538783       20.95873438511935
C           12.26395340591388       54.76122697430379       16.52308053000556
H           11.58748790845425       54.87200991651706       15.68917540674738
C           15.56410552912902       51.51086899521349       17.80366916496947
H           15.93642762777005       50.59655570728668       17.36894866745969
C           16.68097462044472       54.15984749926180       21.65588976493563
H           17.39025864422498       54.07197740543428       22.46469388395749
C           10.39910375532168       57.18325555665832       16.37426344703536
H            9.87142351737974       58.11481865229032       16.56340353427608
H            9.66296087828654       56.38262553035761       16.29493293184650
H           10.91013218970812       57.26702537143655       15.41491779567795
C           11.01560688386387       58.86608927377726       19.08516976310979
H           11.77160856892432       59.64361905396819       19.19811240241251
H           10.54167105583157       58.71338484065070       20.05509734707341
H           10.26097486189995       59.22150192579175       18.38780104592535
C           12.07422580665097       52.57204974508206       14.39148859156862
H           12.22421809640999       53.46466853627704       13.78374010426030
H           11.03136775815675       52.55391967886011       14.71126377831535
H           12.25449938163207       51.69609233532159       13.77358046806410
C           14.11637925867178       50.34055015356893       15.32251425573280
H           14.09039648119929       50.35862777593725       14.23811291809654
C           14.32297704214894       49.18423690561913       15.94273316551847
H           14.30625255289521       49.10107807177531       17.01626497122974
H           14.49442945796322       48.27287076731663       15.39401105204231
C           18.01696230792149       50.12958378663698       19.01866877613676
H           18.05557963477623       50.15609456387025       17.93094827198520
H           17.48970844702445       49.22138407197384       19.31578150427436
H           19.03354176039103       50.07768842836574       19.40339072140867
C           18.71330236517733       51.89519553353376       21.61294814628150
H           19.14581548274198       52.80144539277373       22.02131945594918
C           19.17564752027221       50.71955891686458       22.02648062922580
H           18.75386155003299       49.78812637324684       21.69157016787264
H           19.98103414507308       50.64993628346128       22.73886837950888
C           16.65773573722117       56.18084725521780       23.95368989746815
H           17.70063336478191       56.26529701964782       23.64671969361328
H           16.54386525500556       55.24872312940062       24.50751572164800
H           16.43077774253925       57.00707473157893       24.62295350999386
C           14.30298140886575       58.28371250004131       23.18093443293368
H           14.43736615509113       59.18165328689395       22.57692007216886
H           14.85743554315855       58.40954323201198       24.10762782011527
H           13.24379541181155       58.19565532897789       23.42354799543881
O           15.91754459411412       55.71080218352883       17.99244178944869
H           15.30361421140797       56.31697582490403       17.56360398002779
H           16.31464812503718       56.18512975569351       18.73104081542552
C           11.71835650603362       51.48545297871012       23.03790926179310
H           11.43731420805849       50.45839341302206       22.80526474647327
H           10.87881952922858       51.96218229923286       23.54372822791506
H           12.56804430178715       51.46899819322077       23.71310435075249
N           11.19778010040802       52.41457530327912       20.77121173637272
H           10.24771134444453       52.08285433525215       20.74105308434693
C           12.07987529711016       52.22583946678149       21.80271131892601
C           11.83627327593640       53.11915640962925       19.80984167287784
H           11.38806648098155       53.41363671612610       18.88337611668296
N           13.06783760497081       53.38767818683377       20.16996325468733
C           13.23435019075809       52.83847070084497       21.40730902632135
H           14.16660743467951       52.92046761151555       21.92654006831467
