82
 energy: -121.637093155602 gnorm: 0.206368750233 xtb: 6.7.1 (edcfbbe)
Fe          21.24000000000000       64.16500000000001      152.29800000000000
N           20.36900000000000       62.85700000000000      153.53999999999999
N           22.69400000000000       64.57899999999999      153.76100000000000
N           22.11199999999999       65.60500000000000      151.05199999999999
N           19.87400000000000       63.84500000000000      150.98900000000000
C           19.19200000000000       62.16499999999999      153.31399999999999
C           18.91100000000000       61.34200000000000      154.42599999999999
C           19.88400000000000       61.57000000000000      155.35499999999999
C           20.76000000000000       62.53500000000000      154.81100000000001
C           22.70500000000000       64.05100000000000      154.99500000000000
C           23.80500000000000       64.57299999999999      155.73299999999998
C           24.41200000000000       65.50800000000000      154.94100000000000
C           23.64100000000000       65.53300000000000      153.66200000000001
C           23.20799999999999       66.36700000000000      151.34899999999996
C           23.50200000000000       67.20099999999999      150.25100000000000
C           22.52500000000000       66.96200000000000      149.27899999999997
C           21.64600000000000       65.96500000000000      149.82900000000001
C           19.68200000000000       64.50300000000000      149.80999999999997
C           18.45100000000000       64.05000000000000      149.12399999999997
C           17.87000000000000       63.16900000000000      149.95099999999999
C           18.74800000000000       63.09200000000000      151.13700000000000
C           18.42400000000000       62.23500000000000      152.18400000000000
H           17.53900000000000       61.60500000000000      152.10200000000000
C           21.86200000000000       63.04199999999999      155.48400000000001
H           22.09000000000000       62.62600000000000      156.46500000000000
C           23.93000000000000       66.31800000000000      152.54299999999998
H           24.81000000000000       66.95800000000000      152.60899999999998
C           20.52900000000000       65.44400000000000      149.21299999999999
H           20.29200000000000       65.78300000000000      148.20500000000001
C           20.01400000000000       60.89200000000000      156.70300000000000
H           19.18500000000000       60.16400000000000      156.83300000000000
H           19.95700000000000       61.65100000000000      157.51200000000000
H           20.98200000000000       60.34900000000000      156.75800000000001
C           17.75200000000000       60.37000000000000      154.55099999999996
H           17.36500000000000       60.12299999999999      153.53999999999999
H           16.93600000000000       60.83299999999999      155.14599999999996
H           18.09700000000000       59.43599999999999      155.04299999999998
C           24.24400000000000       64.19199999999999      157.13499999999999
H           23.82300000000000       63.19799999999999      157.39799999999997
H           23.87200000000000       64.94499999999999      157.86199999999999
H           25.35300000000000       64.13600000000000      157.17899999999997
C           25.65100000000000       66.19300000000000      155.37899999999999
H           25.84600000000000       66.29300000000001      156.45699999999999
C           26.55900000000000       66.70399999999999      154.56200000000001
H           26.42800000000000       66.64000000000000      153.47200000000001
H           27.45600000000000       67.19900000000000      154.96299999999999
C           24.67000000000000       68.16500000000001      150.16800000000001
H           25.48800000000000       67.70600000000000      149.57199999999997
H           25.04799999999999       68.38500000000001      151.18899999999999
H           24.34600000000000       69.10500000000000      149.67200000000000
C           22.35400000000000       67.56999999999999      147.92500000000001
H           21.50700000000000       67.22199999999999      147.31700000000001
C           23.12100000000000       68.50200000000000      147.35700000000000
H           23.99200000000000       68.91000000000000      147.89099999999999
H           22.89200000000000       68.87400000000000      146.34700000000001
C           17.90800000000000       64.46200000000000      147.77299999999997
H           18.44600000000000       63.91000000000000      146.97300000000001
H           18.06000000000000       65.55200000000001      147.62399999999997
H           16.82600000000000       64.21800000000000      147.71299999999997
C           16.57300000000000       62.42100000000000      149.70699999999999
H           16.43800000000000       62.25899999999999      148.61600000000001
H           15.71800000000000       63.01700000000000      150.09200000000001
H           16.60700000000000       61.43400000000000      150.21600000000001
O           19.78300000000000       65.97100000000000      153.35499999999996
H           20.11800000000000       66.80600000000000      153.02699999999999
H           19.10100000000000       65.86100000000000      153.91499999999996
C           27.76800000000000       63.47200000000000      149.64300000000000
H           28.12400000000000       62.42899999999999      149.49999999999997
H           28.39900000000000       63.98600000000000      150.39900000000000
H           27.78600000000000       64.01300000000001      148.67400000000001
C           26.34800000000000       63.40199999999999      150.14599999999999
C           26.09300000000000       63.14400000000000      151.48599999999999
H           26.92000000000000       63.07800000000000      152.17800000000000
C           24.80200000000000       62.96900000000000      151.95500000000001
H           24.62200000000000       62.80000000000000      153.00599999999997
C           23.75700000000000       63.01200000000000      151.07499999999999
O           22.50100000000000       62.78899999999999      151.52400000000000
H           22.54900000000000       62.62200000000000      152.46799999999999
C           25.26200000000000       63.44200000000000      149.27000000000001
H           25.43200000000000       63.61899999999999      148.21799999999999
C           23.97200000000000       63.25800000000000      149.73200000000000
H           23.13800000000000       63.30599999999999      149.04800000000000
82
 energy: -121.678416431270 gnorm: 0.078208832557 xtb: 6.7.1 (edcfbbe)
Fe          21.18808927516765       64.23386195055635      152.31829379028395
N           20.36236050959977       62.86866031864908      153.54136666805385
N           22.66171591819431       64.60103775925657      153.75742080493481
N           22.08816353700671       65.61344128503907      151.07449845123759
N           19.82913260397687       63.87819558885688      150.98633830803664
C           19.20868232852701       62.15752288395527      153.31509219200802
C           18.90977053378570       61.32622155587754      154.43651507860719
C           19.88192744785847       61.55431094296944      155.36428063163902
C           20.76899654504824       62.52536024954836      154.80103362796990
C           22.71444703608877       64.03538701944635      154.98740231620187
C           23.81166315819254       64.57863648299417      155.73440846686591
C           24.42288060890157       65.50777625244336      154.93261704493980
C           23.66153339890257       65.51488778453583      153.66194107847534
C           23.20133832898358       66.35429338492601      151.35106571570086
C           23.50046793399859       67.20679161588698      150.24144746932507
C           22.53563785542380       66.97035266304675      149.27275704684678
C           21.66053082010200       65.96115090803254      149.83272324623857
C           19.68198041449115       64.49964227469580      149.78184953375418
C           18.45406686335684       64.05571611357051      149.11723679110983
C           17.86974680907650       63.16518917999581      149.94875769732417
C           18.73926123903315       63.07218513482576      151.11733164148285
C           18.44003199326446       62.23335617528229      152.17445775903124
H           17.54936190656659       61.62322072333122      152.10726761602831
C           21.87016570227227       63.03735585594231      155.46749831369019
H           22.07814620371725       62.64107994867025      156.45378918381149
C           23.92516525945459       66.30210300677578      152.54633906113253
H           24.78032907420339       66.96017851548160      152.61272514989315
C           20.53796737756579       65.43320777814260      149.21324517226006
H           20.29347407624893       65.78381665468139      148.21923717205004
C           20.01471328521805       60.89482356907354      156.70234949632803
H           19.20210691266903       60.17668209323068      156.84100766724916
H           19.96447960241488       61.63653671328961      157.50613370149335
H           20.96872586535034       60.36003673128678      156.76801444713257
C           17.75598030231159       60.37340383276433      154.54926471802099
H           17.36664995056671       60.12014976006363      153.55971207354932
H           16.94630356280079       60.81936646136928      155.13793877392843
H           18.08156623221090       59.44989478210617      155.03684687885868
C           24.23729929963300       64.19161015937104      157.12296207208982
H           23.83220143676138       63.21390285331756      157.39983100548338
H           23.88095066707292       64.92990161499125      157.85076050718624
H           25.32878818631918       64.13762481252014      157.18236884549191
C           25.63209962604463       66.21341290726677      155.35739615671602
H           25.81202579276618       66.28066823691607      156.43163258422146
C           26.56140872630760       66.71374719976295      154.55290089343495
H           26.46935880978529       66.63752257230176      153.47893689751513
H           27.44914880057800       67.19207676183410      154.94961879344311
C           24.66108705319084       68.15660555522580      150.17392574925762
H           25.47409696650452       67.71753104850423      149.58168821277980
H           25.04414000151643       68.38158624382164      151.17257447317976
H           24.35762545184124       69.09765432010553      149.70813022115027
C           22.36155940486075       67.56640725010152      147.94283295180901
H           21.51525013237678       67.20862853802142      147.35604346214876
C           23.12090169606078       68.49428981503641      147.36146400840306
H           23.98811885967717       68.90845947809170      147.85167349340941
H           22.89266205022335       68.86468657843965      146.36831339510925
C           17.92504613676016       64.47056076739540      147.77795304106863
H           18.44343050346414       63.92653095226883      146.97945339706766
H           18.05842731887331       65.54344082257829      147.61747135895050
H           16.85791454435610       64.23547207643725      147.71332043274904
C           16.58614007133563       62.42223152137113      149.71509605304158
H           16.44094198778261       62.25837496211690      148.64245584516863
H           15.73336250225426       62.99957418436960      150.09204635558788
H           16.59933398653281       61.44696012041496      150.20850798916553
O           19.82137072032146       65.94489325647922      153.31972874388552
H           20.12003824095040       66.80309508546247      153.02636327853591
H           19.10030253366148       65.84865588643362      153.91693816826188
C           27.75775922934789       63.47378688025022      149.64388976010054
H           28.13542862201870       62.45530451942462      149.49551018453261
H           28.39602542495694       63.97702226573156      150.37587603383071
H           27.79829938092538       64.00512337900265      148.68986623467953
C           26.34504560162478       63.38433508274281      150.14485999982097
C           26.09920440411392       63.14461219983207      151.48900272414255
H           26.92682869831335       63.08428901801098      152.18004782700868
C           24.81116021313602       62.96810066961599      151.95846992487984
H           24.63254733204601       62.79450558380582      153.00967265760124
C           23.74707002456021       63.01630705360941      151.07824549246638
O           22.47865917712393       62.78860712932464      151.53351703777344
H           22.54006045641119       62.59855714336469      152.48056374356446
C           25.26070352063251       63.44255084110660      149.27249795198841
H           25.43192482125788       63.62253545584131      148.22108200203334
C           23.96902057023519       63.26203785332714      149.73019129767681
H           23.13367054293230       63.30738539345218      149.05011395609455
82
 energy: -121.691102558491 gnorm: 0.027036968439 xtb: 6.7.1 (edcfbbe)
Fe          21.16304362142442       64.27807191051474      152.33088834937553
N           20.34975140387536       62.88435684639443      153.54691071825206
N           22.62922837882263       64.62617595403502      153.75614073779576
N           22.05547299223575       65.62960741364844      151.10285971212912
N           19.79082355947084       63.91071522085709      150.98540270260392
C           19.21648574440793       62.16287114617376      153.31868398699689
C           18.91180022168815       61.31289334208211      154.44039727282990
C           19.88336625917014       61.54049720758724      155.36716553581863
C           20.76986547750181       62.52601928185555      154.79550666083554
C           22.71253970538184       64.03420733917410      154.98242592050568
C           23.81655793747164       64.57817046150406      155.72711406259074
C           24.43176179590425       65.49813016426917      154.91326398823267
C           23.66249507819457       65.51342070640328      153.66745735086684
C           23.18120085910425       66.35302146051527      151.36636900762150
C           23.49874688533232       67.20623032505974      150.24496774721734
C           22.54642204393086       66.96823035407012      149.27722895336561
C           21.65854770569166       65.96700919488123      149.84838322310671
C           19.66774985014410       64.51197954998942      149.76944930534955
C           18.45958611597492       64.05707809773163      149.10624524268482
C           17.87427292849146       63.15828123613425      149.93955239477697
C           18.72380303064791       63.07401431149273      151.10553483077823
C           18.44756968756991       62.24804435391150      152.17360788127112
H           17.56086128558051       61.63904431314943      152.11335129324908
C           21.86802488951579       63.04381040192744      155.45711957073360
H           22.06610618159317       62.65541235209236      156.44438538803735
C           23.90700348979410       66.30393570673418      152.55718625375945
H           24.75349200576714       66.96603616446879      152.61811392748345
C           20.53460116047671       65.43984203696314      149.22508357826945
H           20.30020240190442       65.78515516069388      148.23088275498341
C           20.02142052529619       60.89789307855138      156.70256302409300
H           19.21780055707858       60.18428175244195      156.85167187788832
H           19.97476208899558       61.63464408045824      157.50114776526357
H           20.97021489334324       60.37051352145135      156.77912062473760
C           17.76010074382046       60.37349228175248      154.54626211912486
H           17.36884257956141       60.11990412144014      153.56731002347581
H           16.95469567773095       60.81381961941167      155.13239306220541
H           18.07018061361482       59.45386886106824      155.03530826911310
C           24.23136889358251       64.19001373401811      157.10788244759561
H           23.82861587690530       63.22294298095900      157.39059985449762
H           23.88285275443312       64.92413756124762      157.83432221230075
H           25.31459731880310       64.13610994448014      157.17878336771915
C           25.62279807599780       66.21167627746458      155.32047559912127
H           25.76325110389146       66.28556056516616      156.39425994566957
C           26.57050902375847       66.71135932204967      154.53286028907780
H           26.51235499157990       66.63985408485678      153.46491815990851
H           27.43916578295244       67.19759323067360      154.93847986968476
C           24.65318396226553       68.14754184060297      150.18802479107509
H           25.45981685617405       67.72182425714682      149.59031955941040
H           25.04158839576976       68.36440896764479      151.17746978994631
H           24.35712993668244       69.09132635890685      149.74043931427531
C           22.37218272743738       67.55134661599146      147.96581297672688
H           21.51692995517713       67.19050188343165      147.40542870569871
C           23.12417575506376       68.47604244028376      147.36827363144968
H           23.99527867853702       68.90341213668019      147.82025586078322
H           22.88268948482553       68.84652632845778      146.38727648865830
C           17.94262628583510       64.48125341416957      147.77547835987124
H           18.45642484611123       63.94647345926794      146.97773163006681
H           18.07008791689018       65.54659659843720      147.61575661700581
H           16.88254714996527       64.25239560371483      147.70613343678545
C           16.59805441926556       62.41998039013838      149.71684839018221
H           16.44252646363777       62.25370493947672      148.65435802718363
H           15.75000052232923       62.98995552097886      150.09672502474339
H           16.60435433178071       61.45402798773210      150.20973163830419
O           19.85624567653429       65.90628466925311      153.26614035424822
H           20.11514802087320       66.80331254148838      153.03791516817759
H           19.13722851179312       65.82611611302001      153.89677003311240
C           27.75315812566704       63.47562573470613      149.64092462650345
H           28.14968226307359       62.47213776089216      149.48709192622360
H           28.39025711221908       63.97688003082779      150.36281463141569
H           27.79970906800203       64.00584287247743      148.69618428264957
C           26.34566537291177       63.37334417813263      150.14373768397675
C           26.10663163369714       63.14414958515470      151.49168629535424
H           26.93502205270677       63.09288957663366      152.18243539397923
C           24.82170365517977       62.96171682486681      151.96148740823347
H           24.64451558736599       62.78410358478647      153.01300905569175
C           23.74580868228314       63.00877833737086      151.08329337670170
O           22.47237695060383       62.76083714868754      151.53964175296349
H           22.54253240309491       62.54276485949000      152.48562641563299
C           25.26034033982693       63.44289068100496      149.27783462673875
H           25.42957052932726       63.62780476611655      148.22689288695054
C           23.96805568390079       63.26298155438197      149.73504717450598
H           23.12783644477792       63.31129340584157      149.06136580177562
82
 energy: -121.695123417277 gnorm: 0.024172078946 xtb: 6.7.1 (edcfbbe)
Fe          21.16204225107051       64.28895367948822      152.33465528252646
N           20.33840486944551       62.89762325349219      153.55387749585756
N           22.61287782916022       64.63261682505804      153.75220972697221
N           22.03396247914246       65.63815597069217      151.12228664059546
N           19.77095835519329       63.93213360991834      150.98806963343392
C           19.21504793513900       62.17148481898024      153.32061528477689
C           18.91450097021089       61.30698484210352      154.43880290621024
C           19.88556233498298       61.53428205028278      155.36533165433852
C           20.76507848640828       62.53215243911871      154.79609292350142
C           22.70401095814582       64.03988928684355      154.97887395118482
C           23.81743322707866       64.57478239835372      155.71457510098134
C           24.43091589190686       65.49113695209817      154.89349428514015
C           23.65306008666296       65.51191797132968      153.66638651130859
C           23.16032760228395       66.35794723876224      151.38454242059018
C           23.49303630645874       67.20584720227220      150.26131347505398
C           22.54718313683478       66.96590444735365      149.29240486816730
C           21.64849405505773       65.97303613172856      149.86517909404174
C           19.65480617103961       64.52555841038256      149.76957569175050
C           18.46050517971876       64.06181978235003      149.09827600294918
C           17.87542084704415       63.15845341817710      149.93039481452297
C           18.71266642609388       63.08528661277014      151.10227779755220
C           18.44705860772298       62.26154708995600      152.17533789764639
H           17.56306489874841       61.64842519677975      152.11806831946762
C           21.85965959092538       63.05305134022310      155.45653555531905
H           22.05505393708357       62.66722896534817      156.44464326691192
C           23.88955596166432       66.31219750157774      152.56603999282848
H           24.72979391536766       66.98164802948452      152.62820920970049
C           20.52923163373369       65.45046857305732      149.23520230772314
H           20.30599508688995       65.79290791376243      148.23705800053915
C           20.03195698753576       60.90127319812017      156.70408253524892
H           19.23214680831230       60.18517316104426      156.86565122914365
H           19.98642308123005       61.64509361349477      157.49708859821581
H           20.98398923646583       60.37965019371902      156.78639005179971
C           17.76173049811614       60.37076393490326      154.54263487968444
H           17.36988450825502       60.11629887019099      153.56404550448195
H           16.95640492898015       60.81478304488802      155.12716046670437
H           18.06391639866882       59.45013759019036      155.03633014130907
C           24.22917115648205       64.18768484608457      157.09382873406651
H           23.82186162432819       63.22304578129510      157.37811886168998
H           23.87986622980984       64.92493324655482      157.81749211873529
H           25.31227037560521       64.13248794044181      157.17038824144296
C           25.61167563790421       66.22314658560691      155.28711276891752
H           25.73016851833301       66.30368035380049      156.36210717566348
C           26.57245965514287       66.71947741999560      154.51187235268827
H           26.56492244759872       66.61097617567343      153.44045792101926
H           27.43281935268606       67.20854712873282      154.93257851890104
C           24.64887165650840       68.14174857892503      150.21190144703584
H           25.44780243300225       67.72675092883706      149.59595419931608
H           25.04838831827727       68.33648343570509      151.20197888211632
H           24.35007292833627       69.09716565586851      149.78807618286498
C           22.37247481983592       67.54061498925631      147.98398928198921
H           21.50891280349606       67.17517581982798      147.44194686133437
C           23.12156240441941       68.45564686252311      147.36725102516232
H           24.01521286012303       68.87923085230808      147.78350149148537
H           22.86094257202031       68.81799420401576      146.38806255126289
C           17.95852482180229       64.49438151381473      147.76521702056760
H           18.47946291127295       63.96754417507908      146.96656937817599
H           18.09137459474232       65.56116408680091      147.61540313065473
H           16.89837668168560       64.27055644108272      147.68377367652911
C           16.60379511890804       62.41435772581404      149.71283650487459
H           16.43940179114766       62.24611311807131      148.65227162630501
H           15.75809157420196       62.98243222406199      150.10162524131422
H           16.61597216472315       61.44995330797757      150.20973677082694
O           19.85691760997573       65.88689708292823      153.19845322980490
H           20.12049585167963       66.81125771651971      153.06319903765043
H           19.18406467644383       65.81174073275353      153.89107770623454
C           27.75212852500004       63.48280940733422      149.63608919211387
H           28.16257791387943       62.48552948140372      149.47563485935265
H           28.38787678818704       63.98756158681124      150.35705416271969
H           27.79251406602226       64.01729210606078      148.69325977339150
C           26.34733977454823       63.36950695879234      150.14478899007824
C           26.11392022266891       63.14070720625870      151.49482246517064
H           26.94457770677358       63.09986806193532      152.18398881229373
C           24.83179120010275       62.94761386486011      151.96735141060364
H           24.65861589427714       62.76622956756533      153.01924559948094
C           23.75109546578607       62.98973043376848      151.09267103237158
O           22.47820828174986       62.72171568456605      151.54596965941960
H           22.54811551728206       62.47697056378356      152.48653424994168
C           25.25803340459560       63.44353617393547      149.28587801955587
H           25.42214739950453       63.63673875814118      148.23548093828563
C           23.96727605624822       63.25910380126953      149.74691335495334
H           23.12168671410321       63.31428185486221      149.07982202345747
82
 energy: -121.697231624711 gnorm: 0.022675890846 xtb: 6.7.1 (edcfbbe)
Fe          21.16367941943127       64.29350873511555      152.33762162497811
N           20.32717473375915       62.91016189939248      153.56092451706755
N           22.59717445005416       64.63561754566010      153.74979569153729
N           22.02437694795478       65.63739088774157      151.13626776822107
N           19.76115147076910       63.94208913336998      150.98818966583110
C           19.20929515255608       62.18021585046403      153.32105247843486
C           18.91541570530361       61.30451927240428      154.43546370366923
C           19.88545402927968       61.53181161005447      155.36230418407266
C           20.75730520601389       62.53948868236872      154.79905188414867
C           22.69382954010313       64.04487675030504      154.97656809357912
C           23.81488069042559       64.57033031059314      155.70382431190845
C           24.42794062794500       65.48135888544473      154.87668799920863
C           23.64106744919413       65.50827584815961      153.66385794234998
C           23.14552487562020       66.36260107901187      151.40162225839569
C           23.48620446722784       67.20602130960847      150.28006706391420
C           22.54527165833169       66.96119489939848      149.30961522980414
C           21.64011711977214       65.97378694457259      149.88075521722124
C           19.64586804142433       64.53461603930673      149.77196078584120
C           18.45999910525422       64.06676308354145      149.09143427196597
C           17.87467180262013       63.16077442279387      149.92095804955682
C           18.70485531620787       63.09512752834848      151.09983930135218
C           18.44253388426142       62.27259891072596      152.17633276794902
H           17.56012198427440       61.65519726644860      152.12097534581798
C           21.84904986560542       63.06087077541423      155.46022810132473
H           22.04369378068018       62.67691290129428      156.44931989684761
C           23.87799030632896       66.32087216736942      152.57539180068920
H           24.71689783773188       66.99204676534154      152.64670047534841
C           20.52542609549495       65.45866753773042      149.24367610021332
H           20.30994329955336       65.80301058880464      148.24356047279727
C           20.04344517642771       60.90571333617533      156.70470376980728
H           19.24851993879310       60.18482659416004      156.87990722889455
H           19.99882284064802       61.65895923883204      157.49154727291233
H           21.00092960547481       60.39090948876154      156.78762907423044
C           17.76235211503169       60.36706632438904      154.53793983069107
H           17.37325299319013       60.10905605609444      153.55742378657342
H           16.95452227481696       60.81643114724162      155.11801096230909
H           18.06060531041934       59.44685274811722      155.03804534094866
C           24.22869400327838       64.18441771199424      157.08217571021152
H           23.81800821520583       63.21971120552645      157.36660304255565
H           23.87799421451933       64.92517363882990      157.80382767242062
H           25.31285831641671       64.12818755583048      157.15898974969053
C           25.60975316003938       66.22155307282831      155.25319179229180
H           25.70090594843063       66.34817635812529      156.32818301189809
C           26.58108935501096       66.69954666706808      154.48078339306417
H           26.58830673371471       66.59148010483263      153.41059071772622
H           27.41563137107357       67.23170381245173      154.91039669816215
C           24.64209037062514       68.14096515833289      150.23132876261928
H           25.43153146053343       67.73690908758998      149.59423676003004
H           25.05867870120386       68.31223724644371      151.22113372057345
H           24.33516883386938       69.10526467937416      149.82810500147721
C           22.37244511833495       67.52875401509958      147.99841998697150