82
 energy: -121.710177891536 gnorm: 0.000119850531 xtb: 6.7.1 (edcfbbe)
Fe          21.13095753354797       64.30559340374066      152.29303708945608
N           20.26077648352474       62.98535754734584      153.54265388008847
N           22.58911414990423       64.60620656391544      153.66156287518399
N           21.98040142110207       65.65060745882971      151.09713929003902
N           19.71847456375031       63.96685322008996      150.94715734846386
C           19.12183695405951       62.27717900150442      153.31207900531126
C           18.78898191020714       61.46022934378892      154.45543769569176
C           19.75725669510360       61.68607036893171      155.38524246596572
C           20.67180035929676       62.63648020088988      154.79662586707315
C           22.71729865825216       63.99481767940799      154.87476026650435
C           23.93708821326400       64.39734579263870      155.51983950515333
C           24.57084781520167       65.24990665853407      154.65514515517899
C           23.69548467975065       65.38433152512808      153.51049865110241
C           23.10971808469080       66.36993299062054      151.34233546506965
C           23.40904000723872       67.24662162910191      150.23841371089850
C           22.43456866658243       67.03105339568583      149.30216338168287
C           21.54885987639996       66.03262750335116      149.87059491887771
C           19.61145984328954       64.54085025816781      149.72202411304946
C           18.46604509012312       64.01604718490437      149.00739092590447
C           17.87961096244466       63.11574845471412      149.83812910716841
C           18.67631132421128       63.10176796433742      151.04766270169685
C           18.38208591672787       62.31727378669979      152.14541376179187
H           17.50828556854954       61.68699357850861      152.08993708488526
C           21.81460827032811       63.09737268761347      155.42138553833277
H           22.02995133629058       62.71782418367483      156.40810308300257
C           23.91522450575365       66.25145649278500      152.45942295606685
H           24.79183767936721       66.87630532870718      152.51304236238116
C           20.45400245282558       65.50737184730434      149.21103938448709
H           20.24192115593558       65.87740260224280      148.21979843336035
C           19.91115901986283       61.10705613672082      156.74960506232748
H           19.08758920322903       60.43574756906708      156.97885706970814
H           19.93067738352818       61.89582729954334      157.50202553052671
H           20.84230555167381       60.54479834165894      156.82595912045628
C           17.59926076708255       60.56699773665521      154.52999488899187
H           17.64359159946586       59.80607960626709      153.75066884573803
H           16.68166427333454       61.13893254609167      154.39165614928172
H           17.54990692076469       60.06712079076526      155.49413443555974
C           24.40541619115205       63.90435525606822      156.84516827335622
H           24.58507168152898       62.82891122991762      156.81567789407177
H           23.65782904568466       64.09875110205587      157.61481090501175
H           25.33270943681816       64.39539879403095      157.12857656202783
C           25.86419882294858       65.87471767216056      154.84206774925616
H           26.08496164217101       66.18920943477063      155.85666473402856
C           26.78182141466292       66.04196840168947      153.89695140950209
H           26.62873562417553       65.69714734693088      152.88882455083055
H           27.72908786134238       66.50958455854007      154.10982240505646
C           24.54125820513021       68.21149070348334      150.19761689654885
H           25.46823118844724       67.70782202593354      149.91870514112577
H           24.69007434513397       68.67302352840981      151.17255643149454
H           24.34035957916456       68.99306388576598      149.46792087220177
C           22.25367677441238       67.64978013249218      148.00714348385807
H           21.22541848517152       67.79420001605247      147.69710549438020
C           23.23264438287816       68.03222122783806      147.19403645418652
H           24.26981312292631       67.87108913450450      147.43118763943195
H           23.02721130841666       68.50034518816045      146.24573269984984
C           18.06962641466592       64.43504988312374      147.63397360117048
H           18.87878878503729       64.24778645076152      146.92807372946720
H           17.83987247089108       65.50046458817296      147.61114691486102
H           17.19081159227377       63.88837914910547      147.30131825472111
C           16.66608091901853       62.27885297791635      149.62208213530744
H           16.24947436425685       62.45110354405836      148.63294182352928
H           15.90102166919888       62.51500822461539      150.36204184781818
H           16.90985033524246       61.22026437549624      149.71262955030184
O           19.92272061842741       65.91601066336416      153.35735206237106
H           20.60431440341105       66.34670369145810      153.88459304877048
H           19.39485720221725       65.37970629264605      153.95933766532039
C           27.67267697455360       64.25630683064966      150.29319248805942
H           28.09203662606060       63.64755942072286      149.49206945469390
H           28.33082700608584       64.18693479893537      151.15565919967719
H           27.65260674094449       65.28863501295514      149.94834779157938
C           26.28972782729165       63.78603191862531      150.63247768271336
C           26.03104686156281       63.11220821970760      151.81751657641573
H           26.83442275641881       62.92377741429506      152.51476732381911
C           24.75117817583484       62.69000589917646      152.13115848461814
H           24.56028703856184       62.18660811165050      153.06944505064934
C           23.70724528415704       62.94137469781217      151.25421294039103
O           22.41285639289151       62.57349710019710      151.54599577832343
H           22.41190064631770       62.06452494184635      152.37000556994474
C           25.23551225236533       64.00999115893107      149.75262435540603
H           25.41907535913392       64.52924021330807      148.82341897292338
C           23.95603433051100       63.58810716818287      150.04989978594514
H           23.13262294384304       63.76959893356629      149.37821118856780
