87
 energy: -128.201291979620 gnorm: 0.470871854166 xtb: 6.7.1 (edcfbbe)
Fe          -2.60200000000000       -4.80600000000000      -35.30300000000000
N           -0.95700000000000       -5.93500000000000      -35.54900000000000
N           -3.66700000000000       -6.34500000000000      -36.54599999999999
N           -4.49500000000000       -4.12500000000000      -34.80200000000000
N           -1.69000000000000       -3.44300000000000      -34.12200000000000
C            0.29300000000000       -5.30000000000000      -35.21100000000000
C            1.34200000000000       -6.34000000000000      -35.33200000000000
C            0.76600000000000       -7.34000000000000      -36.06200000000000
C           -0.70200000000000       -7.03400000000000      -36.27699999999999
C           -3.09000000000000       -7.53500000000000      -36.85600000000000
C           -3.99800000000000       -8.30900000000000      -37.44700000000000
C           -5.31500000000000       -7.68000000000000      -37.15400000000000
C           -4.99300000000000       -6.43400000000000      -36.43800000000000
C           -5.70000000000000       -4.38500000000000      -35.31700000000000
C           -6.65000000000000       -3.81900000000000      -34.56100000000000
C           -5.93800000000000       -3.00400000000000      -33.58600000000000
C           -4.65400000000000       -3.14100000000000      -33.89200000000000
C           -2.31300000000000       -2.36400000000000      -33.61300000000000
C           -1.28000000000000       -1.33900000000000      -33.24300000000000
C           -0.10200000000000       -1.94100000000000      -33.43600000000000
C           -0.40100000000000       -3.15400000000000      -34.25500000000000
C            0.52000000000000       -3.87800000000000      -34.84200000000000
H            1.48400000000000       -3.42300000000000      -35.06700000000000
C           -1.63400000000000       -7.89300000000000      -36.69600000000000
H           -1.32500000000000       -8.91000000000000      -36.93599999999999
C           -5.89900000000000       -5.49300000000000      -36.27300000000000
H           -6.81800000000000       -5.53300000000000      -36.85600000000000
C           -3.61700000000000       -2.15600000000000      -33.53100000000000
H           -3.95000000000000       -1.18300000000000      -33.16900000000000
C            1.40300000000000       -8.67600000000000      -36.44700000000000
H            1.04100000000000       -9.47100000000000      -35.76000000000000
H            2.50800000000000       -8.60300000000000      -36.36300000000000
H            1.11800000000000       -8.94200000000000      -37.48700000000000
C            2.77500000000000       -6.13600000000000      -34.84200000000000
H            2.77500000000000       -5.43900000000000      -33.97699999999999
H            3.39200000000000       -5.70000000000000      -35.65700000000000
H            3.20400000000000       -7.10900000000000      -34.52100000000000
C           -3.77900000000000       -9.39700000000000      -38.47800000000000
H           -2.98400000000000      -10.08800000000000      -38.12500000000000
H           -3.46000000000000       -8.94300000000000      -39.44100000000000
H           -4.71800000000000       -9.97200000000000      -38.62200000000000
C           -6.51800000000000       -8.00400000000000      -37.59200000000000
H           -7.29400000000000       -8.36800000000000      -36.90200000000000
C           -6.84300000000000       -7.87700000000000      -39.05400000000000
H           -6.08500000000000       -7.51500000000000      -39.76500000000000
H           -7.84200000000000       -8.14400000000000      -39.42899999999999
C           -8.13700000000000       -3.75600000000000      -34.77000000000000
H           -8.42300000000000       -4.42800000000000      -35.60800000000000
H           -8.43700000000000       -2.71700000000000      -35.02300000000000
H           -8.66000000000000       -4.08800000000000      -33.84800000000000
C           -6.56000000000000       -1.83400000000000      -32.89600000000000
H           -5.93800000000000       -0.94600000000000      -32.71400000000000
C           -7.81900000000000       -1.76700000000000      -32.47400000000000
H           -8.50300000000000       -2.61600000000000      -32.62000000000000
H           -8.19300000000000       -0.86100000000000      -31.97400000000000
C           -1.54700000000000       -0.11300000000000      -32.40300000000000
H           -1.91700000000000       -0.42300000000000      -31.40200000000000
H           -2.31900000000000        0.51700000000000      -32.89300000000000
H           -0.60800000000000        0.46700000000000      -32.27700000000000
C            1.28700000000000       -1.50800000000000      -32.97100000000000
H            1.22200000000000       -1.10000000000000      -31.94000000000000
H            1.68000000000000       -0.71900000000000      -33.64700000000000
H            1.97200000000000       -2.38300000000000      -32.97000000000000
C           -1.33400000000000       -0.99700000000000      -39.29900000000000
H           -2.13900000000000       -0.26600000000000      -39.52500000000000
H           -0.97900000000000       -1.44800000000000      -40.25000000000000
H           -0.49800000000000       -0.46700000000000      -38.79500000000000
N           -2.91800000000000       -2.87500000000000      -38.77000000000000
H           -3.40800000000000       -2.81200000000000      -39.64000000000000
C           -1.86700000000000       -2.06400000000000      -38.40400000000000
C           -3.16600000000000       -3.73300000000000      -37.79899999999999
H           -3.95500000000000       -4.48300000000000      -37.82200000000000
N           -2.30100000000000       -3.51500000000000      -36.82400000000000
C           -1.47300000000000       -2.47900000000000      -37.17800000000000
H           -0.68200000000000       -2.13600000000000      -36.52300000000000
C           -3.53500000000000       -8.04000000000000      -30.71500000000000
H           -3.48400000000000       -7.49700000000000      -29.74700000000000
H           -3.00600000000000       -9.01100000000000      -30.61100000000000
H           -4.60100000000000       -8.21500000000000      -30.97500000000000
N           -1.56700000000000       -6.85700000000000      -31.69500000000000
H           -0.93100000000000       -7.15300000000000      -30.98200000000000
C           -2.89100000000000       -7.23100000000000      -31.76800000000000
C           -1.28500000000000       -6.05700000000000      -32.70700000000000
H           -0.30500000000000       -5.62000000000000      -32.89500000000000
N           -2.38400000000000       -5.89300000000000      -33.42600000000000
C           -3.40900000000000       -6.60200000000000      -32.85000000000000
H           -4.40900000000000       -6.59100000000000      -33.26500000000000
87
 energy: -128.346914697102 gnorm: 0.242995892881 xtb: 6.7.1 (edcfbbe)
Fe          -2.59464130403468       -4.82026428237171      -35.27853222934038
N           -0.92013673471737       -5.85544655210361      -35.59324525306839
N           -3.60771826446623       -6.34460972421602      -36.44383243838915
N           -4.45718460586560       -4.10467951107544      -34.81752332579629
N           -1.69814145512335       -3.43150738681595      -34.14872879800328
C            0.30566727074815       -5.29901190233134      -35.22310897664625
C            1.34059741432659       -6.32468246206719      -35.36037649364632
C            0.76853544727953       -7.35305236408407      -36.05164270117700
C           -0.68109422770351       -7.03637470456097      -36.22352516097592
C           -3.05346637945393       -7.52042372766538      -36.85641461126889
C           -4.01966880908958       -8.30747393706750      -37.46568519172232
C           -5.27938100172070       -7.68792304046434      -37.19271464795357
C           -4.95885698498129       -6.44505128410166      -36.48174997795743
C           -5.68800567154299       -4.41660142778056      -35.30458614577468
C           -6.66963446903705       -3.79124977030348      -34.55362850436993
C           -5.97879414614390       -2.96393903192416      -33.61451254545432
C           -4.63758201208513       -3.12174684760502      -33.89955549301938
C           -2.30670590854605       -2.34850608777554      -33.62191142775852
C           -1.28279528380794       -1.35031059247305      -33.21360468890295
C           -0.09184439501695       -1.93177023520825      -33.45365435966283
C           -0.39211925380153       -3.16277181006543      -34.22867557205193
C            0.54112204719894       -3.92738676151327      -34.83939993865771
H            1.49755407316951       -3.46265119411274      -35.05370254677091
C           -1.64645312697853       -7.87986938830428      -36.69968639820035
H           -1.34558374451502       -8.89415190019746      -36.95370254340090
C           -5.89499477461410       -5.47813117286796      -36.26200266071860
H           -6.82611821670721       -5.53203090839128      -36.82215908271128
C           -3.63238006176833       -2.16195467120279      -33.51791163835009
H           -3.96404870907902       -1.19499483831862      -33.16243776818434
C            1.39906269573586       -8.66870790093233      -36.44400687826374
H            1.04644297341107       -9.46346305288735      -35.76942975938284
H            2.49261635450091       -8.60455951344316      -36.36719180922065
H            1.12261575576816       -8.93863616070178      -37.47264390755042
C            2.75664678729090       -6.13871756207715      -34.85107256538871
H            2.77689324304448       -5.44965393257773      -33.99331539760238
H            3.38533232218451       -5.70878555822244      -35.64548420488669
H            3.19565042409348       -7.09497776493741      -34.52961150963974
C           -3.78679169154966       -9.40311698970980      -38.46621765552671
H           -2.99355149717920      -10.08445615173705      -38.12953791432569
H           -3.46783796684496       -8.95339672597449      -39.42169945806417
H           -4.71079402833123       -9.96918222922874      -38.62566716854875
C           -6.54480679478300       -8.02054875938710      -37.65890862972891
H           -7.30544870089783       -8.35266353769738      -36.93976867635214
C           -6.84539286114497       -7.89301405788453      -39.01598467439110
H           -6.10138541871835       -7.52744631863959      -39.72895504659601
H           -7.82704380005226       -8.14173697769290      -39.41067064807282
C           -8.14252178526725       -3.76190195052212      -34.77415441569950
H           -8.42371742836239       -4.42410681593652      -35.60171507987270
H           -8.44162213455664       -2.73178890566097      -35.01840295923477
H           -8.66307245966334       -4.08890868346443      -33.86556445597696
C           -6.56813905055403       -1.83830526046086      -32.88732404169208
H           -5.93607184301130       -0.96405655098737      -32.71515086853054
C           -7.82493638856266       -1.76562720643683      -32.46912020445461
H           -8.50356251900830       -2.59827871790406      -32.60301226768254
H           -8.19634021844257       -0.87032752935715      -31.97935802102068
C           -1.54893154668047       -0.11787705113999      -32.40283166402666
H           -1.91537581078607       -0.41476837046669      -31.41020183468951
H           -2.30952450521891        0.51109341362883      -32.88504434969597
H           -0.62356695651301        0.46141611327703      -32.27988867991068
C            1.27939147974327       -1.50815975528219      -32.98177091388665
H            1.22112445875315       -1.10639532786331      -31.95861366474135
H            1.68239478279266       -0.72661524725583      -33.63965817200609
H            1.96279400619604       -2.36855582669890      -32.97403564750722
C           -1.33525579149123       -0.99493826411706      -39.30080157701187
H           -2.12824884678595       -0.26903906098670      -39.52708916630827
H           -0.97993755506064       -1.43673887090117      -40.24211521915463
H           -0.50824507056502       -0.47404001343834      -38.80395622379266
N           -2.91617564684419       -2.86227268746301      -38.78283344176279
H           -3.40981925063850       -2.80253348731222      -39.65338358209260
C           -1.86543762196421       -2.06202900575565      -38.41203350131811
C           -3.16153545408898       -3.72917860762146      -37.79785313559580
H           -3.94428762089306       -4.47127024355391      -37.82055461203434
N           -2.30813020330149       -3.53222441399141      -36.81535194204687
C           -1.48647143985944       -2.49319612117633      -37.17705862879157
H           -0.69777894355899       -2.14489578844998      -36.52958193724887
C           -3.53671831634455       -8.04603654107030      -30.70727061700897
H           -3.48843034975477       -7.50885141425905      -29.74996479387204
H           -3.01641896632054       -9.00741005538682      -30.60527256546543
H           -4.58748674435051       -8.21701568566466      -30.96867792495234
N           -1.57274599821072       -6.86440533630582      -31.68673610749038
H           -0.92931248463753       -7.15877085919080      -30.97451397703553
C           -2.89432740162660       -7.22961649372497      -31.75587111597529
C           -1.30205368519494       -6.05569053526800      -32.71475004624462
H           -0.32768582219988       -5.62400811557235      -32.90045130907345
N           -2.39339223015916       -5.89103115119064      -33.43552257696185
C           -3.40046309635218       -6.60075918100306      -32.85042620559172
H           -4.39529804910577       -6.59225368336487      -33.26270552906600
87
 energy: -128.408346435963 gnorm: 0.087586050159 xtb: 6.7.1 (edcfbbe)
Fe          -2.58542021444789       -4.84305408336080      -35.25436437737375
N           -0.88395089591317       -5.78883342855603      -35.62437485761323
N           -3.56257200282014       -6.34924447929232      -36.34087545995231
N           -4.42002209974674       -4.09405268607094      -34.81753803144258
N           -1.70427399863919       -3.41619075911234      -34.19260824967457
C            0.31362071553546       -5.29309162552167      -35.24738095056310
C            1.33988422091349       -6.30471894497101      -35.39152094996802
C            0.75388866179209       -7.36675202366535      -36.02780584510027
C           -0.66737953242782       -7.03293360859837      -36.17358907910187
C           -3.01939167816495       -7.50278220241036      -36.84345843474080
C           -4.03953570115780       -8.29094430268311      -37.47586267091940
C           -5.23231898401999       -7.67496876614248      -37.23462808766870
C           -4.92595592042010       -6.45061386899361      -36.52381424874120
C           -5.66447634281343       -4.45670249804138      -35.28448652638131
C           -6.67125629349707       -3.75527509551553      -34.55727586420423
C           -6.01147122014519       -2.91849275335000      -33.66396588476747
C           -4.62041536121074       -3.09776269426359      -33.91559820466699
C           -2.29811660174600       -2.33415121063250      -33.63551990828233
C           -1.28699993578130       -1.37241650271391      -33.18804553395313
C           -0.08385265948139       -1.93557756071046      -33.47178350703942
C           -0.37955693279718       -3.16778542985122      -34.21187035987610
C            0.55455729159908       -3.97245511799144      -34.83262154906816
H            1.51622833550057       -3.50947065046895      -35.01705259241762
C           -1.66426279872305       -7.85090265696440      -36.70230700064526
H           -1.36392378382148       -8.86090942430206      -36.97532918268696
C           -5.87651122538054       -5.47139343571986      -36.23151166397953
H           -6.82214902330304       -5.54057115100691      -36.76707955959952
C           -3.64862764876273       -2.17257289064095      -33.50838133365179
H           -3.97854773397270       -1.21403115742293      -33.13923512067836
C            1.38867580931949       -8.65996703504253      -36.43556550830812
H            1.04925495832159       -9.46250576364403      -35.77643342558063
H            2.47534140469671       -8.60031946700196      -36.36845678262198
H            1.12222249155483       -8.92994387754546      -37.45860316622220
C            2.74405467374402       -6.13939177329839      -34.86818201976536
H            2.75757576539322       -5.45936823297793      -34.01267747848517
H            3.38652261165174       -5.71367826277356      -35.64239763320346
H            3.18013841625256       -7.08690046581613      -34.54377808340883
C           -3.79119490265458       -9.40114841229525      -38.44949045027523
H           -3.00302252011259      -10.07935775252953      -38.12517006106996
H           -3.47279243452847       -8.96408580228101      -39.40437050683344
H           -4.70348621148582       -9.96581568608023      -38.62430240836541
C           -6.55491699879238       -8.01204414684575      -37.72329975672074
H           -7.28673626611980       -8.34369445661283      -36.97611257877156
C           -6.84813711183784       -7.90138312014423      -38.97739198805434
H           -6.11745295509707       -7.54531520889095      -39.69961797595741
H           -7.81670816084608       -8.14038564355284      -39.39381885622490
C           -8.14050666650242       -3.76944017072658      -34.78191341133642
H           -8.42070479673864       -4.42378724956406      -35.60115632513052
H           -8.45315537291035       -2.74750098522850      -35.01450101413854
H           -8.66533037022497       -4.09455069889405      -33.88473913962979
C           -6.57530681037644       -1.83967450022002      -32.89245328737901
H           -5.93055925435002       -0.98422888135258      -32.71209030186760
C           -7.83207011192359       -1.76308489825432      -32.46600831987926
H           -8.51076902877449       -2.58277456122636      -32.58475082314262
H           -8.19944987884575       -0.87884378739432      -31.97532464132855
C           -1.55068214128554       -0.12906248805452      -32.40346651192992
H           -1.91745543581840       -0.40481215751494      -31.41342361330294
H           -2.30109047896095        0.50076836308970      -32.88203745649344
H           -0.63636854519306        0.45238860848613      -32.28408402129732
C            1.27094213534691       -1.50909344288776      -32.99580914034406
H            1.21507711597547       -1.11158321960189      -31.97847583347450
H            1.68667418956572       -0.73145191335647      -33.63736401899481
H            1.95455813244694       -2.35744544320932      -32.98221739357968
C           -1.33531182015072       -0.99376496661616      -39.29953931145260
H           -2.11923039899140       -0.27116393902508      -39.52810294491237
H           -0.97966573714880       -1.42625414643155      -40.23565316329125
H           -0.51449587892143       -0.47902684257762      -38.80958054189524
N           -2.91727266676839       -2.85115034485254      -38.79661304754399
H           -3.41385172146723       -2.79333529446052      -39.66738452994304
C           -1.86468564460765       -2.06322878300051      -38.41629383176724
C           -3.16094011050550       -3.72705506100340      -37.80354556833565
H           -3.93909511915828       -4.46203215310559      -37.82481925734679
N           -2.32170184657540       -3.55195275822130      -36.81490115668777
C           -1.50307195335890       -2.51229537945019      -37.17643173960320
H           -0.71619353903011       -2.15724206279222      -36.53648131770836
C           -3.54002022459518       -8.05206129932926      -30.69917755257492
H           -3.49433889458465       -7.52244021391536      -29.74761999210656
H           -3.02601401781658       -9.00664027292991      -30.59908549812358
H           -4.57909863510834       -8.22176684929557      -30.96196784275346
N           -1.57941292126317       -6.86843630480177      -31.68101496562662
H           -0.92811423403102       -7.15998518519556      -30.97099674167339
C           -2.89935989819996       -7.22598743021933      -31.74470511750954
C           -1.32031956192715       -6.05671610922234      -32.72636127919352
H           -0.35176069702148       -5.62859832039228      -32.90742749243349
N           -2.40407941595264       -5.89501624662782      -33.45062280848017
C           -3.39503308566679       -6.60110753408352      -32.85150039267813
H           -4.38626386418637       -6.59760896023363      -33.25980493848321
87
 energy: -128.429015557607 gnorm: 0.048169079237 xtb: 6.7.1 (edcfbbe)
Fe          -2.57871839940372       -4.84892907354608      -35.23752333332181
N           -0.86740150537945       -5.74908905933175      -35.65842301739303
N           -3.53907703264055       -6.35256625838817      -36.28078179162782
N           -4.40018343715986       -4.08386936613655      -34.80396658930039
N           -1.69823326993879       -3.39643356107245      -34.23246914462788
C            0.33169503228371       -5.28268811844505      -35.26973943031371
C            1.34904325742617       -6.29166698614426      -35.42394174220344
C            0.74371675052754       -7.36809490283696      -36.01563773503953
C           -0.65872963895782       -7.01920275150478      -36.15802955354666
C           -2.99323092486223       -7.48746105775381      -36.82253332152440
C           -4.01798428397365       -8.27415308883592      -37.48015640029499
C           -5.20016926219904       -7.64756686088600      -37.24979357694325
C           -4.89451878997118       -6.44562349503023      -36.51495809554503
C           -5.64091828341547       -4.46842519434727      -35.26408282368338
C           -6.66709034404222       -3.73006619418157      -34.57332797216833
C           -6.02546545530807       -2.86943271550596      -33.71094269471797
C           -4.61543017541915       -3.06341700059207      -33.93649737706792
C           -2.28929342642223       -2.32409595309776      -33.64837998805049
C           -1.28441751993186       -1.38943041203063      -33.17121588954228
C           -0.07766457702705       -1.94011065639093      -33.47905591203765
C           -0.36104112634324       -3.16753841283523      -34.20628756406921
C            0.58201106788755       -3.98990838326834      -34.80169945845599
H            1.57458088743014       -3.56750640163714      -34.92204127467829
C           -1.65634727864152       -7.82876794456441      -36.69615468166321
H           -1.35788174929942       -8.82343279232062      -37.01772695139027
C           -5.84932865748244       -5.47755820999657      -36.19066150730313
H           -6.82176090210204       -5.57474817229494      -36.67595860840336
C           -3.64744404071558       -2.16740677937568      -33.50225492404398
H           -3.98231261622943       -1.23100236252442      -33.08015377715058
C            1.37468694919994       -8.65763403452249      -36.42363800927178
H            1.04543922254936       -9.47076123451882      -35.77484816058862
H            2.45933883329176       -8.59075216674478      -36.36438343753605
H            1.10997107695407       -8.91793050464023      -37.44753462499354
C            2.74230715247121       -6.13874838071999      -34.89517973356152
H            2.74602102601963       -5.46535479012625      -34.03783446345229
H            3.40037172903189       -5.71679728834941      -35.65498731004313
H            3.15887023880951       -7.09090885344139      -34.57032200194833
C           -3.78253602775117       -9.40263144974871      -38.43263160780522
H           -3.00331000196412      -10.08298347050431      -38.10144557004298
H           -3.46549505976882       -8.97929652023774      -39.39024816446427
H           -4.69870715395866       -9.96153586354092      -38.60858473183087
C           -6.54106012688520       -7.99959233069790      -37.72542769331536
H           -7.26035629511496       -8.33115484906392      -36.97514412012072
C           -6.86549442194583       -7.90232750403016      -39.01188237033315
H           -6.13596780063526       -7.55647224404870      -39.73056833407287
H           -7.83697579179733       -8.14197831538928      -39.41055752770897
C           -8.13897818753727       -3.78230651166848      -34.80139612511549
H           -8.40813801554596       -4.43664052669986      -35.62214110425938
H           -8.48180427916818       -2.76764770604773      -35.02060730405009
H           -8.66545529754177       -4.12420896493762      -33.91242178328358
C           -6.59116220154789       -1.81952817521298      -32.90604816748558
H           -5.92960411984030       -0.98641691471860      -32.69777153450401
C           -7.84192346620782       -1.74914034908977      -32.45617980103499
H           -8.52897037525699       -2.56352936612582      -32.55888110806250
H           -8.20199540033789       -0.87565676816015      -31.94464153987802
C           -1.55264372555749       -0.14218313744177      -32.39799027603640
H           -1.92518072237510       -0.39547287825932      -31.40469142777133
H           -2.29791276171822        0.48297964001320      -32.88709118984651
H           -0.64196828081184        0.44205299433211      -32.28683529574846
C            1.27179415210815       -1.50509612222700      -33.01315571135372
H            1.20777459951155       -1.11074059768625      -31.99836660484954
H            1.69297337054570       -0.72736623897883      -33.64915590608550
H            1.95600289828455       -2.34986984285443      -32.99875610969514
C           -1.33464534727557       -0.99426087519270      -39.29590893415660
H           -2.11254077980353       -0.26762527240518      -39.52715107638983
H           -0.97483300626119       -1.41575182738889      -40.23401417249333
H           -0.51443064529665       -0.48342594783315      -38.80499658178335
N           -2.92724812906823       -2.84542783541511      -38.81632009148651
H           -3.42190688387369       -2.77757985772342      -39.68871266232252
C           -1.87038702570254       -2.06971214414998      -38.42241950521377
C           -3.17615005523313       -3.72985081933156      -37.82841207832924
H           -3.95607102612037       -4.45890555701413      -37.85162229255387
N           -2.34353810393394       -3.57306595317054      -36.83368816059446
C           -1.52192731433753       -2.53510565565564      -37.18418511975247
H           -0.74078807929762       -2.18260850627984      -36.54033872681767
C           -3.54621845891388       -8.05955144444014      -30.68760279634344
H           -3.50598391421992       -7.54057935537150      -29.73123427285369
H           -3.03434140619070       -9.01423087671619      -30.58869688640054
H           -4.58241845982429       -8.23457077719180      -30.95082050409253
N           -1.59155419916475       -6.86723422057580      -31.67854731336002
H           -0.93364222368996       -7.15475519379843      -30.97156083288321
C           -2.91110302494370       -7.22555042905796      -31.73336054349308
C           -1.34122334611658       -6.06368973777256      -32.73650186376561
H           -0.37833721771966       -5.63404670776943      -32.92301804810666
N           -2.42369231287315       -5.90857544113179      -33.46080663906596
C           -3.40676826159340       -6.61193709124396      -32.84785900172087
H           -4.39556681274471       -6.61713504240650      -33.25547790976213
87
 energy: -128.441874089525 gnorm: 0.035112311601 xtb: 6.7.1 (edcfbbe)
Fe          -2.57444724317426       -4.85257564634124      -35.22878539079311
N           -0.85939590726549       -5.73325876761982      -35.66219478112731
N           -3.53294358052547       -6.35159264436042      -36.24584931295848
N           -4.38712765233868       -4.07434229648638      -34.78383847435202
N           -1.69065723767622       -3.38413657601024      -34.26392951065599
C            0.34789269610499       -5.27056913454240      -35.28380955025571
C            1.35989282315473       -6.27874938195329      -35.45029197363682
C            0.73655354105790       -7.35953055238179      -36.00865615185491
C           -0.65320093413349       -6.99842134593999      -36.14793637540205
C           -2.97733772497048       -7.46799499611633      -36.80501807500963
C           -3.99188086761229       -8.25354441176744      -37.49042997297826
C           -5.17756937390814       -7.61000855248937      -37.28033630497643
C           -4.87187191941841       -6.43803730861605      -36.49801690990738
C           -5.62053369200674       -4.47213892614304      -35.23819274046411
C           -6.66372721349365       -3.70570962168353      -34.58852239967032
C           -6.03470822373285       -2.81850508769464      -33.75275275878732
C           -4.61221058503639       -3.02722449321410      -33.95389412109383
C           -2.27852423323169       -2.32225809476622      -33.65435414161110
C           -1.27898375967960       -1.40754636023097      -33.15609971826689
C           -0.07126632495192       -1.94843045658652      -33.47946842015633
C           -0.34788916171026       -3.16464651144778      -34.20792867322765
C            0.60517306136966       -3.99898293324749      -34.76842333282896
H            1.63450686956345       -3.62989812501856      -34.80345925530322
C           -1.64017032009564       -7.80457059046073      -36.69751737460303
H           -1.33863567676612       -8.78081646561381      -37.06713916924947
C           -5.83121210762866       -5.49266349990373      -36.14122411262450
H           -6.82652199315328       -5.62101191628009      -36.57181050348960
C           -3.63931881696882       -2.16197128023794      -33.48800605459027
H           -3.97270880998104       -1.25096394449369      -33.00295381649793
C            1.35925642808399       -8.65292258204524      -36.41393670363744
H            1.03342243829085       -9.47272552101775      -35.77214851757090