78
 energy: -116.058078758263 gnorm: 0.000044906346 xtb: 6.7.1 (edcfbbe)
Fe          12.66185758899669      -71.05743928750309      105.39092795571040
N           13.27561913339607      -72.82833704750479      104.65550671538983
N           10.97339118974442      -71.20532208740211      104.29843826543363
N           12.01775551862276      -69.33455085682216      106.15906979080954
N           14.30836406829903      -70.95606975183250      106.50632381333443
C           14.45312554515507      -73.45592716762862      104.91693565844021
C           14.55590897973650      -74.68487071270930      104.16376366240641
C           13.41077080126365      -74.78560044732453      103.43572979693431
C           12.62572960356028      -73.61366433388778      103.75092012010684
C           10.63164823710467      -72.21038354253191      103.44230956500527
C            9.37407898391072      -71.93181253443699      102.80126857402487
C            8.95995849757962      -70.71463054869464      103.27753595597582
C            9.97485543595343      -70.28655956021151      104.21882665267182
C           10.87095879875273      -68.67490234713974      105.84068190590484
C           10.76239250226002      -67.44482485604219      106.58504909235678
C           11.88210613285311      -67.37110155311936      107.36903603472123
C           12.64761568303974      -68.57046688948913      107.08460467282131
C           14.63744487158963      -69.97153884796757      107.38118552267940
C           15.92196409343934      -70.23709994421993      107.99401457065299
C           16.36173475630075      -71.40763332010364      107.46238520262737
C           15.33858038597290      -71.84095010524797      106.53421339837541
C           15.42201490069149      -73.00354133002448      105.79300376473127
H           16.30850868379796      -73.60788110819186      105.90925629651016
C           11.39279913018010      -73.34077240436054      103.19050817279978
H           11.00392350494617      -74.05371080917392      102.47956214176479
C            9.92512493882174      -69.10098294693665      104.92576197843994
H            9.08037837216608      -68.45306463641471      104.74934543278665
C           13.87306501003636      -68.85472743567914      107.65805546444372
H           14.26742852685685      -68.14809635642905      108.37236643577319
C           12.98430860828694      -75.85415335796802      102.48789561932050
H           12.04764237212936      -76.30664680941315      102.81483475590996
H           13.73680959787772      -76.63611309362626      102.42346941666379
H           12.82998385873496      -75.44429662021491      101.48918355462769
C           15.71939486717040      -75.61383056404598      104.22612292929763
H           15.86010012227615      -75.98414563846821      105.24186561675717
H           16.63366031214565      -75.10269246017310      103.92391716174461
H           15.57026655162477      -76.46683185666018      103.56857563569882
C            8.66556106697401      -72.84957746014933      101.86653299008131
H            8.79560285195724      -73.88709709538283      102.17117928972637
H            9.04940387204386      -72.74615483239945      100.84998941264874
H            7.60174439820360      -72.62107810860230      101.85541095770921
C            7.75457832508152      -69.97699230475548      102.97177334889676
H            7.34653955001711      -69.38902752036036      103.78569116098606
C            7.13522711742080      -69.96257017909528      101.79582125131591
H            7.51899258664013      -70.48748390962091      100.93847743271627
H            6.23001823145604      -69.39856631959215      101.64333120512059
C            9.60327912516374      -66.51169962615785      106.53579473524063
H            8.66692378637838      -67.06362071567516      106.46809939225490
H            9.67003827786031      -65.85263769236059      105.66847581211766
H            9.58049782317291      -65.89764963854655      107.43370241481671
C           12.26622286848201      -66.35545682074881      108.32431998652213
H           12.80408394134060      -66.71221115407634      109.19504284803713
C           12.01914891735870      -65.05469919568276      108.20813528202306
H           11.53100566416938      -64.63936329272738      107.34368965582905
H           12.32209373079067      -64.35334989850237      108.96793547495969
C           16.56895275938407      -69.35487825752065      109.00576008102196
H           15.93525220799848      -69.25678784279032      109.88730415206901
H           16.73543301729174      -68.35802984047874      108.59651779353004
H           17.52789452876950      -69.76158761594675      109.31740176490401
C           17.62265191695130      -72.15455954617246      107.73290401128197
H           18.23449079599624      -71.62911960779185      108.46197842457994
H           18.20345192450914      -72.27105676722645      106.81754333587106
H           17.40288599204944      -73.14869202853123      108.12278457346019
O           11.56019845370608      -72.26491073580578      107.00092123786713
H           11.91267910398352      -73.14091043302199      106.80956574681548
H           10.66562935761140      -72.23569302632723      106.64450497142479
C           15.58672467678413      -67.47242492358467      102.28251520975198
H           15.03692546339367      -66.84567441241795      101.58048958997885
H           16.48503906333221      -67.83596741343644      101.78362964868026
H           15.88180562202455      -66.86589020765200      103.13291105146408
N           14.22750154907596      -69.53880518702105      101.89004644151244
H           14.35423014432637      -69.55540898991164      100.89143598021167
C           14.74647557782503      -68.60465978988729      102.74783611371927
C           13.51752042350107      -70.42211000969536      102.62721041208799
H           12.99828391342444      -71.26409817291000      102.21852962892685
N           13.55559926245913      -70.10453375188608      103.89837905833285
C           14.31686759274737      -68.97623973659272      103.98955571248464
H           14.50227435307589      -68.51055276935254      104.93542110536431
