71
 energy: -108.922387702822 gnorm: 0.000052766733 xtb: 6.7.1 (edcfbbe)
Fe           7.00341921137668       44.93011180195023       32.65615193655789
N            6.95800420687654       45.58674819285621       34.56060993812590
N            5.07872871952142       44.32345403991029       32.86474193881426
N            6.92372956362185       44.56173251607354       30.67572302702192
N            8.80468896583815       45.77850528175576       32.39869974120780
C            7.95932000306659       46.23512945712156       35.21176651207679
C            7.59991833721579       46.46297074530575       36.59280992679059
C            6.36488838708852       45.91682651315136       36.76430833427541
C            5.98164164099332       45.36499974197878       35.48482237420988
C            4.36905135860203       44.22751411647624       34.02310162830855
C            3.10436067278951       43.57910701535424       33.78974705246289
C            3.06991068673452       43.26963227952442       32.45531866542975
C            4.32812189908587       43.72663703715280       31.90216830593756
C            5.89475981647524       43.96041509454882       30.01654460593451
C            6.24465026541701       43.72932807610496       28.63815733020790
C            7.52684757605635       44.18625058980754       28.48366606467551
C            7.92943915819426       44.70223009865243       29.77594058890794
C            9.56502231080626       45.75236796868671       31.27194079301812
C           10.85029492326198       46.36970465239110       31.51625877360027
C           10.84291755130331       46.76937264523131       32.81653294174276
C            9.55600818160801       46.38576949826560       33.35332051410658
C            9.16605246625008       46.61802743675515       34.65770063825542
H            9.86952007523414       47.12003119586229       35.30351004131744
C            4.78141595732913       44.72161662140775       35.24995839178073
H            4.11111223705634       44.59991580181313       36.08663781906306
C            4.68577640435370       43.58674081126284       30.57527237453929
H            3.97560099860376       43.10077943287293       29.92451465717831
C            9.17189997520424       45.24542238352480       30.04817363269402
H            9.88947586968789       45.27915308585118       29.24320978758565
C            5.52108996354233       45.85533737005828       37.98965280224058
H            6.01248195201026       46.35202364855084       38.82198500169714
H            5.33477177314191       44.81904111380150       38.27054213101854
H            4.55910834806613       46.33886668766813       37.81914183252211
C            8.46762251411542       47.16284133537659       37.58007876021203
H            8.71583477901947       48.16477925848152       37.23038988382599
H            9.39784345207310       46.61392454963941       37.72484766571853
H            7.96769955776688       47.24843551199502       38.54126759775964
C            2.10083102913212       43.26386157639237       34.84144474038910
H            1.49390313968139       44.13975889581078       35.07721900201135
H            2.59429899805655       42.93788672977200       35.75527983648253
H            1.44109702346403       42.46999553036652       34.49877960891923
C            2.03401595736975       42.59462552685586       31.70200686266039
H            2.38172784507989       41.93895919664412       30.91338690386471
C            0.72883903880107       42.72718499200234       31.90981813367379
H            0.33126983107663       43.39820766733830       32.65160645896383
H            0.00777390496785       42.18362817025896       31.32290434351627
C            5.33500291603918       43.15684368728838       27.60992656927873
H            4.32017683202056       43.52997375762338       27.73974432514911
H            5.30809053670552       42.06912480654492       27.68428478744219
H            5.68173846418277       43.42593085596835       26.61450993549587
C            8.35694381251796       44.20261779224006       27.29757454946393
H            9.02019815902802       45.05411239692629       27.20256053396749
C            8.36265297712395       43.26575363114929       26.35611108324840
H            8.99957807408589       43.34195685515754       25.49087963313767
H            7.76034587449088       42.37739800253561       26.42996049021941
C           11.92166842858795       46.50471809297026       30.49161242953470
H           11.57451162187532       47.10876965212768       29.65337078482704
H           12.20728142167072       45.52523147881123       30.10917003947802
H           12.80336576350161       46.97887828264589       30.91445976298847
C           11.90316879438123       47.46446250081942       33.59760269742397
H           12.77626067790303       47.65372387441172       32.97891110490091
H           12.20985009581289       46.85692521163246       34.44869975680113
H           11.53636135044370       48.41871262193348       33.97540046959661
C            4.73956910644745       47.81309852219663       33.26878035511006
H            3.96526416380379       48.50477744104141       32.95070830765246
H            5.31819568173731       48.24717811791703       34.07765554707444
H            4.31699007628605       46.86539905393312       33.58387274041385
S            5.90351797044889       47.53864927878295       31.88833216332341
H            5.03530244701428       46.90899087657288       31.09573070895082
O            7.69590005244545       43.47053061639928       33.08465629156949
O            7.18527817441273       42.40939069970669       32.59382503165359
