72
 energy: -105.980207876903 gnorm: 0.000052278180 xtb: 6.7.1 (edcfbbe)
Fe          18.87206951480236        3.62602179770939       26.90912921262334
N           17.05041125243428        3.69492960265048       26.11018942178287
N           19.66764462255740        3.33419262748146       25.09704117661921
N           20.69875458307106        3.45750171582019       27.73606403620047
N           18.08118023944553        3.86747383303026       28.73403083248267
C           15.88117347248879        3.92668356239823       26.75927361662318
C           14.76728900775317        3.89212062175193       25.83577316885669
C           15.29466818960278        3.62179695472332       24.61292541859998
C           16.72453812260874        3.50692420313952       24.80476566426147
C           18.99290030413514        3.20221317471714       23.92336838882839
C           19.90626052995474        3.01945663140086       22.82446171453621
C           21.16575410575964        3.05221166871527       23.36091950500681
C           20.98665629763211        3.22798491395790       24.78902679735847
C           21.88325104428010        3.35051353306483       27.07102314401207
C           22.98066881444715        3.28002311812465       27.99685650878619
C           22.43217597615961        3.31124991256423       29.25160636442326
C           21.00488943340214        3.46039006097070       29.06083105886714
C           18.75137461361529        3.91372977406802       29.91678623039664
C           17.84678857822698        4.21549242370075       31.00375345918073
C           16.61475467789901        4.35940522882033       30.44657885720452
C           16.78206287640380        4.13776798236426       29.02779323761211
C           15.74680428738260        4.16333896290047       28.11406591066186
H           14.75635726990602        4.36894385206057       28.48892503046975
C           17.61789740832410        3.26995014416512       23.78043718577407
H           17.21384073534657        3.14535930868348       22.78789715105648
C           22.02672306525256        3.27418361408688       25.69660143913379
H           23.03187390660166        3.20967302438646       25.31026148368548
C           20.10543978864529        3.69924345136787       30.08317435724194
H           20.50217232941797        3.76667442611111       31.08330965593130
C           14.60856771285050        3.46559825732055       23.29991998687908
H           13.53355406824910        3.58454365167741       23.40910035853762
H           14.80384233912015        2.47771288474648       22.88281414244434
H           14.96572092286421        4.21043413860027       22.58809203431721
C           13.34635911164508        4.11073720399490       26.22615564927246
H           13.22067336510147        5.09235472982687       26.68357501302153
H           13.02793982216694        3.35824238486753       26.94777339615385
H           12.69372127143996        4.05104157213898       25.35882074081398
C           19.50670009701732        2.77940988601735       21.41112845216466
H           19.26787470539957        3.71778955968457       20.90735269917077
H           18.62793692892828        2.13821420681241       21.36455817490631
H           20.31904604172653        2.29729885969863       20.87135829277288
C           22.44475538225661        2.90655764521792       22.70137892599784
H           23.21435456290300        2.40401846555627       23.27542115646852
C           22.73304524568224        3.34203214400916       21.47948628585341
H           22.02305893823812        3.88796607942769       20.88293559783698
H           23.70529476068799        3.18816756174936       21.04187528559976
C           24.41230822765120        3.13344459819939       27.61498828302354
H           24.71121765616220        3.92920948113176       26.93243850034350
H           24.58102742588022        2.17911996952859       27.11450500995538
H           25.04842844864253        3.17169445493120       28.49550800297571
C           23.13813080496220        3.21242747903756       30.51237991025590
H           24.10260387392464        3.70730202757748       30.54258511761137
C           22.72147276824056        2.54501456168472       31.58218268547721
H           21.79725306002743        1.99206695983662       31.58857867679207
H           23.30548721009324        2.50929141900785       32.48660446738609
C           18.26040155173390        4.33221269162480       32.42982464863439
H           19.00350730858303        5.12075142044013       32.54771460071019
H           18.70122647482239        3.39856934531678       32.78015770017017
H           17.40749144264674        4.56642845634724       33.06177657994195
C           15.31318097951791        4.67601793241619       31.09811014981721
H           14.89338494655137        5.59348011396162       30.68572827053717
H           15.43956557569190        4.80831401666507       32.16963533483165
H           14.59568823615619        3.87170107265642       30.93350598993797
O           18.68914088644025        1.41317371752597       27.24513646963786
H           19.60718575217754        1.18867668047434       27.43648285702657
H           18.21435011751896        1.40130592301088       28.08429687084577
C           18.38548633633268        6.52868079883793       25.21172526867588
H           18.76749961479458        7.51248423894990       24.95701762812769
H           17.32529296968368        6.58447197405672       25.43558213392464
H           18.55455849560107        5.81829577343453       24.40965543561914
S           19.20905284507909        5.94236175149932       26.73384098805465
H           20.43623666730257        5.90893378556032       26.20142219923097
