87
 energy: -124.719928880055 gnorm: 0.000053554557 xtb: 6.7.1 (edcfbbe)
Fe          84.50200074167350       17.84584931808027       30.72808469405505
N           83.98778755985509       16.41018277656841       32.03115379869833
N           83.26317877940011       17.05463098415012       29.37560506465999
N           84.95139580824571       19.32088918424332       29.46090485575260
N           85.74565391198999       18.62784854640189       32.08957860713966
C           84.47770187762036       16.22757774612104       33.28702202974259
C           83.82506618669404       15.11082635423544       33.93329402879527
C           82.91544120632648       14.63438074582755       33.04142134682137
C           83.03703220462690       15.45610740891759       31.85823029644636
C           82.44512488135868       15.98330727768919       29.53888156422312
C           81.73087309127573       15.69480263032014       28.31427393269196
C           82.14413442671447       16.61784744035050       27.40589760700232
C           83.09133478016199       17.46817676728162       28.09403026619604
C           84.50646809747803       19.46787250361212       28.18983581984590
C           85.01415038516653       20.69617240547734       27.60782283788861
C           85.75699435876695       21.29799029569232       28.58837568149178
C           85.71481634514983       20.41478163597758       29.72592665492323
C           86.48767228951169       19.75716759998214       31.95987160051497
C           87.30883645978643       19.96634024095760       33.13498149977800
C           87.00323050636686       18.94589452373171       33.99482977889308
C           86.03077424882611       18.12606549982641       33.32256419199200
C           85.45023921563396       17.00251711084796       33.88781556727931
H           85.76179695162607       16.73073766253133       34.88514036890740
C           82.30977700182045       15.24799615056219       30.70071346260508
H           81.59858842174663       14.43612787641554       30.69832193370993
C           83.67799702707066       18.58210503958253       27.52516049830439
H           83.44041959685046       18.79508977341661       26.49424125955795
C           86.42741570420580       20.63145628297648       30.89132820099146
H           87.00257391742049       21.54100473427699       30.96704650066977
C           84.13563588284562       14.63741066154851       35.31225793373752
H           83.94205078376091       15.42383542509868       36.04272193009537
H           85.18519957433247       14.35320793654052       35.39395570132195
H           83.52734845103134       13.77405936276597       35.57054261498368
C           81.96349795024375       13.49634586838342       33.18092482922326
H           82.17894757639029       12.72319243510001       32.44265284094192
H           80.93837732442574       13.83362386302984       33.02678459090840
H           82.03289281235654       13.05203554427623       34.17093793315536
C           87.57171990816219       18.66910272507403       35.34412398350450
H           88.09435514119582       17.71181288316988       35.35359899873778
H           86.78147610975262       18.62712059268219       36.09490055893383
H           88.27868214060572       19.44502626301922       35.62667816432667
C           88.27679594939802       21.02308771147787       33.34839802419260
H           88.31763908421838       21.41804420293834       34.35823929576375
C           89.11977874650742       21.49431796435489       32.43687527448570
H           89.15848448735869       21.10012470898392       31.43554542016634
H           89.82055765868390       22.27901981661213       32.66977303696648
C           86.44385313655486       22.61835251589819       28.55553459391066
H           87.50499975898930       22.49996277789159       28.32955736247146
H           86.35880113770590       23.12081163671909       29.51794413301216
H           85.99943842303732       23.25120245810473       27.78981442635012
C           84.72275183512669       21.15675949070642       26.26865912951875
H           83.75204234747449       20.87525583420070       25.87687596110439
C           85.54073656360542       21.87176921691741       25.50284887510525
H           86.53411291874721       22.13854033154886       25.81806039493467
H           85.25138053596821       22.19208852792605       24.51559621992845
C           81.74181242143169       16.78861957083602       25.98136751686509
H           82.61619586978576       16.75489846123466       25.33159140483044
H           81.24775975993491       17.74964719150113       25.83371630290894
H           81.05623216872391       16.00200356380713       25.67566187978742
C           80.75381257300550       14.58087058552950       28.15359902941281
H           80.34339778478024       14.56872086730979       27.14691192418822
H           79.92938696999666       14.68976175198533       28.85880551355191
H           81.23290059383976       13.61921810569916       28.34024104051478
C           80.05017180794511       21.14040544805099       31.29711246801062
H           80.19555609481098       22.13161849375935       31.72649536536446
H           79.14970254936853       20.70843855311912       31.73381663136097
H           79.90304567954280       21.24323215485333       30.22662500174462
N           81.65777209266703       19.97280927262193       32.82157049078180
H           81.23607568889462       20.29297458896608       33.67789235994652
C           81.22913426097023       20.27565076304020       31.55552194829560
C           82.74225282127419       19.17388037608376       32.70622884785495
H           83.28837306258586       18.77903004581308       33.53781129843745
N           83.02524595477162       18.95286452830662       31.44625770279076
C           82.09350865551103       19.63113282558245       30.71791420263022
H           82.10787810453526       19.60957999817390       29.64824495526411
C           88.59004369691085       17.86972067271703       29.94066353152580
H           89.53469119885010       18.01886781248041       30.46014803499465
H           87.99963064192104       18.77847378116546       30.02031135998550
H           88.79060206964094       17.67842666696605       28.88916663350549
C           87.83605621085178       16.70641665138292       30.55409306642290
H           87.65187197062787       16.87068131997841       31.61487446482205
H           88.37967270587475       15.77177160490461       30.41361761759240
S           86.21004235080987       16.50581224639096       29.71984584101192
C           85.88581399209311       14.78680914531964       30.21560673149736
H           85.91924966511904       14.70109470584762       31.29704797426384
H           86.62370497797171       14.13788033479743       29.75087312588877
H           84.89137338309823       14.54083064079760       29.85920955663574
