87
 energy: -128.405598440236 gnorm: 0.246738987949 xtb: 6.7.1 (edcfbbe)
Fe          39.51900000000000       -7.90100000000000        2.45100000000000
N           41.35900000000000       -7.25900000000000        2.59200000000000
N           40.19800000000000       -9.75400000000000        3.09600000000000
N           37.61700000000000       -8.57500000000000        2.27300000000000
N           38.87300000000000       -6.13600000000000        1.82600000000000
C           41.80400000000000       -5.97600000000000        2.27600000000000
C           43.15599999999999       -5.81900000000000        2.59500000000000
C           43.60400000000000       -6.99000000000000        3.11800000000000
C           42.51100000000000       -7.86200000000000        3.09700000000000
C           41.42400000000000      -10.02100000000000        3.45900000000000
C           41.46000000000000      -11.42700000000000        3.78300000000000
C           40.18600000000000      -11.91100000000000        3.57400000000000
C           39.36800000000000      -10.78400000000000        3.12000000000000
C           37.20800000000000       -9.88000000000000        2.46000000000000
C           35.86300000000000      -10.03100000000000        2.14800000000000
C           35.42400000000000       -8.77300000000000        1.77600000000000
C           36.49799999999999       -7.88300000000000        1.90300000000000
C           37.63800000000000       -5.78700000000000        1.55400000000000
C           37.59100000000000       -4.38300000000000        1.10500000000000
C           38.84999999999999       -3.92400000000000        1.10200000000000
C           39.66499999999999       -5.07600000000000        1.57600000000000
C           41.02600000000000       -4.98000000000000        1.75400000000000
H           41.51500000000000       -4.05100000000000        1.46000000000000
C           42.53800000000000       -9.17700000000000        3.49700000000000
H           43.48000000000000       -9.58400000000000        3.86400000000000
C           38.04500000000000      -10.89100000000000        2.84400000000000
H           37.60400000000000      -11.88300000000000        2.93800000000000
C           36.46500000000000       -6.55400000000000        1.58800000000000
H           35.50999999999999       -6.08200000000000        1.35900000000000
C           45.01000000000000       -7.30100000000000        3.58200000000000
H           45.49400000000000       -6.37100000000000        3.94900000000000
H           45.60400000000000       -7.70600000000000        2.73500000000000
H           44.97699999999999       -8.04100000000000        4.41000000000000
C           44.01000000000000       -4.59700000000000        2.43900000000000
H           43.95799999999999       -3.98700000000000        3.36600000000000
H           43.64200000000000       -3.98800000000000        1.58600000000000
H           45.06500000000000       -4.89700000000000        2.26400000000000
C           42.67500000000000      -12.18200000000000        4.24900000000000
H           43.34499999999999      -11.49600000000000        4.81100000000000
H           43.22500000000000      -12.58500000000000        3.37200000000000
H           42.36700000000000      -13.01300000000000        4.91900000000000
C           39.60300000000000      -13.25600000000000        3.68900000000000
H           38.51500000000000      -13.36900000000000        3.80700000000000
C           40.32200000000000      -14.33800000000000        3.65800000000000
H           41.41400000000000      -14.27900000000000        3.54200000000000
H           39.84800000000000      -15.32600000000000        3.74700000000000
C           35.04400000000000      -11.31400000000000        2.19400000000000
H           35.55300000000000      -12.05500000000000        2.84700000000000
H           34.95200000000000      -11.73800000000000        1.17100000000000
H           34.03600000000000      -11.10100000000000        2.60900000000000
C           34.09700000000000       -8.37900000000000        1.31700000000000
H           33.83800000000000       -7.31100000000000        1.34400000000000
C           33.17400000000000       -9.17700000000000        0.87200000000000
H           33.35400000000000      -10.26100000000000        0.81300000000000
H           32.20100000000000       -8.77900000000000        0.54800000000000
C           36.31099999999999       -3.68500000000000        0.69500000000000
H           35.60000000000000       -3.68200000000000        1.54900000000000
H           35.84700000000000       -4.22400000000000       -0.15900000000000
H           36.53200000000000       -2.63500000000000        0.40700000000000
C           39.32500000000000       -2.52400000000000        0.69700000000000
H           38.52500000000000       -1.78400000000000        0.91400000000000
H           39.54900000000000       -2.50400000000000       -0.39100000000000
H           40.23300000000000       -2.25300000000000        1.27700000000000
C           39.81700000000000       -5.14400000000000        7.28300000000000
H           40.55200000000000       -5.53000000000000        8.02100000000000
H           38.86900000000000       -4.90600000000000        7.81000000000000
H           40.22899999999999       -4.22700000000000        6.81000000000000
N           39.06699999999999       -7.42800000000000        6.52300000000000
H           38.87000000000000       -7.76000000000000        7.44500000000000
C           39.56700000000000       -6.18200000000000        6.23900000000000
C           38.89100000000000       -8.10600000000000        5.40200000000000
H           38.50200000000000       -9.12200000000000        5.34500000000000
N           39.26500000000000       -7.34100000000000        4.40500000000000
C           39.62000000000000       -6.11000000000000        4.89500000000000
H           39.87900000000000       -5.29400000000000        4.23200000000000
C           41.23199999999999      -10.47000000000000       -2.23800000000000
H           41.93200000000000       -9.87500000000000       -2.86300000000000
H           40.49100000000000      -10.96700000000000       -2.90000000000000
H           41.81099999999999      -11.23400000000000       -1.67600000000000
N           39.74800000000000       -8.52700000000000       -1.68900000000000
H           39.55299999999999       -8.30300000000000       -2.64400000000000
C           40.53200000000000       -9.57200000000000       -1.28800000000000
C           39.29900000000000       -7.87400000000000       -0.63600000000000
H           38.64100000000000       -7.00700000000000       -0.67400000000000
N           39.78799999999999       -8.45900000000000        0.43600000000000
C           40.58899999999999       -9.50200000000000        0.05800000000000
H           41.12500000000000      -10.09700000000000        0.78600000000000
87
 energy: -128.449485544501 gnorm: 0.105361038223 xtb: 6.7.1 (edcfbbe)
Fe          39.51769530842674       -7.88628866483517        2.44466313038222
N           41.37297348789302       -7.24466391129074        2.59138677381416
N           40.17936103554400       -9.71323188216075        3.08372168150302
N           37.62243321852362       -8.57459321598745        2.28473344823753
N           38.87773127325264       -6.11897057969511        1.82332756125780
C           41.80587383136019       -5.97574884213777        2.27466837405949
C           43.17921357923411       -5.81560124265075        2.59315856722930
C           43.61456428310800       -6.99452944537199        3.11794491621823
C           42.49618851058712       -7.87241137326255        3.09750130220000
C           41.41748395807180      -10.03345784506783        3.45976469469933
C           41.45454720904937      -11.44523954667201        3.78675128688728
C           40.18524852443148      -11.92448808784886        3.57985940812086
C           39.38209212695116      -10.78842793678263        3.13407351957626
C           37.21360924800960       -9.87383459338036        2.45243753117992
C           35.84196844779569      -10.02933921452849        2.14139690931617
C           35.39762860235641       -8.77529021293764        1.78163207900577
C           36.50875053609941       -7.88962801235422        1.89867191296128
C           37.62099967719075       -5.76303012784599        1.55043020858147
C           37.57390477630162       -4.37463811769028        1.09843621493181
C           38.84547186251142       -3.91816943346188        1.09739499946350
C           39.66207989597741       -5.04749882944581        1.56573880093490
C           41.02316422739815       -4.96914829090207        1.74618329973323
H           41.51150374869852       -4.04460782922019        1.46821823294343
C           42.52181985576789       -9.19058212393149        3.50117519859752
H           43.46220668405680       -9.59339794777761        3.85777440271638
C           38.04830329586089      -10.89629151907887        2.84732232218805
H           37.60596443054141      -11.87947410150513        2.93604223244420
C           36.47665008260666       -6.54649560475463        1.59163359506879
H           35.52832644768658       -6.08497028406064        1.35441432815620
C           45.00410579503329       -7.30416267088082        3.58504469286515
H           45.49029947352728       -6.39272635567744        3.94723055018305
H           45.59883985569713       -7.70674456612713        2.75617424461874
H           44.98594977909878       -8.03448163835040        4.39834342381384
C           44.01203225557344       -4.58837473753123        2.43476874380167
H           43.96475603868384       -3.98264277992601        3.34821487819038
H           43.65967391846867       -3.98335396601391        1.59512400191448
H           45.05236981212722       -4.87486910889832        2.25949208692177
C           42.66901997164221      -12.18161474482655        4.25326585565790
H           43.33798505978116      -11.51121016179986        4.80369133216535
H           43.22122657449570      -12.58503383112811        3.39490718240876
H           42.38168729836942      -13.00413467127528        4.91451916340678
C           39.61919092925589      -13.25654531760010        3.70564047540232
H           38.53842081450355      -13.34767192091246        3.81006114594499
C           40.33740705163285      -14.36511659872479        3.66329288985700
H           41.40826722455090      -14.32129552654690        3.53007721573803
H           39.86899434940244      -15.33772662847543        3.74514664228982
C           35.05205914354828      -11.30668701048132        2.19943880171914
H           35.54554610714099      -12.04556531312265        2.83808492565882
H           34.95242477321972      -11.73619939345662        1.19498855659736
H           34.05476769550749      -11.11057338178619        2.60580961379892
C           34.08523526663417       -8.37437208448659        1.32818784292334
H           33.85501174515156       -7.31023758634437        1.35086509238798
C           33.14819422204435       -9.18531720387685        0.86525688710308
H           33.31961570822547      -10.24873102148034        0.78465769994062
H           32.19135282987653       -8.79829789744493        0.54191919272264
C           36.31031532424893       -3.68147267349306        0.69730216835952
H           35.60243269161526       -3.67628243205572        1.53354103837756
H           35.84836485484612       -4.20479382570865       -0.14717176672588
H           36.52015410842895       -2.64902776598283        0.40584424534057
C           39.32458247599956       -2.54307554655892        0.70474507554249
H           38.54371616910188       -1.80296038251697        0.91100629650629
H           39.55157013751193       -2.50723652148964       -0.36748751433479
H           40.22024551616052       -2.25929160366451        1.26496333875402
C           39.81407072014657       -5.14728075460665        7.28880953486741
H           40.54134140864700       -5.51878668614319        8.01962057563684
H           38.88599792005842       -4.89697598586189        7.81355247729467
H           40.21753161582529       -4.24550024818626        6.82144521417333
N           39.06940220847917       -7.42346670814806        6.54126783226943
H           38.87567843231844       -7.76208876081979        7.46714453188278
C           39.54741066476531       -6.17374996516056        6.24689329245760
C           38.89777744333954       -8.09723008159904        5.39399777808073
H           38.51972614648807       -9.10397663207162        5.33497644277800
N           39.24095579695958       -7.33636486491412        4.38144106146798
C           39.62245790963210       -6.12466629551033        4.88975089765756
H           39.89472636606249       -5.31708709799894        4.23659550020135
C           41.23537045214330      -10.47012726776283       -2.24772957423549
H           41.93059846835828       -9.89466965527403       -2.86931797770379
H           40.51050630534093      -10.96959114345112       -2.90002279052893
H           41.79940069949308      -11.22346735435183       -1.69252322816473
N           39.74827928204138       -8.53537817492860       -1.70457929303606
H           39.54594942030236       -8.30983494314616       -2.66304640380763
C           40.54599688622452       -9.56694389922509       -1.29698326123179
C           39.30690926533876       -7.88182851777082       -0.62201880092459
H           38.65297301457199       -7.02727701369523       -0.65767000809045
N           39.79927041272422       -8.44298486437553        0.45925977179221
C           40.58014627526169       -9.48993246500406        0.06124050850073
H           41.10694974907943      -10.08791493471042        0.77949296640307
87
 energy: -128.460474121063 gnorm: 0.027188977470 xtb: 6.7.1 (edcfbbe)
Fe          39.51130098186719       -7.88574964332148        2.44074202289948
N           41.38047583077984       -7.22512779289532        2.59006155517095
N           40.15611295498642       -9.68609675022032        3.07499837248252
N           37.62247527126070       -8.57837537012189        2.28186142915071
N           38.88372112587077       -6.10814251942440        1.82100839347301
C           41.80637418971727       -5.97217743838437        2.27276990104163
C           43.19800918019168       -5.81247870580014        2.58855280121922
C           43.61773784700328       -6.99715292433470        3.11440665143203
C           42.47618714553106       -7.87414309105989        3.09352436345631
C           41.40520811659084      -10.04435208473913        3.45911476604928
C           41.45032620857246      -11.45371445972111        3.78852183103766
C           40.18479915005807      -11.93621630808318        3.58280276755452
C           39.38874812651596      -10.79805191266680        3.14855221008092
C           37.21979776128369       -9.87008342890288        2.44555735529133
C           35.82943817428826      -10.02820139012599        2.13613613588497
C           35.37726086098497       -8.77825603707198        1.78212584789125
C           36.51563781576503       -7.89541012476584        1.89612029519870
C           37.61074066657491       -5.74368393712037        1.54571254166279
C           37.56261995306401       -4.36707451828946        1.09718041911846
C           38.84279887962902       -3.91328764411536        1.09705375674099
C           39.65850651575632       -5.02302457002645        1.55932633953028
C           41.02242685154521       -4.95842695473666        1.74344933410117
H           41.51352733321384       -4.03426492581465        1.48310602776634
C           42.49940233041598       -9.19543810810853        3.49979854010124
H           43.44115729611800       -9.59444677338838        3.84672004079860
C           38.04777892459475      -10.90178951249438        2.84964891607515
H           37.60013320788295      -11.87791407970544        2.93084331534033
C           36.48872891222963       -6.54514764309821        1.59456460375201
H           35.54356230490600       -6.09285993959130        1.34425083518758
C           44.99579436383284       -7.31424859867323        3.58820284358149
H           45.48431676959404       -6.41222455501870        3.94871980316492
H           45.59494203912834       -7.71825835825006        2.77115918437224
H           44.98294997616610       -8.04067103071868        4.39447981891660
C           44.01770190744501       -4.57909899907475        2.42715445180606
H           43.96934780659015       -3.97255766697730        3.33228303057295
H           43.66948775183589       -3.97729543290721        1.59441502312161
H           45.05490536893959       -4.84836516812374        2.25120651357261
C           42.66490774184776      -12.17703801866685        4.25870479805737
H           43.33040095564825      -11.51128325827307        4.80253869014424
H           43.21857066237188      -12.58494488982315        3.41126701612504
H           42.38689983762919      -12.99679870651323        4.91532352700922
C           39.64445338693226      -13.26569337644433        3.71364385454468
H           38.57163938704527      -13.34079373405805        3.83403392483043
C           40.35465196838630      -14.39033414790860        3.66191388826431
H           41.41519787566583      -14.36835396337852        3.51367359737075
H           39.88588538352518      -15.35244848006457        3.75360259485962
C           35.05974091893549      -11.30167714504794        2.20701233277472
H           35.55199672599218      -12.03260880301340        2.84162633033014
H           34.95564123852984      -11.73900749750639        1.21306553172760
H           34.06541369875588      -11.11494069073454        2.60691092515339
C           34.07301112380512       -8.37280714802034        1.33140908572211
H           33.86111142440752       -7.31199030472125        1.36831496851654
C           33.12822762021581       -9.18382170375279        0.85528628133699
H           33.28460346269119      -10.23823253362405        0.75688725364819
H           32.17721822960271       -8.80055010163220        0.53753919516072
C           36.30944531744863       -3.67177118165651        0.69794230877978
H           35.59990667659413       -3.66546705168841        1.52343997911872
H           35.84502511372319       -4.18523356678545       -0.14280675591111
H           36.51235763202251       -2.64712999817852        0.40423578521644
C           39.32422291475108       -2.55634970642826        0.70922658689235
H           38.55335871730593       -1.81437552879685        0.90853935476561
H           39.55936420663356       -2.51733358096599       -0.35508978981096
H           40.21461900953307       -2.27526390587111        1.26359707389880
C           39.81008515295412       -5.14796017891378        7.29111360441269
H           40.53378953624748       -5.51774696894090        8.01524933214588
H           38.89589271561181       -4.88760442923912        7.82194358739582
H           40.21004872936683       -4.25413007757092        6.82594717412125
N           39.06760729820569       -7.42169461150278        6.55001292242952
H           38.87786333064762       -7.76779341275593        7.47649364029102
C           39.52866823349239       -6.16740732197203        6.24957497183906
C           38.90302630067989       -8.09040057240394        5.38567627527191
H           38.53660965861220       -9.09352958621603        5.32246248241055
N           39.24018844738919       -7.33748433235534        4.36755862220546
C           39.61987991143742       -6.13435329521980        4.88714922658487
H           39.91469336808181       -5.33209832533532        4.24409788134694
C           41.23904425287377      -10.47145050750177       -2.25334087361840
H           41.93148411424466       -9.91154968443947       -2.87991626345211
H           40.51860892381048      -10.97073322699548       -2.89815783637463
H           41.79534179404407      -11.22112411352812       -1.70284444834681
N           39.74721225542487       -8.53834784156701       -1.71004232612459
H           39.53239708456289       -8.31291857750517       -2.66815053638085
C           40.56010666419174       -9.55988320850621       -1.30017727521884
C           39.31687721916958       -7.88608366395278       -0.60662988158825
H           38.66145548797237       -7.04152128994442       -0.63788014797048
N           39.81114505414234       -8.43313126015091        0.47735312128680
C           40.58438795626279       -9.47591945878710        0.06268262978019
H           41.10427537984418      -10.08407663326891        0.77085374042948
87
 energy: -128.462354071459 gnorm: 0.012832600437 xtb: 6.7.1 (edcfbbe)
Fe          39.50705783863871       -7.88790919736310        2.43928729660789
N           41.38074283723270       -7.21233232803677        2.58436155865006
N           40.14078640051665       -9.68564437354728        3.06952041837512
N           37.62030772059320       -8.58277550450274        2.27716984114466
N           38.88461083433147       -6.10238188094191        1.82064257287235
C           41.80726626595249       -5.96344211716012        2.26943831096899
C           43.20620229749722       -5.80865779351574        2.58192280730393
C           43.61637026009060       -6.99642426906890        3.10798293557299
C           42.46562525348754       -7.86897672124758        3.08611062849434
C           41.39542282951843      -10.04563595100561        3.45469705026337
C           41.45078321959552      -11.45060264682587        3.78506224467153
C           40.18757222574492      -11.94344855580477        3.58204652844146
C           39.38579596003764      -10.81007295426714        3.14984011429548
C           37.22159468912560       -9.87309500978306        2.44092724816822
C           35.82646474520114      -10.02985759050116        2.13263379967687
C           35.37064648394988       -8.78209386957730        1.77825151971766
C           36.51657676452857       -7.89916708024294        1.89052793256645
C           37.60748386897918       -5.73628127152359        1.54136533298335
C           37.55738461253897       -4.36146363911665        1.09681863614656
C           38.83960460878096       -3.90859068424213        1.09949769594885
C           39.65565950966589       -5.01156017972419        1.56137491682993
C           41.02179099279252       -4.94729182750207        1.74762774785416
H           41.51344606740842       -4.01877519783985        1.50030499552574
C           42.48473107611120       -9.19037439797489        3.49294719479522
H           43.42778683546342       -9.58937301901953        3.83508308921833
C           38.04372337163425      -10.90972873591897        2.84650235287850
H           37.59129831152853      -11.88425608352606        2.92361828578225
C           36.49284996117397       -6.54907755790785        1.58831172646423
H           35.54722162919879       -6.10178203922823        1.32800937658751
C           44.98833091065831       -7.32815375095821        3.59089215531814
H           45.48318193324934       -6.43028395926417        3.95503282874435
H           45.59096119663785       -7.73989696397741        2.77926777775308
H           44.96457579000651       -8.05550083359572        4.39744923203105
C           44.02327243875381       -4.57208650675154        2.41658587065179
H           43.97184801914849       -3.95969663276436        3.31851908026988
H           43.67291640462692       -3.97295974254019        1.58133297702068
H           45.06467343836134       -4.83004869680093        2.24059611385936
C           42.66476776217015      -12.16821384063448        4.26493389531885
H           43.32630754956298      -11.49794419750879        4.80825007576451
H           43.22336405883204      -12.58275515501280        3.42341430929589
H           42.38520562000543      -12.98637514181057        4.92474494482786
C           39.66782187638546      -13.28068401205266        3.72796179550608
H           38.59774678550581      -13.35408018220364        3.87112620658674
C           40.37383867810928      -14.40896825062568        3.66941775648592
H           41.43183727920548      -14.40592425030983        3.47701871175830
H           39.90154005747139      -15.36995773617565        3.77118199728166
C           35.06099377244540      -11.30376282225004        2.21656326215491
H           35.55857432886916      -12.02517031975871        2.85871699154748
H           34.95663436701974      -11.75327179318797        1.22730514294413
H           34.06511429194832      -11.11819802581433        2.61497587672292
C           34.06239070902041       -8.37264179962767        1.33725973021590
H           33.85912375264061       -7.31046963152361        1.39168643547477
C           33.11043938766846       -9.17183261922834        0.85271495472938
H           33.25771119637293      -10.22682610674506        0.71780753374849
H           32.15996127646375       -8.77927921580461        0.53771249533846
C           36.30670609883632       -3.65851447834875        0.69710663702277
H           35.59318154014944       -3.64995396940343        1.52036892886197
H           35.83902128204729       -4.16583685915650       -0.14688536458816
H           36.51266534468949       -2.63302509724285        0.40504686290389
C           39.32832924837186       -2.55597281367689        0.71063539540621
H           38.56039999891563       -1.80856056428334        0.90144950337865
H           39.57373247222561       -2.52347644021884       -0.35220902834084
H           40.21778786576524       -2.28077616566326        1.27077059084581
C           39.80383750637235       -5.14920776285924        7.29185385174156
H           40.52905534434818       -5.52411023311937        8.01253000139674
H           38.89501447025491       -4.88102798160996        7.83021875960308
H           40.20677777090272       -4.25660046030538        6.82548031810492
N           39.05863588950641       -7.42314456303192        6.54878402662301
H           38.87147145222662       -7.77390600454698        7.47417151326923
C           39.51728448586481       -6.16705092746725        6.24933594901793
C           38.90397283636251       -8.09111252037262        5.38095963811168
H           38.54994028293577       -9.09860095006490        5.31373774919849
N           39.24110455420909       -7.33798794289573        4.36413060423498
C           39.61962445181099       -6.13686718549917        4.88768522148654
H           39.93523733966169       -5.33666925120261        4.25079994722663
C           41.24139900848407      -10.47154066674198       -2.25667078315051
H           41.93406165216871       -9.92079138935411       -2.89274199476616
H           40.51439106058684      -10.97064351143519       -2.89534239625084
H           41.79717949372850      -11.22369435169031       -1.70749101343013
N           39.74826885216806       -8.53722338905715       -1.70526790812324
H           39.52042373318697       -8.31348580586188       -2.66093436299129
C           40.57089923348828       -9.55509590891501       -1.29985397584370
C           39.32259247577229       -7.88955303662961       -0.59522483678564
H           38.66019449149853       -7.04999585392088       -0.61975713626331
N           39.82470075326196       -8.43344377649399        0.48533395131892
C           40.60137395481963       -9.47035821991790        0.06253839667988
H           41.12379470292134      -10.08471725516993        0.76408864394467
87
 energy: -128.463278208786 gnorm: 0.008631130328 xtb: 6.7.1 (edcfbbe)
Fe          39.50409559848610       -7.89068027891738        2.43620463839660
N           41.37996674921602       -7.19944387835048        2.57929478220936
N           40.12747631663151       -9.69078891522108        3.06437328714374
N           37.61934884424136       -8.58929868702304        2.27037560401318
N           38.88443888590214       -6.09669676926307        1.81861403583538
C           41.80863995071810       -5.95205322333725        2.26611194564430
C           43.21333939040281       -5.80420253008560        2.57508810881182
C           43.61520434805369       -6.99440747053556        3.10011391406143
C           42.45764427071042       -7.86180921728321        3.07746889949813
C           41.38744983648042      -10.04418547836337        3.44868586371171
C           41.45369047111329      -11.44448865289156        3.77942450456279
C           40.19333759478351      -11.94951054287751        3.57770345732389
C           39.38246836112639      -10.82388514773026        3.14719772186103
C           37.22297280809195       -9.87931260155604        2.43618416031472
C           35.82484417617485      -10.03290494582632        2.12822053013014
C           35.36869602846263       -8.78712779031097        1.77110827839788
C           36.51828964600924       -7.90350703595684        1.88166360832545
C           37.60545288153590       -5.73073887240633        1.53467272564313
C           37.55354253870068       -4.35555446526489        1.09538397003799
C           38.83634260715569       -3.90159963466632        1.10440496875772
C           39.65282475029137       -5.00151268502881        1.56550339256547
C           41.02061762867334       -4.93417667000836        1.75501606882480
H           41.51104256744145       -4.00080970736629        1.51990531605770
C           42.47267390123747       -9.18278974126782        3.48316836131958
H           43.41675830089115       -9.58274751587590        3.82152025092839
C           38.04009216992274      -10.92073785833259        2.84082403218288
H           37.58534106525487      -11.89577737013428        2.91448914867496
C           36.49708229604575       -6.55495587391581        1.57583967069898
H           35.55060585807449       -6.11243165860873        1.30531773703382
C           44.97993132545734       -7.34457374936780        3.59265868047044
H           45.48546140636089       -6.45306045555814        3.96046376683640