87
 energy: -128.468046766910 gnorm: 0.000042806855 xtb: 6.7.1 (edcfbbe)
Fe          39.55133421280208       -7.92538210985370        2.40293427109829
N           41.42699121429650       -7.23560990025574        2.52661604674267
N           40.17058484961093       -9.73088190999540        3.02004879010949
N           37.66850960235926       -8.61085898661971        2.27592796959870
N           38.93283934828546       -6.12109913803171        1.78867288692549
C           41.86404550763496       -5.99195231809642        2.20468242750286
C           43.29021939978116       -5.87736330430097        2.42352291277200
C           43.70179306248193       -7.08497040393563        2.89242883545716
C           42.52177113739492       -7.92175636076496        2.94720304025968
C           41.43405794361601      -10.08041160370760        3.38141094956148
C           41.49285836082116      -11.46679650086065        3.76662127882234
C           40.22337088946983      -11.96171869713719        3.61896810124039
C           39.41309869201306      -10.84791645655835        3.16199728443342
C           37.24800775361290       -9.88396760716413        2.51005692067104
C           35.82854229508094      -10.00160715663658        2.29980156531010
C           35.38977683866135       -8.75595582417604        1.93172564968418
C           36.56346222498352       -7.90462228250192        1.93029166074576
C           37.65788112771939       -5.74888433647469        1.50475360645671
C           37.60955378334776       -4.36317136261365        1.09102019581763
C           38.89119814056140       -3.91027904113475        1.12720536178075
C           39.70234966112847       -5.02406844342211        1.56815744256859
C           41.07146489400844       -4.95437530397620        1.74859276909595
H           41.55636554315187       -4.01469700538738        1.53010356941409
C           42.53557948262299       -9.24009815244981        3.35749990733414
H           43.48494105390155       -9.65453324271329        3.66218097727766
C           38.05815518999129      -10.93537125406633        2.90583686838966
H           37.58973198835690      -11.90037262975007        3.02868247702736
C           36.54676150389191       -6.56846800920451        1.57083878376048
H           35.59472659004420       -6.13404579984886        1.30481268534266
C           45.06889325542797       -7.52984077615003        3.28690748673098
H           45.78852541168862       -6.72366232155372        3.16598905081599
H           45.39146809937592       -8.37171121132220        2.67339327807040
H           45.08248974675244       -7.84768822632609        4.32984979014324
C           44.08493430521032       -4.64271328040325        2.16566068774225
H           43.72488724868266       -3.81804115531502        2.78171315069987
H           44.00088556289575       -4.34445119689384        1.12031694235381
H           45.13621654199684       -4.80421051731208        2.39184875203379
C           42.70258558166120      -12.16327641392700        4.28621465594260
H           43.29498197780350      -11.49397903906271        4.90841495286888
H           43.33518783390662      -12.51115576100070        3.46756654823079
H           42.41004150754193      -13.02538664347387        4.88260963445856
C           39.72464335522556      -13.29207388865471        3.88379719106762
H           38.69875067289337      -13.34782543367952        4.23048824512366
C           40.40846530854235      -14.42189295935069        3.72917557843428
H           41.41207858389193      -14.43646140424582        3.34199206008460
H           39.97305865115086      -15.37990629918287        3.96132433483584
C           35.02379167439122      -11.23425027798453        2.52761399842500
H           35.39272802334028      -11.78279155545216        3.39322521915548
H           35.07415037556336      -11.89847143739130        1.66303334377926
H           33.98136255444144      -10.97342888941391        2.70003741440774
C           34.04929559488044       -8.31229222085044        1.62226415654342
H           33.82053659812957       -7.28904147823177        1.89824428364912
C           33.10792558808198       -9.04289380212189        1.03243313946060
H           33.29058083564279      -10.04738800641885        0.69262542037093
H           32.12267831615797       -8.64829094581166        0.84574919627838
C           36.36199338943025       -3.63986069033878        0.71269399297386
H           35.65505980536247       -3.63595499497513        1.54279017831922
H           35.87964170945061       -4.12222823193239       -0.13823328273302
H           36.57846095249269       -2.60880770878458        0.44336792092541
C           39.42510378641898       -2.55774334138228        0.79819327363846
H           38.62609607061282       -1.89275680858689        0.47908382486783
H           40.16036254289324       -2.62055643841868       -0.00449990066517
H           39.91225346772229       -2.11505967300538        1.66758636406884
C           39.29137141989344       -5.22354991231906        7.29265952899490
H           39.86552742880327       -5.62277928543360        8.12890694834797
H           38.30878958450904       -4.93093917582069        7.66298547269300
H           39.79718104778082       -4.34117323011461        6.91330623584482
N           38.56373260904935       -7.44605823898921        6.39650456465792
H           38.15360729713673       -7.77279151062498        7.25589652977869
C           39.16847656823818       -6.23045212202153        6.20804811329645
C           38.61976232010021       -8.11657962359456        5.22346137186159
H           38.22252384145735       -9.09936636879459        5.07469699560760
N           39.22206484634978       -7.40118690065591        4.30607605080570
C           39.56922887495783       -6.22557478441030        4.90290879302374
H           40.08007976829725       -5.46071655635029        4.35592756492415
C           41.65784604821065       -9.96560572361842       -2.35866102909309
H           41.91562333065011       -9.26415540686522       -3.15228235835229
H           41.15236936178825      -10.81964353533654       -2.80963016971893
H           42.57331070504043      -10.31170578097541       -1.88912192151662
N           39.56975395956405       -8.77875598916129       -1.64883316782883
H           39.14380996838224       -8.76771978243473       -2.56094041707357
C           40.79222219401969       -9.31709571814119       -1.34112132595610
C           39.04654657790567       -8.27394222937734       -0.50863228231149
H           38.09346057284044       -7.79026708388149       -0.44846220597870
N           39.86174692157992       -8.45944641080100        0.49993577732760
C           40.95189430175015       -9.10658873972731       -0.00169002975824
H           41.77198323037336       -9.37557771992351        0.63099484213207
