78
 energy: -115.938146110513 gnorm: 0.344834230949 xtb: 6.7.1 (edcfbbe)
Fe         -11.66000000000000        2.55100000000000        1.40700000000000
N          -12.15300000000000        0.64200000000000        2.24600000000000
N           -9.84400000000000        2.50400000000000        2.50600000000000
N          -10.92300000000000        4.15300000000000        0.27400000000000
N          -13.20900000000000        2.24500000000000        0.01500000000000
C          -13.25300000000000       -0.02500000000000        1.92000000000000
C          -13.26200000000000       -1.16700000000000        2.78800000000000
C          -12.17700000000000       -1.12100000000000        3.54900000000000
C          -11.41400000000000        0.04200000000000        3.20600000000000
C           -9.54700000000000        1.58500000000000        3.44100000000000
C           -8.37700000000000        2.08200000000000        4.07400000000000
C           -8.01300000000000        3.21500000000000        3.48700000000000
C           -8.97700000000000        3.51600000000000        2.45100000000000
C           -9.78500000000000        4.79700000000000        0.57200000000000
C           -9.61500000000000        5.78600000000000       -0.47800000000000
C          -10.66100000000000        5.68100000000000       -1.31400000000000
C          -11.50700000000000        4.64800000000000       -0.81300000000000
C          -13.49100000000000        3.25400000000000       -0.85000000000000
C          -14.85800000000000        3.03500000000000       -1.31000000000000
C          -15.33900000000000        1.81200000000000       -0.59300000000000
C          -14.22600000000000        1.39000000000000        0.23800000000000
C          -14.22100000000000        0.30300000000000        1.04400000000000
H          -15.07800000000000       -0.36700000000000        0.97800000000000
C          -10.22500000000000        0.45600000000000        3.77800000000000
H           -9.79800000000000       -0.17200000000000        4.56000000000000
C           -8.96400000000000        4.56700000000000        1.61200000000000
H           -8.19900000000000        5.32000000000000        1.79600000000000
C          -12.69100000000000        4.24600000000000       -1.32800000000000
H          -13.04100000000000        4.77000000000000       -2.21700000000000
C          -11.71800000000000       -2.11400000000000        4.62100000000000
H          -12.45300000000000       -2.94400000000000        4.69700000000000
H          -11.65100000000000       -1.60100000000000        5.60400000000000
H          -10.72800000000000       -2.53400000000000        4.34400000000000
C          -14.39600000000000       -2.19200000000000        2.75400000000000
H          -14.57500000000000       -2.51200000000000        1.70500000000000
H          -15.32600000000000       -1.73600000000000        3.15500000000000
H          -14.11700000000000       -3.08100000000000        3.36000000000000
C           -7.72700000000000        1.32100000000000        5.20900000000000
H           -7.75000000000000        0.23300000000000        4.98700000000000
H           -8.28200000000000        1.50800000000000        6.15300000000000
H           -6.67000000000000        1.64300000000000        5.32000000000000
C           -6.82300000000000        4.11400000000000        3.79200000000000
H           -6.37200000000000        4.71600000000000        2.98900000000000
C           -6.30500000000000        4.20400000000000        4.98300000000000
H           -6.72100000000000        3.62200000000000        5.81800000000000
H           -5.44500000000000        4.86400000000000        5.16900000000000
C           -8.41700000000000        6.74300000000000       -0.59800000000000
H           -7.56200000000000        6.34200000000000       -0.01300000000000
H           -8.69200000000000        7.74100000000000       -0.19500000000000
H           -8.11400000000000        6.83400000000000       -1.66300000000000
C          -10.98300000000000        6.44600000000000       -2.61300000000000
H          -11.54300000000000        5.95500000000000       -3.42300000000000
C          -10.61200000000000        7.65500000000000       -2.78000000000000
H          -10.05000000000000        8.18000000000000       -1.99400000000000
H          -10.84900000000000        8.18800000000000       -3.71300000000000
C          -15.68900000000000        3.85500000000000       -2.28900000000000
H          -15.39800000000000        3.59700000000000       -3.33000000000000
H          -15.50600000000000        4.93800000000000       -2.12200000000000
H          -16.76700000000000        3.62600000000000       -2.14900000000000
C          -16.72300000000000        1.17200000000000       -0.71200000000000
H          -17.13200000000000        1.35900000000000       -1.72800000000000
H          -17.40900000000000        1.61800000000000        0.04000000000000
H          -16.64500000000000        0.07600000000000       -0.55100000000000
O          -10.79600000000000        1.36100000000000        0.02700000000000
H          -11.46700000000000        1.19600000000000       -0.63600000000000
H           -9.96400000000000        1.04700000000000        0.02300000000000
C          -15.11800000000000        6.31400000000000        3.81600000000000
H          -14.65800000000000        7.30500000000000        4.01900000000000
H          -15.71400000000000        6.00600000000000        4.70100000000000
H          -15.77600000000000        6.39800000000000        2.92500000000000
N          -13.05600000000000        4.97900000000000        4.46400000000000
H          -12.97800000000000        5.37900000000000        5.37700000000000
C          -14.03400000000000        5.30000000000000        3.55400000000000
C          -12.24500000000000        4.06400000000000        3.93700000000000
H          -11.38600000000000        3.63200000000000        4.44900000000000
N          -12.66500000000000        3.78800000000000        2.71500000000000
C          -13.77200000000000        4.55400000000000        2.44000000000000
H          -14.27100000000000        4.50000000000000        1.48100000000000
78
 energy: -116.014328718282 gnorm: 0.137688436677 xtb: 6.7.1 (edcfbbe)
Fe         -11.64437370781124        2.53615755888042        1.39646901392431
N          -12.14601747463086        0.68906591135336        2.24807987141554
N           -9.88216265170061        2.51221255159499        2.49239495065016
N          -10.94025991113246        4.13768021513568        0.29574466995843
N          -13.21227366458367        2.28102559023298        0.05474198218602
C          -13.24797121681865       -0.01691127473784        1.93944004736242
C          -13.27454723876247       -1.18883657928240        2.79137081862926
C          -12.17145387517334       -1.14453438524197        3.56339127922474
C          -11.43329298250176        0.04763466349847        3.20544723280376
C           -9.55276733682460        1.60561710397210        3.43914251533427
C           -8.35621592023715        2.07327855335758        4.08834769421840
C           -7.98762901234011        3.23270946010558        3.49486111757820
C           -8.97699390467960        3.50765016684717        2.46589991374558
C           -9.79954222819505        4.81027135431422        0.55601964324171
C           -9.61006767754313        5.80571302850370       -0.49008754864855
C          -10.66383716524806        5.68588336224662       -1.34085817930789
C          -11.50641745011380        4.63750576742646       -0.81609309180932
C          -13.53179293229746        3.23416253535964       -0.85503714142831
C          -14.89069481042774        3.00015494277643       -1.30312028524326
C          -15.34133687748313        1.84098872023854       -0.62260197143564
C          -14.24146312645096        1.42071510267454        0.21780079739431
C          -14.23103602397891        0.31030477268395        1.03845797446903
H          -15.08026368398898       -0.36007477187926        0.97707828585811
C          -10.23978724074795        0.45848038970087        3.77288131533524
H           -9.81264290833052       -0.16852438452060        4.54909214780780
C           -8.95577008549419        4.58011008560324        1.61256769504368
H           -8.18310874501712        5.31821044757273        1.78735086433223
C          -12.71221817788890        4.23832544955865       -1.33910440259939
H          -13.05792683527571        4.77318709624048       -2.21435619721062
C          -11.72147588376606       -2.11769294188004        4.61987104229579
H          -12.44026040354849       -2.93870548230304        4.70263941560030
H          -11.64917168683142       -1.61229083101886        5.59034804880944
H          -10.74108858074197       -2.52929395492015        4.35335474497873
C          -14.39111538131738       -2.19634362585455        2.75590184979911
H          -14.57372947315515       -2.51238830039013        1.72189474828125
H          -15.31156290102867       -1.74834356151460        3.15119768357225
H          -14.12924800577001       -3.07474019868703        3.35311103712203
C           -7.71614664933342        1.31753266359201        5.21025054397022
H           -7.74429468205583        0.24367672029197        4.99582252384348
H           -8.26532207981886        1.50206755294986        6.14341953282035
H           -6.67503175553485        1.62832141716249        5.32653127894405
C           -6.82901903430350        4.10482612897628        3.78996379177562
H           -6.39790676728865        4.69786560091851        2.98355099204283
C           -6.29887345466735        4.20584047653812        4.99500692513421
H           -6.70781771030643        3.64731732986445        5.82714964320839
H           -5.45013742731608        4.85552751596187        5.17975977118563
C           -8.42299252798604        6.73527543291060       -0.59685913684132
H           -7.57438431252524        6.34747352062677       -0.02231149250032
H           -8.68335898069011        7.72565057151233       -0.20163564723045
H           -8.11975258530426        6.83561670452581       -1.64551294088566
C          -10.97350003325126        6.42780765117319       -2.59768870392434
H          -11.53570707335830        5.93063627023908       -3.38854402932632
C          -10.60209222749545        7.67514878739931       -2.78121355682872
H          -10.05605302304609        8.20327468670896       -2.01157503653193
H          -10.83959463736684        8.19989218326173       -3.70144507971975
C          -15.68186949140655        3.83762889996999       -2.27596037905750
H          -15.40195221165354        3.59956651876755       -3.31263063282423
H          -15.50795341475356        4.91171043865396       -2.12009874789592
H          -16.75063692156001        3.63308421647504       -2.15299591683680
C          -16.70137139271709        1.18851901985164       -0.71913511392638
H          -17.12802176514024        1.35609323242899       -1.71450184948021
H          -17.39221193707801        1.61007667176691        0.02600813167172
H          -16.64011869973506        0.10438078094457       -0.55298742895233
O          -10.78674917316357        1.36155062705984        0.00848618442459
H          -11.45270874846308        1.17702790184947       -0.65613724805118
H           -9.91728531456270        1.01276545463069       -0.00279560056664
C          -15.10973592893265        6.31099345196696        3.81712784202254
H          -14.66766183893177        7.29505236486339        4.01818580096077
H          -15.70850084450004        6.01390690050472        4.68724599093897
H          -15.76293584364043        6.39363081866139        2.94275777843846
N          -13.06642015994767        4.98614791905122        4.46633280389846
H          -12.98502021244684        5.38659470419549        5.38433250964257
C          -14.03501275284076        5.30517260254621        3.55111853025998
C          -12.25311231736305        4.06190124687579        3.92476076367653
H          -11.40249287905497        3.63524462442466        4.43251242129097
N          -12.65372231087181        3.77526769893240        2.70325668645211
C          -13.75953230450580        4.54482559790658        2.44789319193731
H          -14.25947139324489        4.49374255541120        1.49691531955112
78
 energy: -116.037187518832 gnorm: 0.035905754821 xtb: 6.7.1 (edcfbbe)
Fe         -11.62372602523365        2.51766588666683        1.38199017703676
N          -12.15349245078817        0.74394850538852        2.25564892235681
N           -9.92363315026988        2.53154625808397        2.48591581411670
N          -10.95652432334516        4.11983925130354        0.31641520712782
N          -13.22140344890162        2.32977149523673        0.11075469661867
C          -13.25159418368386        0.00596443248837        1.95939986697786
C          -13.28292633391967       -1.18995240574730        2.78841878710745
C          -12.16949344763134       -1.14898890931714        3.56640998918615
C          -11.45813264477580        0.06721299581249        3.20599867258710
C           -9.56660270164021        1.63261015007050        3.43867528026552
C           -8.35269249967601        2.06918929861353        4.09464615951821
C           -7.98125964179395        3.24737069158466        3.50031949653217
C           -8.98379592592549        3.50726910945312        2.47620629366562
C           -9.81531363426135        4.81668456822021        0.54832966381457
C           -9.61523373911850        5.81271736436978       -0.49064292117574
C          -10.67289364508104        5.68350927217089       -1.35487417884408
C          -11.50953952570119        4.62196358561439       -0.81419604205525
C          -13.56649241700620        3.23300026501369       -0.84545742251011
C          -14.91384915229056        2.97089615347129       -1.29961087218524
C          -15.33972285223259        1.86337952495041       -0.64418267630243
C          -14.25616413425777        1.45619835146565        0.22267614435751
C          -14.24055653330246        0.33154886456846        1.04420795929892
H          -15.07932197785121       -0.34550677287772        0.97597944271863
C          -10.25951480766654        0.47304016255197        3.76746223938715
H           -9.82967309354134       -0.15896145328640        4.53332400447723
C           -8.95287681774830        4.58895155566954        1.61136801197129
H           -8.16383713681010        5.30925555122739        1.76891131396905
C          -12.73322228824020        4.23563881863495       -1.33776471344783
H          -13.07852445432502        4.77723597499587       -2.20523069871052
C          -11.72298064918149       -2.11379078252532        4.61131119949734
H          -12.42981408302143       -2.93340111177664        4.70352456971602
H          -11.64591894647999       -1.61923280838940        5.57907401161744
H          -10.74650087751621       -2.52617844617247        4.36055485197015
C          -14.38274491114135       -2.19448059073463        2.75430764176594
H          -14.57291329745095       -2.51574728000145        1.73160462028795
H          -15.30150212149369       -1.75842864870694        3.14803763095318
H          -14.13406121854898       -3.06840843458902        3.34891170382149
C           -7.70930991549181        1.31329318875309        5.20390898306947
H           -7.73903130399830        0.24508305898358        5.00194303859422
H           -8.24513964186584        1.49513335866295        6.13758868601462
H           -6.67468895294829        1.61468555970362        5.32679524609363
C           -6.84503950493386        4.09290284599098        3.79301424470956
H           -6.43006801995962        4.67494134085140        2.97841413539632
C           -6.29813199224537        4.20783136224795        5.00087396711761
H           -6.69899707013098        3.67685180116203        5.84309919296632
H           -5.45234376181111        4.84833339947728        5.17956251375396
C           -8.43662146560071        6.72380845623466       -0.59407912669186
H           -7.58984438773143        6.34129491757619       -0.02942823170621
H           -8.67889972578475        7.71308937537494       -0.20232269868161
H           -8.13331555781347        6.83576966038283       -1.63426236627181
C          -10.96254226081147        6.41739497398550       -2.57036767832923
H          -11.52496582532703        5.90894263529586       -3.34483907904068
C          -10.59398234051461        7.67903946808473       -2.77789372840571
H          -10.06268780184386        8.22575068587266       -2.02429835167680
H          -10.83343223657189        8.19473136399304       -3.69203491221464
C          -15.67802352266825        3.81773733490064       -2.26827272978953
H          -15.39666708583547        3.59256775190439       -3.29959323633816
H          -15.49861730299786        4.88141791347306       -2.10497523085310
H          -16.74430641120543        3.63372183029534       -2.15900554297760
C          -16.68110517168792        1.20247031342985       -0.72911986218237
H          -17.12204747972265        1.35793768840215       -1.71178177265997
H          -17.36744891768111        1.61269043234031        0.01662437177732
H          -16.61731711669441        0.12844610587570       -0.55501859663736
O          -10.74620397423435        1.36786115546469       -0.03584530605646
H          -11.40826799357233        1.12793396755675       -0.69158409681454
H           -9.88157491617769        0.96080463182595       -0.04199057622855
C          -15.10023429020580        6.30471669950602        3.81334600428699
H          -14.66907710363445        7.28483712908765        4.01618273061901
H          -15.69925310380120        6.01344155892012        4.67610362103166
H          -15.75243268028873        6.38721498762978        2.95002146463335
N          -13.07113882588235        4.98765181201615        4.46640852227146
H          -12.98772025417734        5.38812382556362        5.38692850691137
C          -14.03183749860045        5.30451380425703        3.54382050055139
C          -12.25771836702057        4.05739377790641        3.91588321484748
H          -11.41390405133778        3.63421871299820        4.42115374013094
N          -12.64192618923201        3.76152797773255        2.69634216448320
C          -13.74505817349438        4.53288529054428        2.45106190877130
H          -14.24862871260968        4.48467740223365        1.50721151803552
78
 energy: -116.044512629137 gnorm: 0.035586808945 xtb: 6.7.1 (edcfbbe)
Fe         -11.60979604807509        2.50136863366028        1.35929169485487
N          -12.16787582769936        0.77680250358610        2.26429819590081
N           -9.94948086444534        2.54761139892285        2.49077480324570
N          -10.96571325469633        4.11186236326275        0.32851715957174
N          -13.23882877737634        2.36693402041387        0.14822122938001
C          -13.26616789720607        0.03186120403142        1.97734945510248
C          -13.29066500066514       -1.17488482066270        2.78927909232014
C          -12.17491703865120       -1.13562869182518        3.56658936906194
C          -11.47830447457240        0.09013637069173        3.21287384173940
C           -9.58661542285818        1.65139660029974        3.44689065542227
C           -8.36782575473257        2.07063601414704        4.10159685275659
C           -7.99607202845795        3.25377946927739        3.51020673813041
C           -8.99616147647163        3.51382837253564        2.48519705056236
C           -9.82476853665768        4.81564392507840        0.55374723414080
C           -9.62587215694166        5.81140857456588       -0.47677580275240
C          -10.68401466722357        5.68303644930888       -1.34279557753546
C          -11.51798558021579        4.61847275689489       -0.80262115817451
C          -13.58390534190603        3.25391278418025       -0.82507347865572
C          -14.92015689430831        2.97700929643972       -1.30038602173626
C          -15.34515391291871        1.86843383489770       -0.63896071143271
C          -14.27117941064285        1.48629113359393        0.25118741862579
C          -14.25652309409752        0.35968053411824        1.06484689420575
H          -15.08927881832535       -0.32308681844611        0.98513491441648
C          -10.28058211453910        0.49152229052869        3.77241220317657
H           -9.84892527632602       -0.14751283648137        4.52884098631496
C           -8.95449641365046        4.59067736142514        1.61312050659477
H           -8.14397660448547        5.29406824791377        1.74762288456211
C          -12.74888906948740        4.24722464298372       -1.32349051142556
H          -13.09890121710214        4.79232675908452       -2.18766718429296
C          -11.72129955105333       -2.10518389097879        4.60319454264557
H          -12.42396159856736       -2.92856885880141        4.69713056082963
H          -11.64162104361336       -1.61663535088825        5.57374299027087
H          -10.74385076719111       -2.51691047763484        4.35477336082279
C          -14.37951861885853       -2.19018060773290        2.75131384009629
H          -14.56948993993562       -2.51770772928993        1.73072951908895
H          -15.30290621660258       -1.76504976037432        3.14557605753419
H          -14.12711792643642       -3.06231484188489        3.34739884009303
C           -7.70693537623657        1.30654968272959        5.19604615741460
H           -7.73976316160671        0.23796365880699        4.99636294108111
H           -8.22281332331930        1.48570134552673        6.14139152666738
H           -6.66859775193039        1.60221328120326        5.30856427580236
C           -6.85808168987319        4.08977757604108        3.80087711702366
H           -6.45234774335135        4.65906824573192        2.97313347052511
C           -6.29799875253881        4.21789820299923        5.00369927267396
H           -6.69839909161707        3.71685892806636        5.86664792062140
H           -5.44317080500501        4.84965379814588        5.16817256984447
C           -8.44767016037503        6.71568606446115       -0.58728631768401
H           -7.59788400072282        6.32481366225024       -0.03409870228878
H           -8.67781578816743        7.70544659530250       -0.18996161148306
H           -8.15578775726065        6.83346184004818       -1.62999912571076
C          -10.96179814168661        6.41756192698990       -2.55142991590778
H          -11.52493834282103        5.89364272155106       -3.31456382054588
C          -10.59136351342603        7.67886266377585       -2.77868337413322
H          -10.06962595825068        8.25025828747817       -2.03402768207999
H          -10.82764826839360        8.18373776648807       -3.69868046807900
C          -15.67543729939454        3.81343329438735       -2.27643275407166
H          -15.38341108400441        3.58598661129388       -3.30215140730035
H          -15.48919619805769        4.87126495821504       -2.10028032539390
H          -16.74283387289734        3.63346129645752       -2.17534890059659
C          -16.67507745432059        1.20041676464743       -0.73327388062460
H          -17.11548054405024        1.35538406832701       -1.71524768233875
H          -17.35671909425047        1.61095601630286        0.01387714536227
H          -16.59580716090689        0.13057963501547       -0.55724552806744
O          -10.67598847337005        1.39548758176320       -0.11498741030611
H          -11.35173877693417        1.03914332844371       -0.72479049049251
H           -9.84890411443312        0.88174692580321       -0.06790616502390
C          -15.08848477481240        6.29324435559759        3.80402964897304
H          -14.66013312083201        7.27369842049412        4.00921227665605
H          -15.68715131410593        6.00191916748564        4.66639936570264
H          -15.74234581385174        6.37628167470873        2.94310054278018
N          -13.06526131734089        4.97800607063418        4.46145586545969
H          -12.98385456696819        5.37917344487255        5.38223967760856
C          -14.02159553966076        5.29392608305958        3.53342522390497
C          -12.25258734035551        4.04555128300296        3.91140176449296
H          -11.41237920469577        3.62138922461973        4.41848377692795
N          -12.62944359660608        3.74729185555466        2.69172836919947
C          -13.73113999201562        4.51798992427811        2.44542038086540
H          -14.23759108255921        4.46925091059719        1.50463782707946
78
 energy: -116.048379987808 gnorm: 0.047018418747 xtb: 6.7.1 (edcfbbe)
Fe         -11.60728049728120        2.49572754346296        1.34614954598431
N          -12.16963662462249        0.79217600241509        2.25087197688414
N           -9.96503196978510        2.55321603349031        2.48582253715380
N          -10.97316942819181        4.10128403216147        0.33923178890631
N          -13.24386961057323        2.39315467582346        0.17461309597638
C          -13.27822682112071        0.05202728411958        1.98500922691053
C          -13.30037147133571       -1.15428525611751        2.79054293402480
C          -12.18258650976323       -1.11675893191455        3.56463900233735
C          -11.49100981649830        0.10722290273524        3.21032986709884
C           -9.60380191893002        1.66293591673315        3.45088158061019
C           -8.39016779453676        2.07405670384010        4.11020074790005
C           -8.01784289255944        3.25867328348258        3.52212699814498
C           -9.00791612470786        3.51754248928381        2.49037571260098
C           -9.83173830866808        4.80806797814967        0.56099135471778
C           -9.63913575167149        5.80837966876516       -0.45720154596698
C          -10.69911177833691        5.68556805029167       -1.32076854276191
C          -11.52859276896545        4.61780476624482       -0.78593690058589
C          -13.59127972784252        3.27325507369231       -0.80303987002488
C          -14.91868474995307        2.98640584500863       -1.29421744172811
C          -15.34424733573008        1.87631810968455       -0.62682391829223
C          -14.27675435076720        1.51224922653743        0.27663521792786
C          -14.27193909790113        0.38733611264248        1.08311292087521
H          -15.10950911105928       -0.28901755415845        1.00345913882909
C          -10.29831399261012        0.50627391280733        3.77501668740140
H           -9.87340030563031       -0.13227299214855        4.53346563417902
C           -8.95444347010976        4.58617976232122        1.61265746694432
H           -8.12858953546012        5.27570394333731        1.72691992770636
C          -12.76403950747647        4.26366379429247       -1.30351668325083
H          -13.12231168883520        4.81471288516476       -2.16168650523101
C          -11.71995346953230       -2.09049943128841        4.59462741982305
H          -12.41994283594061       -2.91753240772445        4.68828696143839
H          -11.63608477134308       -1.60663122716995        5.56808118557386
H          -10.74213273314938       -2.50024475165397        4.34068727390970
C          -14.37967447280237       -2.18121163726631        2.74923313679132
H          -14.56280723066688       -2.51634562573582        1.72898841848510
H          -15.31043203493291       -1.76807361404643        3.14058461982678
H          -14.11710915656474       -3.04959556080806        3.34867687128562
C           -7.70817045055837        1.30302248503421        5.18842178539713
H           -7.74353238172751        0.23400098028446        4.98513297112133
H           -8.19854753681218        1.47636830180496        6.14964324589814
H           -6.66556638295105        1.59937545687201        5.27858342209665
C           -6.87433013520266        4.09022591994125        3.81038703402338
H           -6.46921829814977        4.63865562855815        2.96746789221089
C           -6.30459707038195        4.23401788693205        5.00606716370299
H           -6.69407241958211        3.75245810825874        5.88709005393797
H           -5.43617283655658        4.85438454621940        5.15214341142621
C           -8.45969260823612        6.70824194452966       -0.57781749640341
H           -7.60219786291680        6.30468500113157       -0.04425431563094
H           -8.67612925132599        7.69631765378023       -0.16741417542354
H           -8.18821089676769        6.83378470957760       -1.62602447926919
C          -10.96925267273508        6.42071420624301       -2.53107605262324
H          -11.52885985456872        5.88035408548213       -3.28629993625783
C          -10.59541689707734        7.67687331760260       -2.77819613725695
H          -10.07448391152467        8.27153542780456       -2.04781109337551
H          -10.82029047862080        8.16544313617572       -3.71109398941323
C          -15.66725660724905        3.80941701168916       -2.28402475832698
H          -15.36372070789732        3.57744437176728       -3.30477499718425
H          -15.48101200294739        4.86573117756017       -2.10552635948783
H          -16.73655525604709        3.63066093274878       -2.19596887027333
C          -16.66594123624752        1.19926269776311       -0.73361742085597
H          -17.10433714899835        1.35579730558589       -1.71620435156330
H          -17.35162252082291        1.60120372516855        0.01408777653001
H          -16.57373569727273        0.13057660732687       -0.56376866256864
O          -10.61137699216230        1.40340256832717       -0.18800815642300
H          -11.27937806910515        0.95752555452785       -0.75691914590820
H           -9.83423540831609        0.79296916659806       -0.08559691749076
C          -15.07714626698627        6.28250295616925        3.79381932312815