78
 energy: -116.057985605720 gnorm: 0.000048244139 xtb: 6.7.1 (edcfbbe)
Fe         -11.58245199756785        2.48646902476716        1.27166564638293
N          -12.19043990292388        0.81938947435408        2.23287942462914
N           -9.93046277483538        2.52676371917376        2.40930811839487
N          -10.95550715264838        4.09170024227459        0.27899848377011
N          -13.21264033661998        2.39449084944166        0.11376908365768
C          -13.35075719839323        0.13744651942119        2.03554884421151
C          -13.45181779144952       -0.97525721520235        2.95185778077706
C          -12.32537572865614       -0.94735895311381        3.71475874544745
C          -11.55241734778762        0.18395817102162        3.25541779716670
C           -9.59145244590172        1.65768236315684        3.40275181959073
C           -8.35102377744335        2.04526137741476        4.02250214819434
C           -7.94467053369714        3.18883125919598        3.38633688718636
C           -8.94624597910365        3.46111343157701        2.37409478156518
C           -9.82269515720752        4.80507458580083        0.51702041245338
C           -9.70888221588074        5.91104635509433       -0.40170271857855
C          -10.81189307044031        5.85306945133426       -1.20983921622718
C          -11.57276800568692        4.70057956264671       -0.76298406953351
C          -13.54533600000875        3.24936388905213       -0.88834899633028
C          -14.81919482459626        2.88671991190049       -1.46989588611337
C          -15.25048649557500        1.79116728509318       -0.78990268415849
C          -14.23350893903619        1.49993350383684        0.19685260975384
C          -14.30886612606532        0.44588204106730        1.08751641583115
H          -15.18468958345690       -0.18302118539438        1.04301651024030
C          -10.33870577168806        0.55958113600995        3.79808413005573
H           -9.95444215829680       -0.03758532746154        4.61098491157227
C           -8.89401976797701        4.53235065352609        1.50450234913420
H           -8.05868995765067        5.20908230240990        1.59907363798533
C          -12.78610733658193        4.32451919909821       -1.30867856831012
H          -13.17624117497025        4.91942110427231       -2.12044789339198
C          -11.90624536730905       -1.86149886188351        4.81499596301394
H          -12.64802833253119       -2.64015677554074        4.97429382440950
H          -11.78267765238820       -1.31021890919710        5.74771896911342
H          -10.95495163747715       -2.33836628852064        4.57705293718078
C          -14.59664592856089       -1.92837685311832        2.99382592307402
H          -14.70593720681004       -2.43963334269650        2.03699338494605
H          -15.52727585126196       -1.39995816380785        3.20183856208699
H          -14.44833112887677       -2.67825322574883        3.76702683198857
C           -7.64985901327648        1.28096564723743        5.09134012637087
H           -7.75327824512518        0.20871475621697        4.93084232303137
H           -8.06084733211133        1.51586754459681        6.07490498743344
H           -6.59101840499948        1.53147698028797        5.09418268212071
C           -6.75647089185212        3.98258215102745        3.60726197441567
H           -6.33635712553537        4.45157223869327        2.72525501998899
C           -6.16599683979816        4.17785785736724        4.78195514020150
H           -6.56405993947625        3.77727969546853        5.69796715827101
H           -5.27185480924460        4.77233620628348        4.87089008612671
C           -8.55832049126738        6.85325613858369       -0.47118170649932
H           -7.62005203125583        6.32714115956169       -0.30217271183247
H           -8.64831482083437        7.63511525391170        0.28490653517627
H           -8.52089217532885        7.32468249908751       -1.45109219381259
C          -11.18397783053914        6.70809591259467       -2.31530098877654
H          -11.70100986846791        6.21798018317018       -3.13218997072273
C          -10.94897489875944        8.01397349744123       -2.39334144377246
H          -10.48184011413616        8.56061359374554       -1.59274432892303
H          -11.24115298114153        8.58869073729114       -3.25666166725270
C          -15.46772663418906        3.61716176245239       -2.59521886443815
H          -14.82745145055813        3.60602670890135       -3.47749326920701
H          -15.65012557532205        4.65719746425245       -2.32352333288970
H          -16.41873890228114        3.15976654389323       -2.85696812003494
C          -16.50068234763143        0.99962992899319       -0.96813508760311
H          -17.11054582854313        1.41496788249015       -1.76657155978981
H          -17.08931408036241        1.00124517102826       -0.05040298141833
H          -16.26787134906070       -0.03584036073839       -1.21825255819348
O          -10.51245862467143        1.05691581287211       -0.16552854880303
H          -11.23645638347605        0.46542861237489       -0.39645185818762
H           -9.94658309329075        0.58554995641130        0.45501955937772
C          -14.70553417334600        6.36936273996737        3.77207714131189
H          -14.20834453656117        7.09015536086322        4.42102080839503
H          -15.62221091086047        6.04363515510646        4.26373489463511
H          -14.96622591790256        6.86161832808168        2.84049111214416
N          -13.31680042376496        4.41046461973865        4.48271696338976
H          -13.48900232057554        4.51668950394466        5.46893977176578
C          -13.81769387667537        5.21288496942698        3.49127606943032
C          -12.55355334552674        3.46164762196524        3.89538562133227
H          -12.03415634016966        2.69347877784246        4.42999696823635
N          -12.54116960837004        3.61407339514871        2.59348132614347
C          -13.32313558743179        4.69950673957817        2.32663416040023
H          -13.47605821891647        5.03601894158598        1.32206386129922
