72
 energy: -105.980475495852 gnorm: 0.000142830297 xtb: 6.7.1 (edcfbbe)
Fe         -18.64680587845424       -2.61205239605556       13.86557544589249
N          -18.43588732031951       -0.66117804824811       14.19769251348481
N          -17.90219462830424       -2.37347460492777       12.00645890909475
N          -18.93174368213870       -4.57239875181755       13.48513008598659
N          -19.44558411628115       -2.84888812074751       15.67119816009158
C          -18.72738776242763        0.00240681446488       15.34367033620985
C          -18.43740715901088        1.41398938756399       15.20738624917278
C          -17.97484200009383        1.58744348636028       13.94167912434654
C          -17.97953631270112        0.27730833496017       13.32643659886774
C          -17.50310239412901       -1.20474400391231       11.42940952325917
C          -16.99830053406614       -1.43579012970912       10.10252615670747
C          -17.09074625181897       -2.78583238401529        9.88323382950077
C          -17.67438758249551       -3.34752925273948       11.08366545199465
C          -18.55546842239661       -5.25262102727107       12.36441024556943
C          -18.88024963063940       -6.64961292048883       12.48224577897343
C          -19.46566712663456       -6.80628849967634       13.71131102375364
C          -19.48241242420036       -5.49222181173152       14.31871584818488
C          -19.92264648076706       -3.99876110370071       16.21297956162823
C          -20.39319107847047       -3.77200452855195       17.56349357037060
C          -20.17768073669438       -2.45668034624411       17.82484188248553
C          -19.58755935083289       -1.89692142736668       16.62717911435431
C          -19.24629084467129       -0.56667433128477       16.49041033998386
H          -19.41950228557291        0.08248600172254       17.33452052413500
C          -17.54796883653652        0.03837585714634       12.03765767267577
H          -17.20090266684010        0.88415454479912       11.46494907079876
C          -17.95184413863065       -4.69072907229011       11.25301400132584
H          -17.68506113605708       -5.35641071704219       10.44735786539821
C          -19.95228975079129       -5.23160198334056       15.59218857955917
H          -20.35027041984520       -6.06102993346415       16.15530486500808
C          -17.53312933467100        2.83515415474383       13.25780451507288
H          -17.62352822639798        3.69143364141749       13.92130581144829
H          -18.14159738129987        3.02188317571914       12.37279386675246
H          -16.49242710744036        2.75383523259119       12.94243540545129
C          -18.64147302328276        2.42054263967305       16.28621289078566
H          -18.06186478389764        2.15727039817519       17.17119607395195
H          -19.69254722599239        2.46594797559319       16.57143829408717
H          -18.33312513133244        3.40942433392068       15.95614912843644
C          -16.54074676328018       -0.37486501890307        9.16442031068208
H          -15.50897353869053       -0.08702901582941        9.37356552437243
H          -17.16339892028770        0.51388255019131        9.25522125411015
H          -16.59495152380551       -0.73549523744965        8.13928485591457
C          -16.73370398659513       -3.54648711527967        8.70591321502016
H          -17.35956565794906       -4.40572047725227        8.49439244433220
C          -15.71595807490949       -3.27601133892303        7.89564196271532
H          -15.03394802983304       -2.46496183455580        8.08248731625707
H          -15.51405814130277       -3.87841113561409        7.02575221220972
C          -18.67307138524317       -7.67017826233764       11.41885882493274
H          -17.64475394671224       -8.03514699254689       11.42537702281524
H          -18.87488403110804       -7.25013485083492       10.43450823449548
H          -19.33872560339773       -8.51569818352858       11.57934867144959
C          -20.00194480029976       -8.00175685797048       14.32444644214351
H          -20.86818671760531       -7.85347666133418       14.95880258138944
C          -19.51449726497604       -9.22848714577222       14.17383573077766
H          -18.62852515630274       -9.42616928055931       13.59617061568040
H          -19.97268738176257      -10.07856648342459       14.65122869020060
C          -20.98096915246306       -4.82684796565863       18.43559470274993
H          -20.26478960485173       -5.63289784508892       18.59585608666443
H          -21.87273658530091       -5.25245901046573       17.97494539257525
H          -21.25842424507293       -4.41722396733011       19.40351367242651
C          -20.46859613331728       -1.67684736309101       19.06008213511478
H          -19.55499166655150       -1.23392801594258       19.45671176998834
H          -20.90110872229398       -2.31453504488234       19.82688231498740
H          -21.17113221092251       -0.87102091763045       18.84680789600535
O          -20.68203293923617       -2.30305517140581       12.97539326651652
H          -21.08278100668218       -3.16686407872543       13.12621091012654
H          -20.46487478743011       -2.25042391053589       12.03744591970822
C          -15.38353917425745       -1.76090111569875       14.32006452016612
H          -14.35718487495507       -2.10045083665983       14.41998349561758
H          -15.59547409680718       -0.98728083541341       15.05066678713189
H          -15.58068005159683       -1.38669987948996       13.32142733824404
S          -16.51187249058232       -3.15013920518692       14.68892283711603
H          -16.11860816749103       -3.90092207909108       13.65425673055492
