78
 energy: -115.967512476785 gnorm: 0.252466778868 xtb: 6.7.1 (edcfbbe)
Fe           9.20800000000000       -0.79100000000000       19.11400000000000
N            8.16400000000000        0.67700000000000       19.97500000000000
N           10.20800000000000        0.52200000000000       18.04700000000000
N           10.29900000000000       -2.21300000000000       18.26600000000000
N            8.20100000000000       -2.09200000000000       20.15400000000000
C            7.17600000000000        0.58400000000000       20.92100000000000
C            6.64200000000000        1.90200000000000       21.24200000000000
C            7.35700000000000        2.81100000000000       20.51800000000000
C            8.25400000000000        2.04000000000000       19.70100000000000
C           10.00600000000000        1.89500000000000       17.98500000000000
C           10.87000000000000        2.52800000000000       16.99100000000000
C           11.67500000000000        1.54600000000000       16.49800000000000
C           11.24100000000000        0.32000000000000       17.11700000000000
C           11.35600000000000       -2.12800000000000       17.36600000000000
C           11.95900000000000       -3.43900000000000       17.11900000000000
C           11.25500000000000       -4.31300000000000       17.84500000000000
C           10.21400000000000       -3.56800000000000       18.53000000000000
C            8.27800000000000       -3.46400000000000       20.07100000000000
C            7.21600000000000       -4.10500000000000       20.86300000000000
C            6.53300000000000       -3.08800000000000       21.49400000000000
C            7.13400000000000       -1.86200000000000       21.02800000000000
C            6.65600000000000       -0.61400000000000       21.38600000000000
H            5.81600000000000       -0.57000000000000       22.07900000000000
C            9.09600000000000        2.60400000000000       18.78000000000000
H            9.05500000000000        3.68600000000000       18.65600000000000
C           11.78300000000000       -0.93300000000000       16.79200000000000
H           12.58100000000000       -0.97300000000000       16.05100000000000
C            9.24300000000000       -4.16100000000000       19.34400000000000
H            9.24000000000000       -5.24900000000000       19.41500000000000
C            7.37900000000000        4.33500000000000       20.66500000000000
H            6.69700000000000        4.63800000000000       21.48800000000000
H            7.03600000000000        4.80800000000000       19.72000000000000
H            8.40900000000000        4.67400000000000       20.90700000000000
C            5.51100000000000        2.25600000000000       22.21900000000000
H            5.94600000000000        2.61100000000000       23.17800000000000
H            4.89000000000000        1.35600000000000       22.41600000000000
H            4.88200000000000        3.06400000000000       21.78800000000000
C           10.79700000000000        4.01000000000000       16.45200000000000
H            9.96000000000000        4.54500000000000       16.94900000000000
H           10.61900000000000        4.00200000000000       15.35500000000000
H           11.74700000000000        4.53900000000000       16.67800000000000
C           12.76300000000000        1.69500000000000       15.63400000000000
H           13.58800000000000        0.98000000000000       15.74900000000000
C           12.94700000000000        2.64200000000000       14.63000000000000
H           12.17800000000000        3.40400000000000       14.43300000000000
H           13.86300000000000        2.64000000000000       14.02100000000000
C           13.14100000000000       -3.77700000000000       16.20500000000000
H           13.51100000000000       -2.84900000000000       15.71900000000000
H           12.81500000000000       -4.49000000000000       15.41800000000000
H           13.96300000000000       -4.22300000000000       16.80400000000000
C           11.32800000000000       -5.71600000000000       17.90500000000000
H           10.50600000000000       -6.24300000000000       18.41000000000000
C           12.34700000000000       -6.54400000000000       17.38600000000000
H           13.21000000000000       -6.10600000000000       16.86400000000000
H           12.28900000000000       -7.63700000000000       17.49800000000000
C            7.01000000000000       -5.60700000000000       21.08000000000000
H            7.82100000000000       -6.00300000000000       21.72800000000000
H            7.04000000000000       -6.13500000000000       20.10300000000000
H            6.03200000000000       -5.78400000000000       21.57700000000000
C            5.44300000000000       -3.24100000000000       22.57100000000000
H            5.62900000000000       -4.16500000000000       23.15900000000000
H            4.44600000000000       -3.31700000000000       22.08800000000000
H            5.46700000000000       -2.36700000000000       23.25700000000000
O            7.82600000000000       -0.94200000000000       17.77300000000000
H            8.15100000000000       -0.47200000000000       17.00500000000000
H            7.04400000000000       -1.36000000000000       17.84200000000000
C           14.17300000000000       -0.99800000000000       22.03600000000000
H           14.36300000000000       -1.72200000000000       22.85700000000000
H           14.53900000000000        0.00400000000000       22.34800000000000
H           14.71500000000000       -1.33400000000000       21.12600000000000
N           11.79400000000000       -0.56000000000000       22.70500000000000
H           12.00400000000000       -0.39900000000000       23.66900000000000
C           12.71800000000000       -0.93600000000000       21.75800000000000
C           10.61000000000000       -0.44900000000000       22.14200000000000
H            9.69900000000000       -0.15800000000000       22.66400000000000
N           10.73700000000000       -0.75000000000000       20.86200000000000
C           12.04400000000000       -1.06500000000000       20.59700000000000
H           12.36900000000000       -1.35100000000000       19.60500000000000
78
 energy: -116.021045820337 gnorm: 0.096856578478 xtb: 6.7.1 (edcfbbe)
Fe           9.24662169642609       -0.78554977085345       19.15872717542395
N            8.15431007082310        0.69228459409559       19.97533487288641
N           10.21990096135020        0.54386307504200       18.02872264880192
N           10.30693465897713       -2.23436426655014       18.26404636676796
N            8.17928871647162       -2.10306181905819       20.16194940018689
C            7.15773689127530        0.59216810099554       20.90393112709970
C            6.64405421449255        1.90636278387175       21.25320008466296
C            7.36861554254250        2.80934151820038       20.53376646082841
C            8.27038575024400        2.04001173794712       19.71284565428677
C            9.99891366290720        1.90367585710410       17.96751244709335
C           10.84520151535354        2.53815416520921       16.97920842785523
C           11.66600307416077        1.55127807995779       16.49075458790375
C           11.24630482019582        0.31943704045603       17.12671737245309
C           11.35734709607701       -2.12635957468926       17.37295214936912
C           11.95733785750278       -3.42399752836295       17.11216148555345
C           11.23983675136446       -4.32648772658356       17.84136928338263
C           10.20568485072459       -3.57229602400473       18.53986810920770
C            8.26569166887680       -3.46555897540260       20.07152786852457
C            7.23308411915577       -4.10483845572828       20.88134543838982
C            6.54958650820458       -3.09542768754046       21.50298700414316
C            7.13079555956937       -1.86153647818402       21.02853003442912
C            6.65837258985501       -0.60960102759104       21.38331672540371
H            5.82508588369794       -0.56855962864345       22.07481793793754
C            9.10489291060675        2.60113067774121       18.77407846092100
H            9.05889322458311        3.67675999701624       18.65326218784451
C           11.77748959818502       -0.92844925452623       16.81058994825387
H           12.56860417022623       -0.96666697019272       16.06877330019599
C            9.23371440817586       -4.15098582046025       19.34812141054453
H            9.22910151852960       -5.23160388282773       19.42293320234692
C            7.37160372270563        4.31464815225736       20.65835485825278
H            6.70613850595665        4.62883459169958       21.46919516805331
H            7.04274699876380        4.79940710437923       19.73160642348281
H            8.38439754213426        4.66319041703477       20.89543295624627
C            5.52648713644979        2.24366833122829       22.21406627612168
H            5.93804520266297        2.60048404079982       23.16639175044034
H            4.89773775364470        1.37080659895667       22.41270599277509
H            4.89909689696916        3.03977245540454       21.79591796724239
C           10.78704004876288        3.98521066328664       16.48261163158549
H            9.96987369926038        4.53470884449371       16.95543854863135
H           10.60707829444085        3.99485410971591       15.40151443398344
H           11.72833652235929        4.51374341369678       16.67861190867898
C           12.77421168382859        1.69761560028368       15.60594577667061
H           13.58505604841003        0.98039317870644       15.73385958685702
C           12.95224370540293        2.62612550040860       14.64453644145179
H           12.20473514190255        3.37672725774084       14.42763406240249
H           13.85025276205094        2.63559989932770       14.03992399340053
C           13.12636914304295       -3.74704316441628       16.21197775768593
H           13.50990081731421       -2.85023832180104       15.71977993310574
H           12.81874430879789       -4.46458657601243       15.43907952107479
H           13.94266536231448       -4.19633024467033       16.79240248889867
C           11.34512242870054       -5.74707159039395       17.90018259373181
H           10.52962854727293       -6.26210142030671       18.40120455438225
C           12.32687600575065       -6.53310045030160       17.39630902077061
H           13.18596426632276       -6.12420643318300       16.88480537880426
H           12.28035790123057       -7.61056012491886       17.49974964989613
C            7.02085450921335       -5.58786403558121       21.07315947483692
H            7.81158542744734       -5.99836784307400       21.71351912892845
H            7.04029635450450       -6.12298454545159       20.11727579485783
H            6.05662100914448       -5.77571633701286       21.55866060585389
C            5.46103666636674       -3.23793751662544       22.54969437427266
H            5.62871133206054       -4.14478781846767       23.14184427196578
H            4.46689671203390       -3.31154511494653       22.09115387722962
H            5.46659555534210       -2.38421741582164       23.23598616167623
O            7.84677339835083       -0.93183490595228       17.75610719203724
H            8.13489546575974       -0.46619654518411       16.96974832869367
H            7.01401592285417       -1.36844533073403       17.82242989800626
C           14.17778057079744       -1.00368228952251       22.04576165064990
H           14.37675136716936       -1.71587649742045       22.85416103457904
H           14.54791110464029       -0.01597848717524       22.34616341457965
H           14.70913558636553       -1.32711296565448       21.14665070752157
N           11.80628094759015       -0.55585270593079       22.70851743058853
H           12.01258856258197       -0.39567131745873       23.67936291116950
C           12.72561407745520       -0.92636406727994       21.76190058839720
C           10.60873882063313       -0.45473211206734       22.11919704625427
H            9.70652283520182       -0.16899611970668       22.63496927306934
N           10.71762122550957       -0.74897224173212       20.84214822806320
C           12.02847303885731       -1.05144118365452       20.60058690528802
H           12.35579877311350       -1.34009717339990       19.61941185415651
78
 energy: -116.036398588050 gnorm: 0.030089546969 xtb: 6.7.1 (edcfbbe)
Fe           9.26629626650410       -0.78012528980552       19.18893481642139
N            8.15666034128261        0.70742219625886       19.98915188172888
N           10.24521620431632        0.56636314652995       18.03057682017579
N           10.32396582010343       -2.25111427186143       18.28258129165854
N            8.16491856440050       -2.11132501842372       20.17762406757694
C            7.15006181626358        0.59848144050404       20.89798920743863
C            6.64679557546506        1.90880273499529       21.26101168912432
C            7.38326373945982        2.80811448019109       20.55092700227213
C            8.29072373449927        2.03926375980284       19.73095826118510
C            9.99908986342978        1.91039093057433       17.95876663081849
C           10.83011135791085        2.54094228034867       16.96713776922627
C           11.66022810689667        1.55338578049594       16.48651013945679
C           11.25246149967073        0.32271894926739       17.14208764203885
C           11.36006497877137       -2.12654123496484       17.39388671954488
C           11.94841125031192       -3.41479107293977       17.11380248500569
C           11.22246206210120       -4.33469870313127       17.83740639149645
C           10.20124566386571       -3.57557733780983       18.54940354708650
C            8.26364128932041       -3.46558050265620       20.08306970900002
C            7.24905766920351       -4.10346238082465       20.89879265333481
C            6.56375440031770       -3.09986879318531       21.51458820120153
C            7.13211356583078       -1.86001764417310       21.03394465242504
C            6.66334132223671       -0.60500011412238       21.38372338179475
H            5.83380912278884       -0.56520155121424       22.07388629234189
C            9.11341446955700        2.59811785834292       18.77318408367386
H            9.06022543729139        3.66970436335565       18.65268201106851
C           11.77424973240826       -0.92429819559079       16.83792681531598
H           12.56054186354006       -0.96192179651573       16.09618172347324
C            9.22777556610102       -4.14391239939795       19.35489668062208
H            9.21696944967683       -5.22078652155815       19.42915387020789
C            7.36792631609788        4.29823400480938       20.65436252737101
H            6.70433522440735        4.61613067564824       21.45400657165955
H            7.04442654082793        4.77443626963199       19.73017244559249
H            8.37107702936011        4.65808756750353       20.88427103053739
C            5.53969305585672        2.23076064483642       22.21070634574624
H            5.93829503982477        2.58617610956263       23.16145179934532
H            4.91092536463965        1.36821654696155       22.40595138335046
H            4.91303287234500        3.02051042141907       21.79823401702864
C           10.77251320055980        3.95911871719551       16.50891229761744
H            9.97555630714601        4.51540616636372       16.99033902083330
H           10.58314116374646        3.98870561625188       15.43641216550112
H           11.71678516322270        4.47397481337657       16.69006744586822
C           12.78173276593525        1.68920497130625       15.58583215642923
H           13.57512169437265        0.96205617284051       15.72739031712117
C           12.95673641607653        2.60785244959245       14.64685787039073
H           12.22704629216451        3.35908110991493       14.41670494276607
H           13.85150535751985        2.63185626956659       14.05122200585899
C           13.10700515284969       -3.71460524061126       16.22014821224664
H           13.49073645519967       -2.82921073519791       15.72607457180550
H           12.81199357794963       -4.43492349642904       15.45434525350649
H           13.92309702137424       -4.15871304235445       16.79233888968093
C           11.34914255454616       -5.76821402140540       17.89430714329777
H           10.53672624610335       -6.27028568192450       18.40293773475032
C           12.31410179984601       -6.53063131040870       17.40284787160154
H           13.17657298879404       -6.14548232543265       16.89762931557170
H           12.27571791144600       -7.60098323784548       17.50399021906795
C            7.03575758802622       -5.57224154375908       21.06825972970499
H            7.81579525094371       -5.99719421888147       21.70126288526127
H            7.05072937503741       -6.09740365289187       20.11591412250672
H            6.07552755143436       -5.76220429891952       21.54263831680950
C            5.47701583004755       -3.23547863740811       22.53429099057504
H            5.63130070900739       -4.13643314793763       23.12528586658873
H            4.49084422251862       -3.30231515250407       22.07342370307707
H            5.47347886250066       -2.38813099358373       23.21530553627693
O            7.85418694890974       -0.93042008099669       17.71527838645452
H            8.08744885413627       -0.46316016306405       16.90880948541951
H            6.99708705107844       -1.35775266510578       17.77696143526197
C           14.17862237224954       -1.00873711413611       22.05135091198277
H           14.37801184398596       -1.71550359681244       22.85342675976047
H           14.55928525868601       -0.03253793742479       22.34957027579480
H           14.70684328006055       -1.32812104590846       21.16043183798658
N           11.80528471454208       -0.54759550077876       22.70208464293178
H           12.00345207871101       -0.38946516537586       23.67781449830624
C           12.72711991982250       -0.91249448567673       21.75791086171107
C           10.60233472119439       -0.45713667135807       22.08961164141683
H            9.70233273368870       -0.18108831291267       22.59946728535877
N           10.70618510271173       -0.74059999442075       20.81487272072053
C           12.02006817469754       -1.03341323272769       20.59556336809831
H           12.35747331027237       -1.32181691507881       19.62316474673399
78
 energy: -116.041551691819 gnorm: 0.023143349026 xtb: 6.7.1 (edcfbbe)
Fe           9.26791798974525       -0.77892358092082       19.19504158902685
N            8.16420542611012        0.70941500705435       19.99838997379402
N           10.25902532013495        0.57364164672265       18.04087649332595
N           10.33027186078938       -2.25921804808778       18.30314170374389
N            8.16490994429584       -2.11130829525651       20.18818023790008
C            7.15618950420683        0.59794716356235       20.90216166725862
C            6.65676485267197        1.90625469232622       21.26903160976498
C            7.39837566242872        2.80481653431149       20.56533911790020
C            8.30953988126524        2.03650258253965       19.74835188347698
C           10.00394167867029        1.90968674188537       17.96327390360664
C           10.82468935130481        2.53245255007146       16.96001415161453
C           11.65590203222848        1.54645679297801       16.48101121360354
C           11.25882967669598        0.32266364442730       17.15765925175646
C           11.36260312925130       -2.12772293498990       17.41999210784367
C           11.93878399496289       -3.41327517605030       17.12272726693118
C           11.21064605500173       -4.34045799931284       17.83836878765878
C           10.19943509799374       -3.58061091439316       18.55932441971363
C            8.27051542312662       -3.46258883589693       20.09705196257436
C            7.26570284511436       -4.10028097141815       20.91694798908147
C            6.57705693805625       -3.09896995102919       21.52879775970798
C            7.14005964119964       -1.85807685700301       21.04376865211281
C            6.67076288379137       -0.60301860224636       21.38975182271028
H            5.84224124822201       -0.56159687188355       22.08030828515870
C            9.12451120796378        2.59599857869179       18.78350878705906
H            9.06263021091252        3.66630557164494       18.65910256466142
C           11.78058439773346       -0.92506450263063       16.86816897384317
H           12.56553090429592       -0.96453567201919       16.12730985933611
C            9.22597779620819       -4.14395596034477       19.36543899116415
H            9.20470667694310       -5.22016693708291       19.43865926360927
C            7.36480373029781        4.29194686440605       20.64888636864711
H            6.69389540946708        4.61231212633799       21.44061489454369
H            7.03863687109764        4.74712614735747       19.71512734359963
H            8.36268386135579        4.66853163392483       20.87376905028451
C            5.54802550398472        2.21796411649086       22.21447639192963
H            5.94039163543597        2.56881498946455       23.16943142465111
H            4.92212772545700        1.35190297345946       22.40148547000657
H            4.91926095434200        3.00658517289751       21.80426571642632
C           10.76202661429351        3.95308922503422       16.53057788571665
H            9.98549324134987        4.50575048455777       17.05072896174105
H           10.53696683000098        4.00751114317259       15.46482523373132
H           11.71864879630806        4.45121457250463       16.69511880512671
C           12.78310686135397        1.66982180585985       15.57740037208348
H           13.56234266763015        0.92951811181203       15.72386108131101
C           12.97194828879306        2.59414332245546       14.64332571000715
H           12.24910900542157        3.34757282726358       14.39894598972162
H           13.86916341915307        2.61345537949997       14.05039978050283
C           13.09414867510482       -3.68617067315043       16.22441817671147
H           13.45919337724184       -2.79132877637073       15.73254588123702
H           12.80746007090930       -4.40782445093422       15.45849430127592
H           13.91900956201814       -4.11540216464471       16.79390739388887
C           11.34087870826937       -5.77758144109127       17.89360209900037
H           10.52883191791762       -6.27738689337102       18.40532618534781
C           12.31204734603622       -6.54118977746072       17.40375703999050
H           13.17787644431166       -6.16405714669551       16.89805149396577
H           12.27582706966745       -7.61155231948871       17.51129114420077
C            7.05212757016429       -5.56708313208424       21.06604447748395
H            7.83028586942222       -6.00616032676340       21.69144924254761
H            7.06777499864542       -6.07250102761472       20.10328542103230
H            6.08998660323965       -5.76053981613309       21.53321794999005
C            5.48036488464956       -3.23217712143442       22.52899728441447
H            5.62173870362621       -4.13510261202484       23.11906523936973
H            4.50311073381092       -3.29153577728483       22.04915873531018
H            5.47159749833315       -2.38450238661051       23.20830092307594
O            7.85636083758612       -0.93634850507134       17.65900843399084
H            8.03998931120283       -0.45023534621387       16.84751593578395
H            6.98160548969780       -1.33659179542658       17.72005805973752
C           14.17250587757437       -1.01086238819250       22.05520074885327
H           14.35976122792699       -1.72270892277785       22.85583135726229
H           14.56870699183301       -0.04265234489323       22.35978154251156
H           14.70414633649857       -1.33428151615398       21.16792614343659
N           11.79117071545518       -0.53666490466606       22.68608468619238
H           11.97813627140402       -0.38250832653779       23.66500721618798
C           12.72306927112938       -0.89484270835892       21.74750729789974
C           10.59134783930258       -0.45172239998167       22.05816973161464
H            9.68420054965133       -0.18822895716886       22.56070673541300
N           10.70613719568454       -0.72673153366377       20.78384516153920
C           12.02465657776760       -1.00825820618164       20.57859543660386
H           12.37700242685132       -1.28989659370101       19.60990775416118
78
 energy: -116.045446365724 gnorm: 0.024696974972 xtb: 6.7.1 (edcfbbe)
Fe           9.27497105666248       -0.77931869093689       19.20182461390745
N            8.17587046360775        0.70557297768824       20.00556738241371
N           10.27394970499875        0.57686040481107       18.05923725736893
N           10.33566340222739       -2.26633641715928       18.32872362798811
N            8.17311990806808       -2.10899086978832       20.19941852373932
C            7.16919644069050        0.59415173013858       20.91008308988004
C            6.67161558870056        1.90134237341958       21.27935563650224
C            7.41645106357150        2.80014489767848       20.58147546166240
C            8.32675297816426        2.03144372721377       19.76341755702177
C           10.00954588358910        1.90679347028511       17.97144332175609
C           10.82433110851023        2.52214157689084       16.95678014754936
C           11.65492773459551        1.53769522434838       16.48016298137180
C           11.26539392193604        0.32069761798307       17.17446665689946
C           11.36369262615723       -2.13057281731524       17.44772211404517
C           11.93104411027998       -3.41462093620041       17.13401086098322
C           11.20101987188833       -4.34729525801080       17.83827204312959
C           10.19858910368463       -3.58890999199119       18.56853416503784
C            8.28307831244277       -3.45914917094190       20.11401406825216
C            7.28502979158641       -4.09703684044198       20.93859301131945
C            6.59252079747036       -3.09734520952798       21.54725936873310
C            7.15251260613187       -1.85716147930363       21.05679184517765
C            6.68248640613527       -0.60278489479884       21.40095554624632
H            5.85564634126828       -0.55840938010509       22.09374317597262
C            9.13500469806157        2.59377032271002       18.79571804404641
H            9.06817991787867        3.66403358925730       18.67392312531723
C           11.78820059372988       -0.92848559569996       16.89955165202396
H           12.57741867839877       -0.97030287689370       16.16470756955614
C            9.22688768689606       -4.14849000446638       19.37800947516746
H            9.19376907624891       -5.22448265702644       19.45195505450276
C            7.36223775031419        4.28754489064057       20.64121799432016
H            6.68119657177624        4.61201936675786       21.42360944738754
H            7.02864756876019        4.71360079532309       19.69409170116587
H            8.35295452482026        4.68889395734119       20.85934035978688
C            5.55817888072565        2.20253416067828       22.22314754605189
H            5.94496219741332        2.54534747069654       23.18429398315458
H            4.93642747140746        1.32941374114913       22.39862410812167
H            4.92605868920744        2.99164765968011       21.81734544225737
C           10.76326286829535        3.94979753613572       16.54602989298941
H           10.01306431690148        4.49793194999369       17.11493320875776
H           10.49914445646813        4.02940972852748       15.48869509574011
H           11.73232236476974        4.43141981432808       16.68773919718953
C           12.77890709645891        1.64451446202664       15.57038093503684
H           13.54468836046498        0.89085007769291       15.71417234417939
C           12.97688195352412        2.57284170455293       14.63914257378772
H           12.26591246536798        3.34388121582723       14.40835273525057
H           13.87947705480087        2.58695236515314       14.04991356932228
C           13.08383499933117       -3.66191433682131       16.22704348854629
H           13.41800540121562       -2.75149938391982       15.73650068477947
H           12.80858968052625       -4.38564131508994       15.45967825885102
H           13.92492665125352       -4.06942808190046       16.79021261861292
C           11.33057647436719       -5.78446266449824       17.89188338300957
H           10.51981380292209       -6.28716650180675       18.40382482740261
C           12.30770116628362       -6.54787694853258       17.40587357107620
H           13.17275509792658       -6.17041884900063       16.89649538465061
H           12.27036926508107       -7.61932024810188       17.51917716901355
C            7.07166304484752       -5.56540060344686       21.06572988951491
H            7.85065156592988       -6.02028066427848       21.67971039334286
H            7.08809742159802       -6.04596627606684       20.08843039685950
H            6.10836658009355       -5.76731337904354       21.52772946670005
C            5.47925068896148       -3.22716295552016       22.52800536425605
H            5.60001238534502       -4.13506481536027       23.11611645214050
H            4.51271139732679       -3.27507388721460       22.02263210089728
H            5.46299017763240       -2.38075518261850       23.20988348370373
O            7.86429266514465       -0.95724858507638       17.58423755351181
H            7.97221127485614       -0.42117386001353       16.78272258005111
H            6.95935355138724       -1.29484055099132       17.65337618910148
C           14.15921766841777       -1.01019351251520       22.05757434026460