78
 energy: -116.057898688480 gnorm: 0.000051570637 xtb: 6.7.1 (edcfbbe)
Fe          35.49397964046941        4.37227404318038       10.24764095756731
N           37.35257445546795        4.03842874238224        9.54899591891282
N           35.14256051360368        5.59952769295057        8.68767586919178
N           33.67409376558759        4.75771396026463       10.96570424319578
N           35.87761764619862        3.19761296410504       11.81007431164572
C           38.30669016351195        3.24589339795915       10.10757506354021
C           39.49973222003285        3.22948407362637        9.29253270191311
C           39.24104379070997        4.02543299088469        8.21962845712842
C           37.89347971440535        4.51817867907205        8.39451914504146
C           35.97744468586154        5.85879844622830        7.64238749141268
C           35.35575296751701        6.75168908555607        6.69995649651368
C           34.11121242970209        7.03504057133526        7.19950162104396
C           33.99849767587315        6.28947592058958        8.43715825416009
C           32.73811536488348        5.58520684763252       10.42521019966683
C           31.54495564997617        5.60940167713156       11.23431448507854
C           31.77932204528790        4.76599894380224       12.28665553348549
C           33.11799679734523        4.24213332239738       12.08871812869140
C           35.02757871011646        2.89316439533867       12.82367448558849
C           35.65731292224461        1.99689479570822       13.76984571545857
C           36.91269907196384        1.76922356034586       13.30155441743300
C           37.03030915624325        2.52771409147339       12.07465668546510
C           38.16854838203005        2.54245024233083       11.29044938583499
H           39.01232260782741        1.95706410907500       11.62285791734741
C           37.26236818780283        5.36205767210289        7.50232554213373
H           37.81781611844243        5.66007848512018        6.62646877688643
C           32.88404206210586        6.30850136526883        9.25414707126517
H           32.05832057907494        6.93449855893898        8.95220477193546
C           33.73958180830800        3.37098117046470       12.96267811100146
H           33.18420030185597        3.05278197308630       13.83158415428210
C           40.11801570265484        4.36603283814221        7.06373930137806
H           39.66128740096598        4.04296956976789        6.12786429849622
H           41.08668793726985        3.88117757160259        7.15683055029122
H           40.27796401594245        5.44306454718723        7.00680648391328
C           40.73605720751053        2.46726934909745        9.62734328390959
H           40.52501338512224        1.39920389993310        9.68876730393438
H           41.13470682177697        2.78769798267131       10.59015063756108
H           41.50225907908087        2.62120163850096        8.87152027673664
C           35.95845205929150        7.19538549373611        5.41278283654549
H           36.52588033947781        6.38682022792305        4.95442209744406
H           36.63553580092894        8.03733329068730        5.56777132080349
H           35.17671731797122        7.50687761072559        4.72297179614408
C           33.06927506540271        7.86763251053773        6.64072442167924
H           32.05405409518642        7.54254008675556        6.83726450062386
C           33.26303800018337        8.97530890870736        5.93216885875509
H           34.24546844954965        9.37284696073877        5.74626564042149
H           32.43688455494347        9.54061633452070        5.53385400543056
C           30.30144648679688        6.36085055896623       10.90850284325380
H           30.10106257566624        6.33268019658166        9.83827107614184
H           30.38937894606545        7.40667026343776       11.20726392779990
H           29.45376009355802        5.92387853578740       11.43229558513939
C           30.90800485798849        4.40820062972663       13.38417394081848
H           31.00565963393628        3.39126320421247       13.74661071033957
C           30.02969713042004        5.21772605756476       13.96688063962762
H           29.92545936439480        6.24995904554921       13.68171814821390
H           29.40119426204003        4.87998477596774       14.77430637238831
C           34.99744281223342        1.47261613380041       14.99861227370071
H           34.09909869837051        0.91074507671945       14.74164112733943
H           34.70665813474380        2.29302837797930       15.65475724839636
H           35.66715876971394        0.81546897599841       15.54808815933135
C           37.99976413466028        0.92788263977367       13.87818632490759
H           38.29282489378402        0.14360889641483       13.17930499226826
H           37.67473655488608        0.45745106764411       14.80279940334440
H           38.87976980310724        1.53429998018038       14.09340350930406
O           36.37009312283952        6.20460988401674       11.31107370004674
H           36.07338453471112        6.90788612224318       10.72332781454070
H           37.30650227594680        6.06274047086471       11.13466110586585
C           32.50657564884462        0.97144521758511        6.99476498027519
H           32.02367501360779        0.11292589205283        7.46145531662197
H           32.94851254240736        0.64409739663002        6.05377025305897
H           31.75172991748795        1.72194430136003        6.78239442185075
N           34.62790612521899        0.82994221348142        8.31831988871762
H           34.83293404015942       -0.12625349756910        8.07908034503432
C           33.54074345056998        1.54665419958109        7.89150457889891
C           35.36494095965076        1.63781971988153        9.11362965251528
H           36.27655947479971        1.34244307262036        9.59074400486430
N           34.81077070249136        2.82145984949581        9.21611677796794
C           33.67526471961166        2.78006906432143        8.46149144270206
H           33.03582365155551        3.63422107756492        8.37890590781665
