78
 energy: -116.057494351490 gnorm: 0.000084420974 xtb: 6.7.1 (edcfbbe)
Fe          14.68792837565761       -3.36621638415173       10.84341961375788
N           13.64104597781548       -3.91231138481978        9.23746016936403
N           12.97206781004328       -3.09871837924586       11.86771758877015
N           15.73371873723135       -2.90930905680453       12.49863780875127
N           16.38616884400811       -3.64366111027035        9.84608765283468
C           14.13722174839477       -4.24875740229521        8.02028963815650
C           13.06909185565945       -4.60560022333608        7.11107179807386
C           11.91212214198142       -4.47913037558495        7.81275495512550
C           12.28948909477008       -4.03604894518475        9.13804859722924
C           11.70606390796335       -3.27843935400866       11.39826276946303
C           10.73680923588840       -2.90058982300605       12.39006017798876
C           11.44466246544035       -2.44401775114655       13.47079338910088
C           12.84314069425802       -2.60204661386114       13.12788460414417
C           15.22856101640402       -2.55011797412448       13.71343610087964
C           16.28864812560562       -2.32007764471325       14.65996677009587
C           17.46228017390001       -2.53021652425735       13.98345425933613
C           17.08504423510776       -2.89915816651139       12.63383195619165
C           17.64985089738068       -3.49286726219396       10.32148272123431
C           18.62303968202180       -3.73730497235570        9.27762311839825
C           17.91240138076392       -4.03984563880981        8.15975774616857
C           16.51610371700719       -3.98071928818606        8.53800771719474
C           15.47517075929216       -4.26343462975847        7.67565957531847
H           15.72625512030394       -4.53585493813740        6.66195743277099
C           11.37967731596813       -3.74721849248613       10.13564017367240
H           10.33172302098455       -3.87422690677641        9.90988933567957
C           13.88605896734115       -2.39029909278439       14.00883975917852
H           13.62938390001496       -2.07910214252405       15.00902210880511
C           17.98849559477492       -3.15673077272553       11.61830025411136
H           19.03911137202642       -3.07995367005273       11.85323654168706
C           10.50826032712630       -4.72463177959272        7.37585788927665
H           10.47940582879590       -5.07250881783690        6.34628825641326
H            9.91694451784922       -3.81079542590554        7.44524219406302
H           10.03772471450344       -5.47961800290418        8.00589559412455
C           13.27500439834287       -5.02919617027702        5.69736744718778
H           13.88733252677828       -5.92998508178347        5.65457022686212
H           13.78401634266551       -4.24747052969072        5.13304877451507
H           12.32432714288298       -5.23787878865407        5.21267459885193
C            9.25915939441034       -2.95790385739162       12.20791232735315
H            8.94526965684847       -3.96371977760743       11.92744230089654
H            8.94062531301085       -2.27472078459904       11.41946264367749
H            8.74930548790539       -2.67725864116767       13.12607792625475
C           10.90003348550717       -1.90722688085294       14.70078090969320
H            9.99698648564357       -2.39102828162217       15.05814160776890
C           11.38631128909362       -0.87161278461780       15.37545956986781
H           12.24770789914908       -0.32210317855628       15.03532110112992
H           10.92257398459687       -0.52207233466045       16.28307608367724
C           16.09587367418888       -1.98777436459427       16.09838028133440
H           15.22998955473001       -2.50978150821448       16.50296098504251
H           15.93586902992954       -0.91664448391637       16.23246900471102
H           16.97625076588881       -2.27674937109599       16.66916629473833
C           18.82369268671221       -2.45213145116605       14.46441795129771
H           19.52088799048479       -3.14482534619310       14.00710517351448
C           19.26829181657347       -1.61148818799292       15.39301400857930
H           18.63385001676792       -0.87040294471049       15.84676296115831
H           20.29701656412104       -1.61941558492123       15.71325383458724
C           20.09895479042772       -3.65629055727556        9.46812761203259
H           20.42847329548945       -4.37747835523609       10.21644620459764
H           20.38911024858624       -2.66131475546822        9.80691566811329
H           20.62093836662289       -3.86713842140852        8.53804132994565
C           18.39946234379769       -4.38268154710609        6.79383990878926
H           19.48481485527328       -4.33812836928606        6.74710853286154
H           17.99473054121909       -3.68864405972027        6.05697128448098
H           18.08554410076275       -5.38966583208868        6.51820211734474
O           14.66919427687855       -5.52292271091832       11.62832695459306
H           15.20363620901011       -5.42427991319222       12.42382380642343
H           13.74985407904673       -5.58188945071273       11.90973029715553
C           15.93697971139918        1.95733518455967        9.77061977692169
H           15.45042709048769        2.72474367481683       10.37248688217968
H           15.93449327860632        2.28673538891485        8.73158752484230
H           16.96592341752508        1.85609546072417       10.10105864025673
N           13.91974901543781        0.48505602929460        9.58391285009109
H           13.30591565831403        1.19897157170293        9.22737406646104
C           15.23924219018059        0.65441646326601        9.91259235899517
C           13.59887254986152       -0.80537603513980        9.82890056976245
H           12.62769129679810       -1.22438116004385        9.66404453017985
N           14.63432304467953       -1.46263174011410       10.29197785590669
C           15.66242189052442       -0.56814425367424       10.34934487388628
H           16.63020068654687       -0.86146733124445       10.69982207415635
