71
 energy: -108.766526089650 gnorm: 0.264530706288 xtb: 6.7.1 (edcfbbe)
Fe          27.88100000000000       11.88600000000000       18.89300000000000
N           26.76500000000000       10.44200000000000       19.76500000000000
N           27.56600000000000       13.14000000000000       20.48300000000000
N           28.77000000000000       13.37900000000000       17.84300000000000
N           27.94500000000000       10.71100000000000       17.18400000000000
C           26.48300000000000        9.15500000000000       19.31700000000000
C           25.67000000000000        8.47800000000000       20.30800000000000
C           25.49900000000000        9.33300000000000       21.32600000000000
C           26.16900000000000       10.57400000000000       21.01700000000000
C           26.89900000000000       12.83100000000000       21.63100000000000
C           27.06800000000000       13.94500000000000       22.56000000000000
C           27.82400000000000       14.87700000000000       21.94000000000000
C           28.13400000000000       14.36800000000000       20.62200000000000
C           29.22800000000000       14.55000000000000       18.45000000000000
C           30.17200000000000       15.20400000000000       17.59700000000000
C           30.26500000000000       14.46500000000000       16.46500000000000
C           29.39699999999999       13.30300000000000       16.60900000000000
C           28.69000000000000       11.03700000000000       16.03600000000000
C           28.84800000000000        9.84600000000000       15.22900000000000
C           28.13700000000000        8.73500000000000       15.98600000000000
C           27.61900000000000        9.34500000000000       17.19100000000000
C           26.90500000000000        8.64200000000000       18.11800000000000
H           26.65400000000000        7.60600000000000       17.89000000000000
C           26.20500000000000       11.67600000000000       21.84800000000000
H           25.62200000000000       11.61800000000000       22.76700000000000
C           28.87600000000000       15.02800000000000       19.68400000000000
H           29.22000000000000       16.02900000000000       19.94200000000000
C           29.19900000000000       12.28000000000000       15.70600000000000
H           29.46099999999999       12.46300000000000       14.66400000000000
C           24.70499999999999        9.06800000000000       22.62600000000000
H           24.43700000000000        7.99100000000000       22.68400000000000
H           23.77199999999999        9.67200000000000       22.62600000000000
H           25.32800000000000        9.33200000000000       23.50700000000000
C           25.13000000000000        7.03600000000000       20.23800000000000
H           25.65800000000000        6.40600000000000       20.98500000000000
H           25.30700000000000        6.61800000000000       19.22400000000000
H           24.04300000000000        7.03100000000000       20.46600000000000
C           26.48300000000000       13.97900000000000       23.98300000000000
H           26.25000000000000       12.94400000000000       24.31300000000000
H           25.54800000000000       14.57900000000000       23.99000000000000
H           27.22300000000000       14.42200000000000       24.68300000000000
C           28.34500000000000       16.27500000000000       22.37000000000000
H           28.99500000000000       16.84100000000000       21.68700000000000
C           28.04600000000000       16.84300000000000       23.54100000000000
H           27.40000000000000       16.32400000000000       24.26400000000000
H           28.44200000000000       17.83700000000000       23.79700000000000
C           30.88400000000000       16.53400000000000       17.96800000000000
H           31.83200000000000       16.31100000000000       18.50300000000000
H           30.22900000000000       17.13800000000000       18.63200000000000
H           31.11800000000000       17.10500000000000       17.04400000000000
C           31.15700000000000       14.73100000000000       15.23400000000000
H           30.89800000000000       14.28000000000000       14.26500000000000
C           32.25200000000000       15.50000000000000       15.29200000000000
H           32.55200000000000       15.97300000000000       16.23800000000000
H           32.86500000000000       15.66800000000000       14.39400000000000
C           29.56800000000000        9.68800000000000       13.84100000000000
H           30.57999999999999       10.14300000000000       13.89400000000000
H           28.98100000000000       10.20600000000000       13.05300000000000
H           29.67000000000000        8.61000000000000       13.59200000000000
C           28.04000000000000        7.24200000000000       15.57000000000000
H           28.84600000000000        7.00600000000000       14.84300000000000
H           27.05600000000000        7.04900000000000       15.09200000000000
H           28.16100000000000        6.59400000000000       16.46500000000000
O           25.93900000000000       12.90600000000000       17.89800000000000
O           24.92600000000000       12.23300000000000       17.82800000000000
C           29.62100000000000        9.65700000000000       20.50600000000000
H           28.84400000000000        9.66800000000000       21.30000000000000
H           30.57800000000000        9.33100000000000       20.96600000000000
H           29.31600000000000        8.91500000000000       19.73800000000000
S           29.81400000000000       11.28500000000000       19.75600000000000
H           29.93000000000000       11.93000000000000       20.90800000000000
71
 energy: -108.845108404494 gnorm: 0.131724052515 xtb: 6.7.1 (edcfbbe)
Fe          27.76284669410120       11.93928595986202       18.83225614697943
N           26.76264638768495       10.44119628630353       19.77972689334421
N           27.57965974379860       13.13664827188836       20.48577422027343
N           28.81453112352746       13.37528652391512       17.85516971957502
N           27.99115067548713       10.69545806921884       17.19824071947623
C           26.47853005652907        9.17026099015306       19.32270290831071
C           25.67098286610149        8.47092619774111       20.30898689718189
C           25.48590524605942        9.33176267547838       21.33907997360277
C           26.16347380357585       10.56781410014085       21.01281458241320
C           26.90727114800521       12.84725727427131       21.63306604664586
C           27.06491041016123       13.95599671059312       22.57059129181101
C           27.82630528653468       14.90301828386250       21.94442001881612
C           28.12950680577733       14.37033334788538       20.62766287401412
C           29.24355030328921       14.54482931567917       18.43778652532509
C           30.17587485302813       15.21956416138343       17.57603948227492
C           30.27124117187015       14.47094067659433       16.43471157058681
C           29.39484810958998       13.31149467216273       16.61145238529533
C           28.67506411373907       11.00363263899692       16.03547218849518
C           28.81876980707197        9.81069740844550       15.22974891091850
C           28.16726553975072        8.75783554134259       15.95247011548457
C           27.64925672101432        9.35663729475490       17.15906680548961
C           26.91393246888410        8.65954131000573       18.11148026555126
H           26.66137102818010        7.62621151615912       17.88868928543214
C           26.20615948886742       11.67556006014428       21.84796698197572
H           25.62942788618249       11.61165062772160       22.76392322040580
C           28.87773904856674       15.02631513688919       19.67815575684850
H           29.22390414536835       16.01803166225896       19.93675076407277
C           29.19397941117588       12.26593967893140       15.71599174435937
H           29.48710274753802       12.43844207626660       14.68352642327386
C           24.71191234398735        9.07088620796903       22.61546849056053
H           24.44301243419832        8.01126893568240       22.68152046589888
H           23.79012865378733        9.66487455246514       22.62578445093522
H           25.31600897806245        9.33122468478443       23.49245723689554
C           25.14171241991601        7.05220146056402       20.23299876368134
H           25.65186150883469        6.41885147428177       20.97101098233101
H           25.30234488803980        6.62456569414530       19.23908384121474
H           24.06786151683373        7.03487263772842       20.45632953378069
C           26.48723989656891       13.97372313892461       23.96846203652256
H           26.25127347310583       12.95893492644691       24.30597054345709
H           25.56558594415077       14.56956901567584       23.98885797296607
H           27.20837182484360       14.40639360355048       24.67056842233432
C           28.32790220612750       16.24986071084361       22.37950011868586
H           28.97171785982614       16.80114548276578       21.69234725181520
C           28.04059081195219       16.83361194871505       23.53850151752949
H           27.40235746947159       16.34914341407569       24.26287466651113
H           28.43310930899726       17.81579507146671       23.78988794754158
C           30.87362558667830       16.51676934198088       17.95766228901428
H           31.81146797958380       16.30941398832605       18.49202416490676
H           30.23940275532909       17.12439926977238       18.61276297630344
H           31.10374254739747       17.09878357000683       17.06000504710929
C           31.14851444342980       14.73067684089883       15.25218779132705
H           30.88217338459637       14.27469918757645       14.29903663675064
C           32.24053285277635       15.49316390453346       15.29505704020345
H           32.56418612186795       15.95843036455083       16.21653941962415
H           32.84782594783645       15.66390138688159       14.40992025646419
C           29.54675219981605        9.68908468416162       13.88259506192939
H           30.55077938730199       10.13655867440468       13.91181280596653
H           28.98555081797756       10.19316361859324       13.08344810572975
H           29.66052349775961        8.63446092626256       13.60564490783163
C           28.05034734419018        7.28337637359162       15.57306868533041
H           28.83347767771714        7.01552246369634       14.85520031325413
H           27.07876858607251        7.06541878036504       15.10644958395464
H           28.16024915373073        6.62423693309445       16.44679830877235
O           26.00303748825037       12.86548655067438       17.93841097567227
O           24.92988093806639       12.22592591241069       17.82885156948263
C           29.62232730554656        9.64417419900734       20.51978260892852
H           28.84854597198000        9.66863926670581       21.29392902263772
H           30.57517319408169        9.33326467942728       20.96154826451664
H           29.32367595356947        8.92891468374666       19.74650248471353
S           29.79320413568871       11.27152975586384       19.74184497539152
H           29.92603609859162       11.92751321433183       20.89856774329034
71
 energy: -108.890620629634 gnorm: 0.069651391987 xtb: 6.7.1 (edcfbbe)
Fe          27.62049132585522       12.00064930856658       18.75119752104161
N           26.73273943122336       10.45280454881468       19.78162773011925
N           27.57713230132117       13.13925481023400       20.48013337142334
N           28.82810456789300       13.38748976846172       17.85206197275738
N           28.01240490441204       10.68729556729078       17.19961036168958
C           26.46983341987465        9.19316716018822       19.32394144851860
C           25.67285089209497        8.46915559648943       20.30558957050079
C           25.47629895019722        9.33169289060689       21.34838091718164
C           26.15147900890904       10.56813892323683       21.00354421790439
C           26.90972365513750       12.86162491923760       21.63148845120647
C           27.06190727948674       13.95829431184476       22.57592709961086
C           27.82751201985417       14.92276808155914       21.94424926730349
C           28.12125253906726       14.37281024963794       20.62803806076956
C           29.25083179283851       14.53818817796293       18.42491600548310
C           30.17844751170547       15.22972603665669       17.56083177949073
C           30.27527306884512       14.47287382342112       16.41039426648084
C           29.38811650944529       13.31750612624501       16.61630732227142
C           28.66736984366415       10.98004466663040       16.04343264389994
C           28.79655262426446        9.77627229713506       15.23696212539152
C           28.19002457541587        8.78410876145006       15.92056892502070
C           27.67427175612650        9.37045125674406       17.13952858177160
C           26.92681951887223        8.68196014817805       18.11109996073321
H           26.67060511864118        7.65230934494723       17.89008461428511
C           26.20763741316076       11.67515441727645       21.84740418758436
H           25.64011848210647       11.60401285262481       22.76300761285534
C           28.88117354157188       15.02084916994687       19.67249812073029
H           29.23107808426327       16.00559617454389       19.93065507320268
C           29.19938536865450       12.24937674982929       15.73333974351965
H           29.52154346695089       12.40915426851485       14.70980251353138
C           24.71999712570580        9.07373053047263       22.60332181706005
H           24.44901462160463        8.02581989061139       22.67647126569967
H           23.80495322764172        9.66204550095211       22.62563423135527
H           25.30971897029374        9.33279139594014       23.47961748414412
C           25.15534789423370        7.07014833239341       20.22671504796550
H           25.65227384781058        6.43274654089695       20.95948423070840
H           25.30368475286756        6.63512024080328       19.24618791792586
H           24.08922798499842        7.04431765162244       20.44763296141280
C           26.49299812804020       13.96873475644268       23.95226024692078
H           26.25178556249357       12.96737195461954       24.29282372091759
H           25.58045286742558       14.56383017998785       23.98453998945233
H           27.20058046550911       14.39563487488572       24.65782724478961
C           28.30477302193721       16.21670189768975       22.38268620774602
H           28.94863368104175       16.75616697330853       21.69517175300957
C           28.03032592923401       16.82137212397416       23.53530426816705
H           27.39863419971919       16.37062913202329       24.26954604378049
H           28.42698086331386       17.79281705582537       23.78035655010583
C           30.86146660638796       16.49969190456017       17.94287757300645
H           31.79210352731413       16.30172593853785       18.47844011256298
H           30.24055598210830       17.10784845436917       18.59527109799463
H           31.09337701100482       17.09254782983044       17.06480638204501
C           31.13068288238881       14.72746349841695       15.27290055251120
H           30.86048551022174       14.26516982219669       14.33124244486455
C           32.22718801219522       15.48329472277538       15.29881201967324
H           32.57647448438644       15.94662156287602       16.19900942766208
H           32.82810912717174       15.65577653255851       14.42168604565798
C           29.52177693668896        9.68807454219428       13.92257106787409
H           30.51777527194301       10.13552272315575       13.94736384171225
H           28.97825905153275       10.18800981184368       13.11796176474112
H           29.64748492943877        8.64939677185887       13.62287694652967
C           28.06162825257651        7.32549179170171       15.57292389171385
H           28.82826655029472        7.03072409317249       14.86062137725414
H           27.09497100874933        7.09429504094019       15.11871113716057
H           28.16277797604534        6.66852535015537       16.43949015170694
O           26.16680401606520       12.74771409656275       18.03835894760508
O           24.98837760108825       12.23135556431435       17.83958276909691
C           29.61966348490938        9.62916327883462       20.52908884337007
H           28.85002259225826        9.66984840346748       21.28836768646585
H           30.57124119975625        9.33898901791861       20.95734247813991
H           29.32909862318256        8.93345135587334       19.75174246334721
S           29.79251273409065       11.25857563544635       19.72801630118284
H           29.91853451247726       11.93501281571431       20.88273022868144
71
 energy: -108.898638221876 gnorm: 0.076973665304 xtb: 6.7.1 (edcfbbe)
Fe          27.53162116498298       12.02292721397403       18.71140585026973
N           26.69193440537924       10.47186182928951       19.77156587399546
N           27.55762565574396       13.14353744382813       20.46812063613204
N           28.81477207005173       13.39199514559119       17.84413622159106
N           28.02518717376314       10.68817125555652       17.20577536513447
C           26.45173064654722        9.21352786406904       19.31794934279026
C           25.67112678581598        8.47831145532223       20.30088685024503
C           25.46960381800486        9.33634759701702       21.34722307148054
C           26.12768668678888       10.57866082481067       20.99606352267877
C           26.89707407945668       12.86506561829187       21.62361926837944
C           27.05346790628090       13.94951449336812       22.56919173130540
C           27.81645366810406       14.91764355389655       21.93721350655769
C           28.10813470864095       14.37294488924499       20.61949574053378
C           29.24144394065417       14.53670843667424       18.41749867751551
C           30.16868138275735       15.22884224234891       17.55442179005633
C           30.26743521469221       14.46877841219366       16.40696247931830
C           29.37803152173978       13.31855657300838       16.61611792777453
C           28.66848376173777       10.98526355231757       16.04993512429374
C           28.78944789153464        9.78483630120782       15.23597866589720
C           28.19476775837041        8.78762979359011       15.92849565653816
C           27.67895344485439        9.37864855217913       17.14680590270353
C           26.92610387466434        8.69963824701803       18.11425834974376
H           26.67811747097693        7.67069287890030       17.89487423774020
C           26.19763555542599       11.67768240414394       21.84548111581392
H           25.65219383670893       11.59563525570281       22.77260939559872
C           28.87752598382414       15.01659221183094       19.66724546390716
H           29.24327815933761       15.99405586576945       19.92906633044338
C           29.21057350593410       12.24270508774107       15.74202065281950
H           29.58359481913686       12.37627216780860       14.73086441447542
C           24.72260516976782        9.07677712532728       22.60035587067202
H           24.45256055698776        8.02984750226577       22.67323378667063
H           23.80900756368123        9.66587330173995       22.62554603620874
H           25.31150295211973        9.33833584451109       23.47538312128896
C           25.16737721874022        7.08132208909170       20.21773824229843
H           25.66385504895281        6.44522861759966       20.95020139618410
H           25.31342533523050        6.64666489536098       19.23784936711515
H           24.10255133157674        7.05512308419023       20.43768519720355
C           26.49281222872280       13.95972885698486       23.94240908107119
H           26.24400707220848       12.96024602345205       24.27896394834336
H           25.58697016087471       14.56328109190357       23.97940875176710
H           27.20305346564266       14.37892056430319       24.64831235449546
C           28.28745481861591       16.19474971178279       22.38769579387812
H           28.93328072467387       16.72065476012260       21.69590620310996
C           28.01876506418639       16.81329688822966       23.53606518684006
H           27.37554556908906       16.39269100750444       24.28005582703063
H           28.42688706252954       17.78037077704831       23.76741935203837
C           30.84965957690793       16.49254771262368       17.92901269693684
H           31.77894201865140       16.29121424076603       18.46326189498938
H           30.22928914357392       17.09751498414162       18.58235202072413
H           31.07950852755398       17.08948689620325       17.05412182666653
C           31.11724945660742       14.71723002891399       15.27837896542985
H           30.83541765897882       14.24767927785379       14.34574934732466
C           32.21701105992825       15.46966651267282       15.29193036900895
H           32.59535306694736       15.92300713941041       16.18646945362607
H           32.80626758627841       15.64096582900806       14.41021337867340
C           29.50896248179680        9.69477849593797       13.93792885203557
H           30.49768025388938       10.14722202517401       13.98802462324763
H           28.96009340258389       10.19705430844578       13.14349430084591
H           29.63423232245893        8.65756034453352       13.64055425959581
C           28.06778431750622        7.34457779413121       15.57505224873122
H           28.83036272894567        7.04942399971057       14.86090554056760
H           27.09791771748380        7.12759798415803       15.12851033657672
H           28.17040746849923        6.70471955681015       16.44870946726727
O           26.28312560088548       12.78083580900511       18.06423220216447
O           25.19705805784625       12.12876894087120       17.93645499933262
C           29.62089962565324        9.62144193838839       20.53336350392879
H           28.84544009643341        9.67561713924060       21.28493780132653
H           30.57175335666798        9.33762336407435       20.96384003807737
H           29.33420859114750        8.92827181978692       19.75467647941638
S           29.81619753109128       11.24462432124441       19.71375030744498
H           29.91083011617284       11.94141022878096       20.85956240411222
71
 energy: -108.905429886784 gnorm: 0.047742432573 xtb: 6.7.1 (edcfbbe)
Fe          27.61387928835559       11.99818440406638       18.74570694620503
N           26.67639105009100       10.49283693489382       19.76223359449407
N           27.54957147525876       13.14213829568108       20.46084601643490
N           28.80733762780713       13.38924118065641       17.84284664049191
N           28.02837324755518       10.70116003270769       17.21884103903022
C           26.44139811098349        9.23227541487366       19.31104545525968
C           25.67014344894589        8.49336546630349       20.29436830311798
C           25.46715374932260        9.34474587267618       21.33937837031621
C           26.11227658641928       10.59178392014098       20.99038563345043
C           26.88540692424582       12.86223054402534       21.61529806477610
C           27.04403494174604       13.94057046495841       22.55886538090279
C           27.80257919100026       14.90508139154096       21.92963941501358
C           28.10018719034335       14.37162849287627       20.61139140856871
C           29.23298996774347       14.53851868039209       18.41648406083931
C           30.15718892669332       15.22598139802690       17.55187364573002
C           30.25771117895205       14.46491199871044       16.41209142802848
C           29.37627202972398       13.31533729257640       16.61659943803587
C           28.67458849763013       10.99819845872425       16.06081598008259
C           28.78950928812406        9.80405020380365       15.24392081223633
C           28.18751940033381        8.79361750533265       15.94672518327058
C           27.67632500669011        9.38988134374092       17.16259916840447
C           26.92463408583547        8.71495340065969       18.11815061807793
H           26.68351825272072        7.68575148922659       17.89846174235738
C           26.18905833092753       11.68092391433031       21.84328564138227
H           25.66052461886196       11.59071340075722       22.78089281696788
C           28.87497562083444       15.01426417259094       19.66552027929864
H           29.25295473950538       15.98760274374585       19.93062786824215
C           29.22788372553323       12.23804059768457       15.74934956718657
H           29.63915517918884       12.34826481546773       14.74784251218972
C           24.72328559651601        9.08052941571504       22.59930652026498
H           24.45528322648378        8.03044010542156       22.66980311068081
H           23.80849223511603        9.67170093376875       22.62561198426809
H           25.31721892313508        9.34380374991253       23.47301476713796
C           25.17665386587042        7.08984787118094       20.20845478604095
H           25.67831391992663        6.45662600618958       20.94198825457165
H           25.32635171183109        6.65895173174045       19.22457035201913
H           24.11029739012178        7.06352339701185       20.42802724563186
C           26.48937737621033       13.95180669457353       23.93745069040878
H           26.23416153502598       12.94923170769122       24.26754773594162
H           25.58781135268087       14.56473073423553       23.97624568360992
H           27.20922246926002       14.36357060794339       24.64122072227493
C           28.27463534747404       16.18503668802247       22.39047634326371
H           28.92748988571197       16.69793123919645       21.69663826829836
C           28.00513459812227       16.80961083234428       23.53607815478199
H           27.35079219526256       16.40649505189152       24.28713603903590
H           28.42901503815488       17.77366482214818       23.75776902458905
C           30.84034183221775       16.49392711287637       17.91760661510642
H           31.77092528000162       16.28494197580794       18.44905276843301
H           30.21572663308722       17.09500478054085       18.57312370234726
H           31.06684781710108       17.08825539514269       17.03725384876930
C           31.10722635403993       14.70765160539392       15.27441090530604
H           30.81163825304886       14.23313240413093       14.34787952717826
C           32.21140701081777       15.45431341056157       15.28171644857781
H           32.60823094258527       15.90068951324664       16.17674457638412
H           32.78919095845635       15.62388862235315       14.39082645214157
C           29.50098536919000        9.70283096121954       13.94584108324791
H           30.48633980783349       10.15933733976862       14.01799178475547
H           28.94312800156631       10.20986565663084       13.16117546925849
H           29.62243374721088        8.66219671338057       13.65560159774704
C           28.06930214814885        7.35752435420163       15.57840005823619
H           28.83357503742711        7.07011199656571       14.86036361453401
H           27.09517641175151        7.15448144571380       15.13482027063907
H           28.17722904738816        6.73016025319203       16.45969584041121
O           26.24418412971679       12.80709099870262       18.03077879427835
O           25.20959567898594       12.08432185090179       17.94435156233152
C           29.63576758753964        9.60724319986959       20.54299930386846
H           28.84307554847418        9.68340915563529       21.28196579353004
H           30.57558501874766        9.30901486211033       20.99076244000169
H           29.34540687075360        8.91628197120380       19.75940485831451
S           29.90800951041025       11.21670738199962       19.72089777295684
H           29.92159265522285       11.94086161869164       20.85390819843346
71
 energy: -108.909151724798 gnorm: 0.036304643105 xtb: 6.7.1 (edcfbbe)
Fe          27.66327499009634       12.00828688271775       18.76044614759669
N           26.67530836135842       10.51333194951963       19.75849005461489
N           27.54717633163651       13.14144681956773       20.45798739240150
N           28.80253465980352       13.39399358345822       17.84116820749112
N           28.02356411081344       10.72224174762841       17.23141893728486
C           26.43391772058664        9.25343813343306       19.30697365606947
C           25.66690084318170        8.50975397302815       20.28703321991104
C           25.46192808055958        9.35520104680266       21.33202515954574
C           26.10099705393719       10.60486027695831       20.98537193448487
C           26.87647193490370       12.86091998778327       21.60966970543563
C           27.03304376540035       13.93495844177288       22.55189349595426
C           27.79034799520158       14.89834572570826       21.92621658444941
C           28.09439048810977       14.37252018658772       20.60824230221732
C           29.22448595382752       14.54645251068509       18.41585284195725
C           30.14886637842296       15.22863972676781       17.54998561916558
C           30.25413528667483       14.46418622374877       16.41618633994243
C           29.37980430038305       13.31588331911703       16.61894384466034
C           28.67985938250551       11.01213488450365       16.07445269929045
C           28.79058371223773        9.82111472918749       15.25887712309926
C           28.17760946455517        8.80847742093063       15.96188865192707
C           27.66954359217871        9.40831412253258       17.17510770227058
C           26.91971301272227        8.73281739349028       18.12132379151590
H           26.68605519706762        7.70132382857981       17.90329432213105
C           26.18009648021079       11.68533666875302       21.84204178509339