81
 energy: -118.391155767894 gnorm: 0.000033647709 xtb: 6.7.1 (edcfbbe)
Fe          34.20773169391492       37.39830261737819       57.94005188406542
N           34.72815344813435       36.59258230317912       56.17929092769303
N           35.12157519828249       35.88154827349666       58.89365944066769
N           33.64603479625062       38.17012434815889       59.70093189768474
N           33.34167292905342       38.92271462360690       56.99082777336209
C           34.46206316834017       37.09378891358266       54.94672672112160
C           34.95511417915935       36.20690574317733       53.91607026505040
C           35.51988268727008       35.15017892339777       54.55904944925960
C           35.37024642205950       35.41070388117410       55.97342480826389
C           35.74131946986181       34.81059740947624       58.32498473277335
C           36.29233357063855       33.94601054554312       59.33304928577623
C           36.01087148441755       34.52949361165513       60.53989540731078
C           35.24575777360931       35.72216219182916       60.23753617707548
C           33.87164210831065       37.63626491070960       60.93227855621544
C           33.24552596709479       38.43187459277956       61.95712308813666
C           32.63998449198276       39.47886507471878       61.31426877320544
C           32.90333473397536       39.28574001942041       59.90166930997894
C           32.71065352699561       39.98242853291383       57.55806362541939
C           32.26262815871814       40.91369541345474       56.54424582111346
C           32.63664942467154       40.38454834861909       55.35016342808503
C           33.30697591737068       39.13725925150788       55.65146716767867
C           33.81783081826368       38.28932255417259       54.68888683065835
H           33.70002715347746       38.57833311021501       53.65580534162989
C           35.84538928176788       34.57246284563914       56.96325654572522
H           36.34733352642289       33.66782763558181       56.65483886350921
C           34.63288638286539       36.51093901176366       61.19196938658941
H           34.74332373442877       36.20926949459969       62.22158065983556
C           32.48865767019987       40.15679699050177       58.91033818717279
H           31.95020010635881       41.04115552629300       59.21477822090486
C           36.18337338878138       33.94184857374128       53.99198193711069
H           36.16098339693578       33.96299250250421       52.90524821872188
H           35.68160091892982       33.03357101961000       54.32724908609608
H           37.22458939212680       33.88955144359016       54.31192113311834
C           34.83063663823192       36.46587059368756       52.45395428209787
H           35.33537295610437       37.39409968564375       52.18500450920079
H           33.78223728272511       36.55734664483300       52.16914702517426
H           35.27320466101327       35.65676151731643       51.87790814902697
C           37.06577364047170       32.70145826186791       59.06317454130303
H           37.98938085975934       32.92943030369070       58.52927029366069
H           36.48520413897734       32.01155122159057       58.44973632609531
H           37.32642431231223       32.20423151011926       59.99403536801132
C           36.40686894336287       34.05257068841681       61.84858870863931
H           36.39692779273154       32.97461735424889       61.97135923422616
C           36.81016045051851       34.81201479299727       62.86091597394400
H           36.89076586888190       35.88263728517745       62.77727800271125
H           37.09723359165757       34.38371511073407       63.80694750272573
C           33.23288628513119       38.10207209538798       63.40874469033433
H           34.14738381712001       38.44671522728584       63.89459959445900
H           33.15694496999689       37.02619777335185       63.55897272542290
H           32.38561683721129       38.58337437783348       63.89319300808862
C           31.85824283900000       40.56389944117106       61.86422260059662
H           31.05563494794731       40.92835266536655       61.23319673950080
C           32.05349648343758       41.13416423834117       63.04876089537913
H           32.86350926594709       40.84793622035631       63.69634746729586
H           31.42082344366631       41.93226658983306       63.40046678762764
C           31.54155918544834       42.18546579832419       56.83205240190115
H           32.13898186353098       42.82368334214573       57.48309123044831
H           30.59324099838782       41.98543247950884       57.33208854495743
H           31.33516823754973       42.72954101929411       55.91366005328221
C           32.43431372159372       40.91866131694233       53.97391655192979
H           33.39287899813741       41.06446247175154       53.47559844856347
H           31.91436545328806       41.87307991035105       54.00201894475380
H           31.84417516321002       40.22383721009081       53.37563752858770
C           37.56232597463639       37.73279925277576       57.28096865304415
H           38.52980541797051       38.12710811680680       57.57680227050497
H           37.41726896437913       37.85655336498427       56.21287363285816
H           37.46417064917556       36.68576494182635       57.54530706539836
S           36.24456982059431       38.69761214941800       58.09962355709720
H           36.56011103158095       38.31373937675115       59.33946316937180
C           28.88041768827243       35.79799312086354       58.15810923490633
H           28.58803384056047       35.10795458672008       58.94954485829519
H           28.40119121298743       35.47832198721342       57.23278042538666
H           28.52093311092295       36.79029338240419       58.41161554003892
N           31.08834220253505       34.71563031344527       57.68289261967077
H           30.71712724716138       33.79342536503039       57.52368263850292
C           30.35684721906319       35.82897344006903       58.00431681147149
C           32.38789728654502       35.08297371347017       57.62204027596317
H           33.19028243846314       34.41409070897085       57.38879487871234
N           32.52333674397492       36.35978935853261       57.88464340511644
C           31.26882779728178       36.83788047615820       58.12439178269728
H           31.10775078586735       37.86778895890319       58.36562810010431
