=== VTIGHT OPTIMIZATION (q=1, m=6) ===
Command: xtb 1c75_system_protonated.xyz --opt vtight --gfn 2 --input 1c75_xtb_opt_q1_m6_20260112_134538.inp
================================================================================

      -----------------------------------------------------------      
     |                   =====================                   |     
     |                           x T B                           |     
     |                   =====================                   |     
     |                         S. Grimme                         |     
     |          Mulliken Center for Theoretical Chemistry        |     
     |                    University of Bonn                     |     
      -----------------------------------------------------------      

   * xtb version 6.7.1 (edcfbbe) compiled by 'conda@c0858423619e' on 2025-09-04

   xtb is free software: you can redistribute it and/or modify it under
   the terms of the GNU Lesser General Public License as published by
   the Free Software Foundation, either version 3 of the License, or
   (at your option) any later version.
   
   xtb is distributed in the hope that it will be useful,
   but WITHOUT ANY WARRANTY; without even the implied warranty of
   MERCHANTABILITY or FITNESS FOR A PARTICULAR PURPOSE.  See the
   GNU Lesser General Public License for more details.
   
   Cite this work as:
   * C. Bannwarth, E. Caldeweyher, S. Ehlert, A. Hansen, P. Pracht,
     J. Seibert, S. Spicher, S. Grimme, WIREs Comput. Mol. Sci., 2020, 11,
     e01493. DOI: 10.1002/wcms.1493
   
   for GFN2-xTB:
   * C. Bannwarth, S. Ehlert and S. Grimme., J. Chem. Theory Comput., 2019,
     15, 1652-1671. DOI: 10.1021/acs.jctc.8b01176
   for GFN1-xTB:
   * S. Grimme, C. Bannwarth, P. Shushkov, J. Chem. Theory Comput., 2017,
     13, 1989-2009. DOI: 10.1021/acs.jctc.7b00118
   for GFN0-xTB:
   * P. Pracht, E. Caldeweyher, S. Ehlert, S. Grimme, ChemRxiv, 2019, preprint.
     DOI: 10.26434/chemrxiv.8326202.v1
   for GFN-FF:
   * S. Spicher and S. Grimme, Angew. Chem. Int. Ed., 2020, 59, 15665-15673.
     DOI: 10.1002/anie.202004239
   
   for ALPB and GBSA implicit solvation:
   * S. Ehlert, M. Stahn, S. Spicher, S. Grimme, J. Chem. Theory Comput.,
     2021, 17, 4250-4261. DOI: 10.1021/acs.jctc.1c00471
   
   for ddCOSMO and CPCM-X implicit solvation:
   * M. Stahn, S. Ehlert, S. Grimme, J. Phys. Chem. A,
     2023, XX, XXXX-XXXX. DOI: 10.1021/acs.jpca.3c04382
   
   for DFT-D4:
   * E. Caldeweyher, C. Bannwarth and S. Grimme, J. Chem. Phys., 2017,
     147, 034112. DOI: 10.1063/1.4993215
   * E. Caldeweyher, S. Ehlert, A. Hansen, H. Neugebauer, S. Spicher,
     C. Bannwarth and S. Grimme, J. Chem. Phys., 2019, 150, 154122.
     DOI: 10.1063/1.5090222
   * E. Caldeweyher, J.-M. Mewes, S. Ehlert and S. Grimme, Phys. Chem. Chem. Phys.
     2020, 22, 8499-8512. DOI: 10.1039/D0CP00502A
   
   for sTDA-xTB:
   * S. Grimme and C. Bannwarth, J. Chem. Phys., 2016, 145, 054103.
     DOI: 10.1063/1.4959605
   
   in the mass-spec context:
   * V. Asgeirsson, C. Bauer and S. Grimme, Chem. Sci., 2017, 8, 4879.
     DOI: 10.1039/c7sc00601b
   * J. Koopman and S. Grimme, ACS Omega 2019, 4, 12, 15120-15133.
     DOI: 10.1021/acsomega.9b02011
   
   for metadynamics refer to:
   * S. Grimme, J. Chem. Theory Comput., 2019, 155, 2847-2862
     DOI: 10.1021/acs.jctc.9b00143
   
   for SPH calculations refer to:
   * S. Spicher and S. Grimme, J. Chem. Theory Comput., 2021, 17, 1701-1714
     DOI: 10.1021/acs.jctc.0c01306
   
   for ONIOM refer to:
   * C. Plett, A. Katbashev, S. Ehlert, S. Grimme, M. Bursch,
     Phys. Chem. Chem. Phys., 2023, 25, 17860-17868. DOI: 10.1039/D3CP02178E
   
   for DIPRO refer to:
   * J. Kohn, N. Gildemeister, S. Grimme, D. Fazzi, A. Hansen,
     J. Chem. Phys., 2023, just accepted.
   
   for PTB refer to:
   * S. Grimme, M. Mueller, A. Hansen, J. Chem. Phys., 2023, 158, 124111.
     DOI: 10.1063/5.0137838
   
   with help from (in alphabetical order)
   P. Atkinson, C. Bannwarth, F. Bohle, G. Brandenburg, E. Caldeweyher
   M. Checinski, S. Dohm, S. Ehlert, S. Ehrlich, I. Gerasimov, C. Hölzer
   A. Katbashev, J. Kohn, J. Koopman, C. Lavigne, S. Lehtola, F. März, M. Müller,
   F. Musil, H. Neugebauer, J. Pisarek, C. Plett, P. Pracht, F. Pultar,
   J. Seibert, P. Shushkov, S. Spicher, M. Stahn, M. Steiner, T. Strunk,
   J. Stückrath, T. Rose, and J. Unsleber
   
 * started run on 2026/01/12 at 13:59:30.888     
   ID    Z sym.   atoms
    1   26 Fe     1
    2    7 N      2-5, 68, 73
    3    6 C      6-22, 24, 26, 28, 30, 34, 38, 42, 44, 47, 51, 53, 56, 60,
                  64, 70, 71, 74, 76, 80, 84
    4    1 H      23, 25, 27, 29, 31-33, 35-37, 39-41, 43, 45, 46, 48-50, 52,
                  54, 55, 57-59, 61-63, 65-67, 69, 72, 75, 77-79, 81, 82,
                  85-87
    5   16 S      83

           -------------------------------------------------
          |                Calculation Setup                |
           -------------------------------------------------

          program call               : xtb 1c75_system_protonated.xyz --opt vtight --gfn 2 --input 1c75_xtb_opt_q1_m6_20260112_134538.inp
          coordinate file            : 1c75_system_protonated.xyz
          omp threads                :                    32


           -------------------------------------------------
          |                 G F N 2 - x T B                 |
           -------------------------------------------------

        Reference                      10.1021/acs.jctc.8b01176
      * Hamiltonian:
        H0-scaling (s, p, d)           1.850000    2.230000    2.230000
        zeta-weighting                 0.500000
      * Dispersion:
        s8                             2.700000
        a1                             0.520000
        a2                             5.000000
        s9                             5.000000
      * Repulsion:
        kExp                           1.500000    1.000000
        rExp                           1.000000
      * Coulomb:
        alpha                          2.000000
        third order                    shell-resolved
        anisotropic                    true
        a3                             3.000000
        a5                             4.000000
        cn-shift                       1.200000
        cn-exp                         4.000000
        max-rad                        5.000000


          ...................................................
          :                      SETUP                      :
          :.................................................:
          :  # basis functions                 234          :
          :  # atomic orbitals                 232          :
          :  # shells                          134          :
          :  # electrons                       233          :
          :  max. iterations                   250          :
          :  Hamiltonian                  GFN2-xTB          :
          :  restarted?                      false          :
          :  GBSA solvation                  false          :
          :  PC potential                    false          :
          :  electronic temp.          300.0000000     K    :
          :  accuracy                    1.0000000          :
          :  -> integral cutoff          0.2500000E+02      :
          :  -> integral neglect         0.1000000E-07      :
          :  -> SCF convergence          0.1000000E-05 Eh   :
          :  -> wf. convergence          0.1000000E-03 e    :
          :  Broyden damping             0.4000000          :
          :  net charge                          1          :
          :  unpaired electrons                  5          :
          ...................................................

 iter      E             dE          RMSdq      gap      omega  full diag
   1   -125.4404567 -0.125440E+03  0.400E+00    0.48       0.0  T
   2   -124.6303142  0.810142E+00  0.434E+00    0.14       1.0  T
   3   -124.3957806  0.234534E+00  0.321E+00    0.45       1.0  T
   4   -124.2859644  0.109816E+00  0.367E+00    0.06       1.0  T
   5   -125.4954849 -0.120952E+01  0.143E+00    0.16       1.0  T
   6   -125.2640033  0.231482E+00  0.152E+00    0.54       1.0  T
   7   -125.6739823 -0.409979E+00  0.523E-01    0.43       1.0  T
   8   -125.6761692 -0.218689E-02  0.412E-01    0.46       1.0  T
   9   -125.6427717  0.333975E-01  0.651E-01    0.38       1.0  T
  10   -125.6625246 -0.197528E-01  0.548E-01    0.42       1.0  T
  11   -125.6830102 -0.204856E-01  0.367E-01    0.46       1.0  T
  12   -125.6644402  0.185700E-01  0.450E-01    0.40       1.0  T
  13   -125.6919466 -0.275064E-01  0.144E-01    0.44       1.0  T
  14   -125.6937687 -0.182210E-02  0.679E-02    0.43       1.0  T
  15   -125.6941693 -0.400591E-03  0.294E-02    0.42       1.0  T
  16   -125.6941022  0.670735E-04  0.371E-02    0.43       1.0  T
  17   -125.6941938 -0.915966E-04  0.149E-02    0.42       1.0  T
  18   -125.6941811  0.126834E-04  0.253E-02    0.42       1.0  T
  19   -125.6942215 -0.404098E-04  0.984E-03    0.42       1.1  T
  20   -125.6942267 -0.514905E-05  0.646E-03    0.42       1.7  T
  21   -125.6942271 -0.429955E-06  0.586E-03    0.42       1.8  T
  22   -125.6942303 -0.316029E-05  0.243E-03    0.42       4.4  T
  23   -125.6942307 -0.411074E-06  0.161E-03    0.42       6.7  T
  24   -125.6942306  0.410345E-07  0.191E-03    0.42       5.6  T
  25   -125.6942309 -0.268537E-06  0.837E-04    0.42      12.8  T
  26   -125.6942310 -0.360785E-07  0.636E-04    0.42      16.9  T

   *** convergence criteria satisfied after 26 iterations ***

         #    Occupation            Energy/Eh            Energy/eV
      -------------------------------------------------------------
         1        2.0000           -0.8309491             -22.6113
       ...           ...                  ...                  ...
       113        1.8052           -0.4399627             -11.9720
       114        1.5974           -0.4389895             -11.9455
       115        1.3888           -0.4381846             -11.9236
       116        1.1578           -0.4370231             -11.8920
       117        1.0510           -0.4358378             -11.8598
       118        1.0000           -0.3699742             -10.0675
       119        0.9997           -0.3674842              -9.9998 (HOMO)
       120        0.0003           -0.3519685              -9.5775 (LUMO)
       121                         -0.3437342              -9.3535
       122                         -0.3392981              -9.2328
       123                         -0.3205982              -8.7239
       124                         -0.3196785              -8.6989
       ...                                ...                  ...
       232                          1.5559316              42.3391
      -------------------------------------------------------------
                  HL-Gap            0.0155157 Eh            0.4222 eV
             Fermi-level           -0.3991537 Eh          -10.8615 eV

 SCC (total)                   0 d,  0 h,  0 min,  0.932 sec
 SCC setup                      ...        0 min,  0.001 sec (  0.115%)
 Dispersion                     ...        0 min,  0.004 sec (  0.471%)
 classical contributions        ...        0 min,  0.001 sec (  0.131%)
 integral evaluation            ...        0 min,  0.011 sec (  1.225%)
 iterations                     ...        0 min,  0.862 sec ( 92.534%)
 molecular gradient             ...        0 min,  0.034 sec (  3.617%)
 printout                       ...        0 min,  0.018 sec (  1.901%)

         :::::::::::::::::::::::::::::::::::::::::::::::::::::
         ::                     SUMMARY                     ::
         :::::::::::::::::::::::::::::::::::::::::::::::::::::
         :: total energy            -123.904954428537 Eh    ::
         :: gradient norm              0.367568976839 Eh/a0 ::
         :: HOMO-LUMO gap              0.422204368642 eV    ::
         ::.................................................::
         :: SCC energy              -125.688733113195 Eh    ::
         :: -> isotropic ES            0.061640664132 Eh    ::
         :: -> anisotropic ES          0.013071074490 Eh    ::
         :: -> anisotropic XC          0.080579825285 Eh    ::
         :: -> dispersion             -0.120300761380 Eh    ::
         :: repulsion energy           1.783778684658 Eh    ::
         :: add. restraining           0.000000000000 Eh    ::
         :: total charge               0.999999999992 e     ::
         :::::::::::::::::::::::::::::::::::::::::::::::::::::

      ----------------------------------------------------------- 
     |                   =====================                   |
     |                        A N C O P T                        |
     |                   =====================                   |
     |               Approximate Normal Coordinate               |
     |                Rational Function Optimizer                |
      ----------------------------------------------------------- 
      ----------------------------------------------------------- 
     |                   =====================                   |
     |                        A N C O P T                        |
     |                   =====================                   |
     |               Approximate Normal Coordinate               |
     |                Rational Function Optimizer                |
      ----------------------------------------------------------- 

          ...................................................
          :                      SETUP                      :
          :.................................................:
          :   optimization level         verytight          :
          :   max. optcycles                  1740          :
          :   ANC micro-cycles                  20          :
          :   degrees of freedom               255          :
          :.................................................:
          :   RF solver                   davidson          :
          :   write xtbopt.log                true          :
          :   linear?                        false          :
          :   energy convergence         0.1000000E-06 Eh   :
          :   grad. convergence          0.2000000E-03 Eh/α :
          :   maxmium RF displ.          1.0000000          :
          :   Hlow (freq-cutoff)         0.1000000E-01      :
          :   Hmax (freq-cutoff)         5.0000000          :
          :   S6 in model hess.         20.0000000          :
          ...................................................

generating ANC from exact Hessian ...
Using Lindh-Hessian (1995)
 Shifting diagonal of input Hessian by    9.9134151334763221E-003
 Lowest  eigenvalues of input Hessian
    0.000000    0.000000    0.000000    0.000000    0.000000    0.000000
    0.010000    0.010074    0.010082    0.010122    0.010201    0.010271
    0.010372    0.010431    0.010680    0.010732    0.010771    0.010962
 Highest eigenvalues
    2.072159    2.094602    2.104114    2.140799    2.158133    2.212649


........................................................................
.............................. CYCLE    1 ..............................
........................................................................

 iter      E             dE          RMSdq      gap      omega  full diag
   1   -125.6942310 -0.125694E+03  0.364E-04    0.42       0.0  T
   2   -125.6942297  0.129940E-05  0.379E-03    0.42       2.8  T
   3   -125.6942310 -0.127671E-05  0.633E-04    0.42      16.9  T
   4   -125.6942310 -0.217731E-07  0.351E-04    0.42      30.6  T
   5   -125.6942310 -0.848885E-08  0.157E-04    0.42      68.5  T
     SCC iter.                  ...        0 min,  0.156 sec
     gradient                   ...        0 min,  0.045 sec
 * total energy  :  -123.9049545 Eh     change       -0.3597707E-07 Eh
   gradient norm :     0.3675639 Eh/α   predicted     0.0000000E+00 (-100.00%)
   displ. norm   :     0.6544527 α      lambda       -0.1891666E+00
   maximum displ.:     0.2380982 α      in ANC's #86, #132, #162, ...

........................................................................
.............................. CYCLE    2 ..............................
........................................................................

 iter      E             dE          RMSdq      gap      omega  full diag
   1   -125.9197704 -0.125920E+03  0.473E-01    0.37       0.0  T
   2   -125.7007677  0.219003E+00  0.140E+00    0.06       1.0  T
   3   -125.8231073 -0.122340E+00  0.110E+00    0.48       1.0  T
   4   -125.9136684 -0.905611E-01  0.462E-01    0.37       1.0  T
   5   -125.9170160 -0.334759E-02  0.283E-01    0.33       1.0  T
   6   -125.9163632  0.652774E-03  0.294E-01    0.34       1.0  T
   7   -125.9233286 -0.696532E-02  0.135E-01    0.34       1.0  T
   8   -125.9247216 -0.139307E-02  0.611E-02    0.34       1.0  T
   9   -125.9247968 -0.752154E-04  0.344E-02    0.34       1.0  T
  10   -125.9248585 -0.616123E-04  0.176E-02    0.35       1.0  T
  11   -125.9248868 -0.283516E-04  0.894E-03    0.35       1.2  T
  12   -125.9248974 -0.105759E-04  0.228E-03    0.35       4.7  T
  13   -125.9248977 -0.272278E-06  0.156E-03    0.35       6.9  T
  14   -125.9248976  0.240739E-07  0.128E-03    0.35       8.4  T
  15   -125.9248977 -0.630725E-07  0.833E-04    0.35      12.9  T
  16   -125.9248978 -0.684414E-07  0.264E-04    0.35      40.6  T
     SCC iter.                  ...        0 min,  0.500 sec
     gradient                   ...        0 min,  0.041 sec
 * total energy  :  -124.0599673 Eh     change       -0.1550128E+00 Eh
   gradient norm :     0.2198422 Eh/α   predicted    -0.1351207E+00 ( -12.83%)
   displ. norm   :     0.7534519 α      lambda       -0.1392061E+00
   maximum displ.:     0.2701269 α      in ANC's #86, #130, #132, ...

........................................................................
.............................. CYCLE    3 ..............................
........................................................................

 iter      E             dE          RMSdq      gap      omega  full diag
   1   -126.1135565 -0.126114E+03  0.521E-01    0.29       0.0  T
   2   -125.8384937  0.275063E+00  0.161E+00    0.03       1.0  T
   3   -126.0391377 -0.200644E+00  0.998E-01    0.41       1.0  T
   4   -126.1125181 -0.733803E-01  0.424E-01    0.31       1.0  T
   5   -126.1152997 -0.278167E-02  0.302E-01    0.26       1.0  T
   6   -126.1068163  0.848345E-02  0.327E-01    0.28       1.0  T
   7   -126.1176581 -0.108419E-01  0.144E-01    0.27       1.0  T
   8   -126.1180971 -0.438923E-03  0.868E-02    0.26       1.0  T
   9   -126.1181287 -0.316027E-04  0.590E-02    0.26       1.0  T
  10   -126.1181856 -0.568791E-04  0.250E-02    0.26       1.0  T
  11   -126.1182207 -0.351050E-04  0.121E-02    0.26       1.0  T
  12   -126.1182358 -0.150949E-04  0.957E-03    0.26       1.1  T
  13   -126.1182401 -0.431877E-05  0.516E-03    0.26       2.1  T
  14   -126.1182404 -0.316880E-06  0.393E-03    0.26       2.7  T
  15   -126.1182407 -0.339908E-06  0.189E-03    0.26       5.7  T
  16   -126.1182409 -0.197649E-06  0.791E-04    0.26      13.5  T
  17   -126.1182409 -0.145362E-07  0.396E-04    0.26      27.1  T
     SCC iter.                  ...        0 min,  0.569 sec
     gradient                   ...        0 min,  0.037 sec
 * total energy  :  -124.1423746 Eh     change       -0.8240729E-01 Eh
   gradient norm :     0.1659297 Eh/α   predicted    -0.1091160E+00 (  32.41%)
   displ. norm   :     0.6350869 α      lambda       -0.6117033E-01
   maximum displ.:     0.2886845 α      in ANC's #86, #83, #79, ...

........................................................................
.............................. CYCLE    4 ..............................
........................................................................

 iter      E             dE          RMSdq      gap      omega  full diag
   1   -126.1271897 -0.126127E+03  0.340E-01    0.26       0.0  T
   2   -126.1099524  0.172373E-01  0.468E-01    0.20       1.0  T
   3   -126.0414196  0.685328E-01  0.108E+00    0.40       1.0  T
   4   -126.1023636 -0.609441E-01  0.521E-01    0.32       1.0  T
   5   -126.1271208 -0.247572E-01  0.145E-01    0.26       1.0  T
   6   -126.1261414  0.979422E-03  0.127E-01    0.25       1.0  T
   7   -126.1273849 -0.124349E-02  0.558E-02    0.25       1.0  T
   8   -126.1275249 -0.140069E-03  0.305E-02    0.26       1.0  T
   9   -126.1275271 -0.214531E-05  0.270E-02    0.26       1.0  T
  10   -126.1275639 -0.368544E-04  0.195E-02    0.26       1.0  T
  11   -126.1275666 -0.265570E-05  0.139E-02    0.26       1.0  T
  12   -126.1275781 -0.115162E-04  0.486E-03    0.26       2.2  T
  13   -126.1275806 -0.244447E-05  0.895E-04    0.26      12.0  T
  14   -126.1275807 -0.102542E-06  0.479E-04    0.26      22.4  T
  15   -126.1275807 -0.164332E-07  0.196E-04    0.26      54.7  T
     SCC iter.                  ...        0 min,  0.498 sec
     gradient                   ...        0 min,  0.040 sec
 * total energy  :  -124.1834915 Eh     change       -0.4111696E-01 Eh
   gradient norm :     0.0596695 Eh/α   predicted    -0.4292134E-01 (   4.39%)
   displ. norm   :     0.6002585 α      lambda       -0.2732898E-01
   maximum displ.:     0.2332733 α      in ANC's #67, #86, #82, ...

........................................................................
.............................. CYCLE    5 ..............................
........................................................................

 iter      E             dE          RMSdq      gap      omega  full diag
   1   -126.1541997 -0.126154E+03  0.288E-01    0.24       0.0  T
   2   -126.1445930  0.960670E-02  0.385E-01    0.28       1.0  T
   3   -126.1066777  0.379153E-01  0.715E-01    0.14       1.0  T
   4   -126.1471371 -0.404594E-01  0.299E-01    0.28       1.0  T
   5   -126.1516714 -0.453436E-02  0.238E-01    0.24       1.0  T
   6   -126.1530750 -0.140352E-02  0.183E-01    0.24       1.0  T
   7   -126.1539169 -0.841899E-03  0.772E-02    0.24       1.0  T
   8   -126.1543453 -0.428395E-03  0.164E-02    0.25       1.0  T
   9   -126.1543830 -0.377701E-04  0.852E-03    0.24       1.3  T
  10   -126.1543860 -0.296150E-05  0.923E-03    0.24       1.2  T
  11   -126.1543913 -0.531130E-05  0.271E-03    0.25       4.0  T
  12   -126.1543894  0.192790E-05  0.577E-03    0.25       1.9  T
  13   -126.1543919 -0.248074E-05  0.154E-03    0.24       7.0  T
  14   -126.1543919 -0.381319E-07  0.328E-04    0.24      32.7  T
  15   -126.1543919  0.894602E-09  0.124E-04    0.24      86.5  T
     SCC iter.                  ...        0 min,  0.493 sec
     gradient                   ...        0 min,  0.044 sec
 * total energy  :  -124.2002070 Eh     change       -0.1671543E-01 Eh
   gradient norm :     0.0506486 Eh/α   predicted    -0.1858796E-01 (  11.20%)
   displ. norm   :     0.5463933 α      lambda       -0.1443793E-01
   maximum displ.:     0.2313413 α      in ANC's #59, #55, #53, ...

........................................................................
.............................. CYCLE    6 ..............................
........................................................................

 iter      E             dE          RMSdq      gap      omega  full diag
   1   -126.1685279 -0.126169E+03  0.255E-01    0.23       0.0  T
   2   -126.1429315  0.255964E-01  0.579E-01    0.31       1.0  T
   3   -126.1518851 -0.895363E-02  0.458E-01    0.19       1.0  T
   4   -126.1617104 -0.982521E-02  0.267E-01    0.24       1.0  T
   5   -126.1656685 -0.395813E-02  0.172E-01    0.23       1.0  T
   6   -126.1634972  0.217125E-02  0.219E-01    0.21       1.0  T
   7   -126.1688355 -0.533826E-02  0.466E-02    0.23       1.0  T
   8   -126.1689266 -0.911360E-04  0.171E-02    0.23       1.0  T
   9   -126.1689556 -0.290066E-04  0.902E-03    0.23       1.2  T
  10   -126.1689629 -0.723061E-05  0.459E-03    0.23       2.3  T
  11   -126.1689640 -0.114237E-05  0.174E-03    0.23       6.2  T
  12   -126.1689638  0.191767E-06  0.232E-03    0.23       4.6  T
  13   -126.1689642 -0.416422E-06  0.507E-04    0.23      21.2  T
  14   -126.1689643 -0.396111E-07  0.243E-04    0.23      44.2  T
     SCC iter.                  ...        0 min,  0.428 sec
     gradient                   ...        0 min,  0.037 sec
 * total energy  :  -124.2037313 Eh     change       -0.3524387E-02 Eh
   gradient norm :     0.0593562 Eh/α   predicted    -0.9374161E-02 ( 165.98%)
   displ. norm   :     0.3826086 α      lambda       -0.9436838E-02
   maximum displ.:     0.1425643 α      in ANC's #59, #13, #36, ...

........................................................................
.............................. CYCLE    7 ..............................
........................................................................

 iter      E             dE          RMSdq      gap      omega  full diag
   1   -126.1697269 -0.126170E+03  0.171E-01    0.22       0.0  T
   2   -126.1552720  0.144549E-01  0.417E-01    0.28       1.0  T
   3   -126.1570577 -0.178565E-02  0.390E-01    0.19       1.0  T
   4   -126.1692132 -0.121555E-01  0.100E-01    0.22       1.0  T
   5   -126.1675931  0.162009E-02  0.148E-01    0.22       1.0  T
   6   -126.1683722 -0.779038E-03  0.102E-01    0.22       1.0  T
   7   -126.1698608 -0.148867E-02  0.178E-02    0.23       1.0  T
   8   -126.1698915 -0.306245E-04  0.845E-03    0.23       1.3  T
   9   -126.1698902  0.124537E-05  0.843E-03    0.23       1.3  T
  10   -126.1698982 -0.803594E-05  0.122E-03    0.23       8.8  T
  11   -126.1698981  0.134443E-06  0.164E-03    0.23       6.5  T
  12   -126.1698983 -0.216722E-06  0.984E-04    0.23      10.9  T
  13   -126.1698984 -0.629699E-07  0.287E-04    0.23      37.3  T
     SCC iter.                  ...        0 min,  0.442 sec
     gradient                   ...        0 min,  0.043 sec
 * total energy  :  -124.2094406 Eh     change       -0.5709287E-02 Eh
   gradient norm :     0.0308265 Eh/α   predicted    -0.5409156E-02 (  -5.26%)
   displ. norm   :     0.4578468 α      lambda       -0.5300546E-02
   maximum displ.:     0.1882615 α      in ANC's #53, #13, #36, ...

........................................................................
.............................. CYCLE    8 ..............................
........................................................................

 iter      E             dE          RMSdq      gap      omega  full diag
   1   -126.1665124 -0.126167E+03  0.190E-01    0.21       0.0  T
   2   -126.1606459  0.586648E-02  0.284E-01    0.24       1.0  T
   3   -126.1163054  0.443405E-01  0.719E-01    0.11       1.0  T
   4   -126.1659257 -0.496204E-01  0.101E-01    0.22       1.0  T
   5   -126.1644119  0.151383E-02  0.137E-01    0.20       1.0  T
   6   -126.1661514 -0.173956E-02  0.696E-02    0.21       1.0  T
   7   -126.1665585 -0.407024E-03  0.351E-02    0.21       1.0  T
   8   -126.1666664 -0.107947E-03  0.120E-02    0.21       1.0  T
   9   -126.1666652  0.120729E-05  0.104E-02    0.21       1.0  T
  10   -126.1666755 -0.102884E-04  0.433E-03    0.21       2.5  T
  11   -126.1666758 -0.326592E-06  0.175E-03    0.21       6.1  T
  12   -126.1666761 -0.286493E-06  0.829E-04    0.21      12.9  T
  13   -126.1666761 -0.209798E-07  0.960E-04    0.21      11.2  T
     SCC iter.                  ...        0 min,  0.438 sec
     gradient                   ...        0 min,  0.043 sec
 * total energy  :  -124.2115202 Eh     change       -0.2079609E-02 Eh
   gradient norm :     0.0343491 Eh/α   predicted    -0.3205834E-02 (  54.16%)
   displ. norm   :     0.4389585 α      lambda       -0.5165847E-02
   maximum displ.:     0.1450819 α      in ANC's #36, #55, #35, ...

........................................................................
.............................. CYCLE    9 ..............................
........................................................................

 iter      E             dE          RMSdq      gap      omega  full diag
   1   -126.1697461 -0.126170E+03  0.202E-01    0.17       0.0  T
   2   -126.0869992  0.827469E-01  0.980E-01    0.32       1.0  T
   3   -126.1682341 -0.812349E-01  0.251E-01    0.18       1.0  T
   4   -126.1693798 -0.114576E-02  0.116E-01    0.18       1.0  T
   5   -126.1685658  0.814091E-03  0.128E-01    0.19       1.0  T
   6   -126.1704389 -0.187318E-02  0.522E-02    0.19       1.0  T
   7   -126.1707214 -0.282459E-03  0.144E-02    0.19       1.0  T
   8   -126.1707354 -0.140235E-04  0.874E-03    0.19       1.2  T
   9   -126.1707373 -0.186076E-05  0.934E-03    0.19       1.1  T
  10   -126.1707440 -0.672565E-05  0.525E-03    0.19       2.0  T
  11   -126.1707449 -0.927078E-06  0.393E-03    0.19       2.7  T
  12   -126.1707464 -0.147486E-05  0.796E-04    0.19      13.5  T
  13   -126.1707465 -0.980693E-07  0.546E-04    0.19      19.6  T
  14   -126.1707465 -0.166496E-07  0.202E-04    0.19      53.2  T
     SCC iter.                  ...        0 min,  0.410 sec
     gradient                   ...        0 min,  0.041 sec
 * total energy  :  -124.2140797 Eh     change       -0.2559489E-02 Eh
   gradient norm :     0.0310359 Eh/α   predicted    -0.3080619E-02 (  20.36%)
   displ. norm   :     0.3766575 α      lambda       -0.3171093E-02
   maximum displ.:     0.1438749 α      in ANC's #13, #53, #12, ...

........................................................................
.............................. CYCLE   10 ..............................
........................................................................

 iter      E             dE          RMSdq      gap      omega  full diag
   1   -126.1738292 -0.126174E+03  0.160E-01    0.14       0.0  T
   2   -126.1185125  0.553167E-01  0.799E-01    0.26       1.0  T
   3   -126.1741681 -0.556556E-01  0.138E-01    0.16       1.0  T
   4   -126.1731967  0.971447E-03  0.122E-01    0.14       1.0  T
   5   -126.1735594 -0.362704E-03  0.838E-02    0.16       1.0  T
   6   -126.1739366 -0.377197E-03  0.558E-02    0.16       1.0  T
   7   -126.1743020 -0.365478E-03  0.896E-03    0.16       1.2  T
   8   -126.1743047 -0.267290E-05  0.573E-03    0.16       1.9  T
   9   -126.1743052 -0.506352E-06  0.598E-03    0.16       1.8  T
  10   -126.1743049  0.366822E-06  0.606E-03    0.16       1.8  T
  11   -126.1743078 -0.292274E-05  0.212E-03    0.16       5.1  T
  12   -126.1743083 -0.503202E-06  0.849E-04    0.16      12.6  T
  13   -126.1743083 -0.317523E-07  0.416E-04    0.16      25.8  T
     SCC iter.                  ...        0 min,  0.375 sec
     gradient                   ...        0 min,  0.042 sec
 * total energy  :  -124.2155109 Eh     change       -0.1431214E-02 Eh
   gradient norm :     0.0211660 Eh/α   predicted    -0.1810491E-02 (  26.50%)
   displ. norm   :     0.2873537 α      lambda       -0.1317783E-02
   maximum displ.:     0.1133171 α      in ANC's #13, #12, #32, ...

........................................................................
.............................. CYCLE   11 ..............................
........................................................................

 iter      E             dE          RMSdq      gap      omega  full diag
   1   -126.1724844 -0.126172E+03  0.153E-01    0.10       0.0  T
   2   -126.0131719  0.159312E+00  0.135E+00    0.30       1.0  T
   3   -126.1689818 -0.155810E+00  0.235E-01    0.14       1.0  T
   4   -126.1728091 -0.382732E-02  0.106E-01    0.11       1.0  T
   5   -126.1735182 -0.709061E-03  0.587E-02    0.12       1.0  T
   6   -126.1731454  0.372772E-03  0.648E-02    0.12       1.0  T
   7   -126.1737256 -0.580187E-03  0.114E-02    0.12       1.0  T
   8   -126.1737340 -0.843130E-05  0.529E-03    0.12       2.0  T
   9   -126.1737359 -0.184068E-05  0.503E-03    0.12       2.1  T
  10   -126.1737366 -0.775958E-06  0.466E-03    0.12       2.3  T
  11   -126.1737386 -0.199834E-05  0.670E-04    0.12      16.0  T
  12   -126.1737387 -0.220925E-07  0.557E-04    0.12      19.2  T
  13   -126.1737387  0.373873E-08  0.578E-04    0.12      18.6  T
     SCC iter.                  ...        0 min,  0.398 sec
     gradient                   ...        0 min,  0.042 sec
 * total energy  :  -124.2164109 Eh     change       -0.8999702E-03 Eh
   gradient norm :     0.0135578 Eh/α   predicted    -0.7132992E-03 ( -20.74%)
   displ. norm   :     0.4186008 α      lambda       -0.1492946E-02
   maximum displ.:     0.1622786 α      in ANC's #13, #12, #20, ...

........................................................................
.............................. CYCLE   12 ..............................
........................................................................

 iter      E             dE          RMSdq      gap      omega  full diag
   1   -126.1479340 -0.126148E+03  0.629E-01    0.03       0.0  T
   2   -125.5585253  0.589409E+00  0.273E+00    0.89       1.0  T
   3   -126.0834729 -0.524948E+00  0.101E+00    0.19       1.0  T
   4   -126.0485665  0.349064E-01  0.114E+00    0.04       1.0  T
   5   -126.1738961 -0.125330E+00  0.315E-01    0.03       1.0  T
   6   -126.1818138 -0.791775E-02  0.909E-02    0.05       1.0  T
   7   -126.1808130  0.100084E-02  0.102E-01    0.05       1.0  T
   8   -126.1762422  0.457078E-02  0.242E-01    0.07       1.0  T
   9   -126.1813715 -0.512934E-02  0.756E-02    0.06       1.0  T
  10   -126.1819002 -0.528718E-03  0.275E-02    0.05       1.0  T
  11   -126.1816031  0.297087E-03  0.590E-02    0.04       1.0  T
  12   -126.1818950 -0.291840E-03  0.191E-02    0.05       1.0  T
  13   -126.1819328 -0.378599E-04  0.479E-03    0.05       2.2  T
  14   -126.1819243  0.858325E-05  0.973E-03    0.05       1.1  T
  15   -126.1819336 -0.928732E-05  0.265E-03    0.05       4.0  T
  16   -126.1819316  0.194232E-05  0.508E-03    0.05       2.1  T
  17   -126.1819343 -0.264569E-05  0.598E-04    0.05      17.9  T
  18   -126.1819342  0.573249E-07  0.839E-04    0.05      12.8  T
  19   -126.1819342 -0.505491E-07  0.379E-04    0.05      28.3  T
     SCC iter.                  ...        0 min,  0.628 sec
     gradient                   ...        0 min,  0.039 sec
 * total energy  :  -124.2175425 Eh     change       -0.1131586E-02 Eh
   gradient norm :     0.0225402 Eh/α   predicted    -0.8772775E-03 ( -22.47%)
   displ. norm   :     0.7869273 α      lambda       -0.3543804E-02
   maximum displ.:     0.2472591 α      in ANC's #13, #34, #12, ...

........................................................................
.............................. CYCLE   13 ..............................
........................................................................

 iter      E             dE          RMSdq      gap      omega  full diag
   1   -126.1521454 -0.126152E+03  0.812E-01    0.06       0.0  T
   2   -125.4838951  0.668250E+00  0.298E+00    0.81       1.0  T
   3   -126.1824544 -0.698559E+00  0.484E-01    0.02       1.0  T
   4   -126.1639132  0.185412E-01  0.809E-01    0.07       1.0  T
   5   -126.1991188 -0.352056E-01  0.102E-01    0.04       1.0  T
   6   -126.1920551  0.706368E-02  0.284E-01    0.03       1.0  T
   7   -126.1903181  0.173696E-02  0.338E-01    0.06       1.0  T
   8   -126.1992661 -0.894792E-02  0.313E-02    0.04       1.0  T
   9   -126.1991248  0.141246E-03  0.534E-02    0.04       1.0  T
  10   -126.1993256 -0.200762E-03  0.170E-02    0.04       1.0  T
  11   -126.1993413 -0.157567E-04  0.119E-02    0.04       1.0  T
  12   -126.1993480 -0.670037E-05  0.662E-03    0.04       1.6  T
  13   -126.1993506 -0.258745E-05  0.420E-03    0.04       2.6  T
  14   -126.1993513 -0.720755E-06  0.256E-03    0.04       4.2  T
  15   -126.1993517 -0.355775E-06  0.159E-03    0.04       6.7  T
  16   -126.1993517 -0.261829E-07  0.122E-03    0.04       8.8  T
  17   -126.1993518 -0.835439E-07  0.708E-04    0.04      15.1  T
  18   -126.1993518 -0.323662E-07  0.201E-04    0.04      53.2  T
     SCC iter.                  ...        0 min,  0.578 sec
     gradient                   ...        0 min,  0.039 sec
 * total energy  :  -124.2220664 Eh     change       -0.4523934E-02 Eh
   gradient norm :     0.0604177 Eh/α   predicted    -0.2869168E-02 ( -36.58%)
   displ. norm   :     0.5308721 α      lambda       -0.6007849E-02
   maximum displ.:     0.1715672 α      in ANC's #34, #56, #13, ...

........................................................................
.............................. CYCLE   14 ..............................
........................................................................

 iter      E             dE          RMSdq      gap      omega  full diag
   1   -126.1982616 -0.126198E+03  0.274E-01    0.07       0.0  T
   2   -126.0548104  0.143451E+00  0.134E+00    0.04       1.0  T
   3   -126.2001808 -0.145370E+00  0.177E-01    0.04       1.0  T
   4   -126.1984782  0.170257E-02  0.173E-01    0.07       1.0  T
   5   -126.1969148  0.156346E-02  0.172E-01    0.03       1.0  T
   6   -126.2007518 -0.383699E-02  0.542E-02    0.06       1.0  T
   7   -126.2009000 -0.148241E-03  0.227E-02    0.06       1.0  T
   8   -126.2008887  0.112698E-04  0.279E-02    0.06       1.0  T
   9   -126.2009254 -0.366378E-04  0.160E-02    0.06       1.0  T
  10   -126.2009408 -0.154519E-04  0.466E-03    0.06       2.3  T
  11   -126.2009424 -0.157778E-05  0.204E-03    0.06       5.3  T
  12   -126.2009427 -0.268330E-06  0.109E-03    0.06       9.8  T
  13   -126.2009428 -0.100947E-06  0.567E-04    0.06      18.9  T
  14   -126.2009427  0.508541E-07  0.883E-04    0.06      12.1  T
     SCC iter.                  ...        0 min,  0.442 sec
     gradient                   ...        0 min,  0.040 sec
 * total energy  :  -124.2260253 Eh     change       -0.3958904E-02 Eh
   gradient norm :     0.0574914 Eh/α   predicted    -0.3850508E-02 (  -2.74%)
   displ. norm   :     0.4652874 α      lambda       -0.1223003E-01
   maximum displ.:     0.1580943 α      in ANC's #21, #56, #17, ...

........................................................................
.............................. CYCLE   15 ..............................
........................................................................

 iter      E             dE          RMSdq      gap      omega  full diag
   1   -126.2013494 -0.126201E+03  0.264E-01    0.10       0.0  T
   2   -126.0978698  0.103480E+00  0.115E+00    0.06       1.0  T
   3   -126.2019344 -0.104065E+00  0.186E-01    0.06       1.0  T
   4   -126.2017832  0.151249E-03  0.130E-01    0.10       1.0  T
   5   -126.1954809  0.630222E-02  0.256E-01    0.06       1.0  T
   6   -126.2023103 -0.682940E-02  0.764E-02    0.08       1.0  T
   7   -126.2029640 -0.653621E-03  0.193E-02    0.08       1.0  T
   8   -126.2029757 -0.117668E-04  0.123E-02    0.08       1.0  T
   9   -126.2029823 -0.652493E-05  0.758E-03    0.08       1.4  T
  10   -126.2029846 -0.237098E-05  0.498E-03    0.08       2.2  T
  11   -126.2029859 -0.130440E-05  0.258E-03    0.08       4.2  T
  12   -126.2029868 -0.879463E-06  0.105E-03    0.08      10.3  T
  13   -126.2029869 -0.752868E-07  0.424E-04    0.08      25.3  T
  14   -126.2029869 -0.622109E-08  0.261E-04    0.08      41.1  T
     SCC iter.                  ...        0 min,  0.468 sec
     gradient                   ...        0 min,  0.040 sec
 * total energy  :  -124.2324343 Eh     change       -0.6408960E-02 Eh
   gradient norm :     0.0449204 Eh/α   predicted    -0.7438879E-02 (  16.07%)
   displ. norm   :     0.6494311 α      lambda       -0.9525767E-02
   maximum displ.:     0.2579403 α      in ANC's #34, #56, #54, ...

........................................................................
.............................. CYCLE   16 ..............................
........................................................................

 iter      E             dE          RMSdq      gap      omega  full diag
   1   -126.2114342 -0.126211E+03  0.354E-01    0.14       0.0  T
   2   -126.0325322  0.178902E+00  0.153E+00    0.11       1.0  T
   3   -126.2069835 -0.174451E+00  0.381E-01    0.11       1.0  T
   4   -126.2105241 -0.354062E-02  0.322E-01    0.13       1.0  T
   5   -126.2163100 -0.578589E-02  0.128E-01    0.12       1.0  T
   6   -126.2140405  0.226955E-02  0.193E-01    0.13       1.0  T
   7   -126.2176530 -0.361254E-02  0.314E-02    0.12       1.0  T
   8   -126.2177131 -0.601272E-04  0.142E-02    0.12       1.0  T
   9   -126.2177250 -0.118382E-04  0.590E-03    0.12       1.8  T
  10   -126.2177180  0.699757E-05  0.112E-02    0.12       1.0  T
  11   -126.2177274 -0.939772E-05  0.267E-03    0.12       4.0  T
  12   -126.2177275 -0.150671E-06  0.213E-03    0.12       5.0  T
  13   -126.2177273  0.227064E-06  0.267E-03    0.12       4.0  T
  14   -126.2177277 -0.439648E-06  0.123E-03    0.12       8.7  T
  15   -126.2177279 -0.107404E-06  0.405E-04    0.12      26.5  T
  16   -126.2177279 -0.544414E-08  0.346E-04    0.12      31.0  T
     SCC iter.                  ...        0 min,  0.535 sec
     gradient                   ...        0 min,  0.034 sec
 * total energy  :  -124.2357211 Eh     change       -0.3286778E-02 Eh
   gradient norm :     0.0459943 Eh/α   predicted    -0.6771674E-02 ( 106.03%)
   displ. norm   :     0.3506106 α      lambda       -0.4823461E-02
   maximum displ.:     0.1257446 α      in ANC's #34, #13, #29, ...

........................................................................
.............................. CYCLE   17 ..............................
........................................................................

 iter      E             dE          RMSdq      gap      omega  full diag
   1   -126.2101802 -0.126210E+03  0.919E-02    0.15       0.0  T
   2   -126.1974986  0.126816E-01  0.402E-01    0.14       1.0  T
   3   -126.2102338 -0.127352E-01  0.557E-02    0.14       1.0  T
   4   -126.2096840  0.549804E-03  0.855E-02    0.15       1.0  T
   5   -126.2094851  0.198867E-03  0.873E-02    0.14       1.0  T
   6   -126.2102046 -0.719476E-03  0.264E-02    0.14       1.0  T
   7   -126.2102783 -0.736963E-04  0.996E-03    0.14       1.1  T
   8   -126.2102845 -0.618779E-05  0.560E-03    0.14       1.9  T
   9   -126.2102867 -0.219374E-05  0.318E-03    0.14       3.4  T
  10   -126.2102874 -0.683448E-06  0.169E-03    0.14       6.3  T
  11   -126.2102875 -0.997467E-07  0.108E-03    0.14       9.9  T
  12   -126.2102875 -0.653636E-07  0.483E-04    0.14      22.2  T
  13   -126.2102875 -0.178608E-07  0.141E-04    0.14      75.8  T
     SCC iter.                  ...        0 min,  0.378 sec
     gradient                   ...        0 min,  0.042 sec
 * total energy  :  -124.2387267 Eh     change       -0.3005599E-02 Eh
   gradient norm :     0.0197459 Eh/α   predicted    -0.2708195E-02 (  -9.90%)
   displ. norm   :     0.3929551 α      lambda       -0.2005000E-02
   maximum displ.:     0.1751105 α      in ANC's #34, #17, #29, ...

........................................................................
.............................. CYCLE   18 ..............................
........................................................................

 iter      E             dE          RMSdq      gap      omega  full diag
   1   -126.2064890 -0.126206E+03  0.802E-02    0.17       0.0  T
   2   -126.1755015  0.309875E-01  0.625E-01    0.17       1.0  T
   3   -126.2042007 -0.286992E-01  0.173E-01    0.16       1.0  T
   4   -126.2054544 -0.125364E-02  0.116E-01    0.17       1.0  T
   5   -126.2065691 -0.111476E-02  0.405E-02    0.17       1.0  T
   6   -126.2066510 -0.819080E-04  0.179E-02    0.17       1.0  T
   7   -126.2066710 -0.199793E-04  0.151E-02    0.17       1.0  T
   8   -126.2066986 -0.275800E-04  0.576E-03    0.17       1.9  T
   9   -126.2067009 -0.232160E-05  0.296E-03    0.17       3.6  T
  10   -126.2067010 -0.109049E-06  0.225E-03    0.17       4.8  T
  11   -126.2067012 -0.147421E-06  0.174E-03    0.17       6.2  T
  12   -126.2067014 -0.252390E-06  0.375E-04    0.17      28.6  T
  13   -126.2067014 -0.553291E-08  0.199E-04    0.17      53.8  T
     SCC iter.                  ...        0 min,  0.420 sec
     gradient                   ...        0 min,  0.042 sec
 * total energy  :  -124.2398635 Eh     change       -0.1136822E-02 Eh
   gradient norm :     0.0184537 Eh/α   predicted    -0.1157301E-02 (   1.80%)
   displ. norm   :     0.5683054 α      lambda       -0.1832583E-02
   maximum displ.:     0.2261914 α      in ANC's #34, #17, #15, ...

........................................................................
.............................. CYCLE   19 ..............................
........................................................................

 iter      E             dE          RMSdq      gap      omega  full diag
   1   -126.1908574 -0.126191E+03  0.157E-01    0.20       0.0  T
   2   -126.1372628  0.535947E-01  0.829E-01    0.19       1.0  T
   3   -126.1902411 -0.529783E-01  0.135E-01    0.19       1.0  T
   4   -126.1862808  0.396031E-02  0.231E-01    0.20       1.0  T
   5   -126.1896492 -0.336844E-02  0.117E-01    0.19       1.0  T
   6   -126.1909958 -0.134658E-02  0.426E-02    0.20       1.0  T
   7   -126.1912728 -0.277025E-03  0.146E-02    0.19       1.0  T
   8   -126.1912731 -0.227482E-06  0.114E-02    0.19       1.0  T
   9   -126.1912842 -0.111414E-04  0.388E-03    0.19       2.8  T
  10   -126.1912844 -0.220780E-06  0.265E-03    0.19       4.0  T
  11   -126.1912849 -0.436427E-06  0.172E-03    0.19       6.2  T
  12   -126.1912851 -0.272800E-06  0.425E-04    0.19      25.2  T
  13   -126.1912851 -0.110490E-07  0.189E-04    0.19      56.9  T
     SCC iter.                  ...        0 min,  0.437 sec
     gradient                   ...        0 min,  0.034 sec
 * total energy  :  -124.2402968 Eh     change       -0.4333042E-03 Eh
   gradient norm :     0.0245415 Eh/α   predicted    -0.1212232E-02 ( 179.76%)
   displ. norm   :     0.4205878 α      lambda       -0.1892133E-02
   maximum displ.:     0.1665094 α      in ANC's #13, #39, #35, ...

........................................................................
.............................. CYCLE   20 ..............................
........................................................................

 iter      E             dE          RMSdq      gap      omega  full diag
   1   -126.2042270 -0.126204E+03  0.119E-01    0.18       0.0  T
   2   -126.1961375  0.808952E-02  0.319E-01    0.18       1.0  T
   3   -126.1978277 -0.169021E-02  0.297E-01    0.19       1.0  T
   4   -126.2040922 -0.626448E-02  0.681E-02    0.18       1.0  T
   5   -126.2038137  0.278535E-03  0.625E-02    0.19       1.0  T
   6   -126.2040423 -0.228636E-03  0.532E-02    0.18       1.0  T
   7   -126.2043071 -0.264836E-03  0.579E-03    0.18       1.9  T
   8   -126.2043084 -0.129770E-05  0.295E-03    0.18       3.6  T
   9   -126.2043089 -0.469010E-06  0.163E-03    0.18       6.6  T
  10   -126.2043089 -0.112881E-07  0.127E-03    0.18       8.4  T
  11   -126.2043091 -0.197185E-06  0.307E-04    0.18      34.9  T
  12   -126.2043091  0.351932E-09  0.230E-04    0.18      46.6  T
     SCC iter.                  ...        0 min,  0.387 sec
     gradient                   ...        0 min,  0.030 sec
 * total energy  :  -124.2407209 Eh     change       -0.4241278E-03 Eh
   gradient norm :     0.0264787 Eh/α   predicted    -0.1113422E-02 ( 162.52%)
   displ. norm   :     0.2280148 α      lambda       -0.1534361E-02
   maximum displ.:     0.1050202 α      in ANC's #13, #12, #35, ...
 * RMSD in coord.:     0.6078567 α      energy gain  -0.3357665E+00 Eh

generating ANC from exact Hessian ...
Using Lindh-Hessian (1995)
 Shifting diagonal of input Hessian by    1.0649229466697682E-002
 Lowest  eigenvalues of input Hessian
    0.010000    0.000000    0.000000    0.000000    0.000000    0.000000
    0.000000    0.010730    0.010771    0.010793    0.010819    0.010869
    0.010894    0.011070    0.011117    0.011247    0.011526    0.011646
 Highest eigenvalues
    2.099734    2.100793    2.105538    2.110491    2.119084    2.198937


........................................................................
.............................. CYCLE   21 ..............................
........................................................................

 iter      E             dE          RMSdq      gap      omega  full diag
   1   -126.2082463 -0.126208E+03  0.649E-02    0.17       0.0  T
   2   -126.2082118  0.344172E-04  0.436E-02    0.17       1.0  T
   3   -126.2078777  0.334097E-03  0.576E-02    0.17       1.0  T
   4   -126.2052025  0.267522E-02  0.186E-01    0.16       1.0  T
   5   -126.2079034 -0.270088E-02  0.536E-02    0.16       1.0  T
   6   -126.2081864 -0.283035E-03  0.283E-02    0.17       1.0  T
   7   -126.2082616 -0.751286E-04  0.407E-03    0.17       2.6  T
   8   -126.2082626 -0.994076E-06  0.216E-03    0.17       5.0  T
   9   -126.2082628 -0.249858E-06  0.907E-04    0.17      11.8  T
  10   -126.2082628 -0.361098E-07  0.629E-04    0.17      17.1  T
     SCC iter.                  ...        0 min,  0.332 sec
     gradient                   ...        0 min,  0.041 sec
 * total energy  :  -124.2412788 Eh     change       -0.5578522E-03 Eh
   gradient norm :     0.0158722 Eh/α   predicted     0.0000000E+00 (-100.00%)
   displ. norm   :     0.1395355 α      lambda       -0.7283172E-03
   maximum displ.:     0.0698882 α      in ANC's #18, #20, #16, ...

........................................................................
.............................. CYCLE   22 ..............................
........................................................................

 iter      E             dE          RMSdq      gap      omega  full diag
   1   -126.2058049 -0.126206E+03  0.523E-02    0.16       0.0  T
   2   -126.2046012  0.120370E-02  0.122E-01    0.16       1.0  T
   3   -126.2052110 -0.609830E-03  0.944E-02    0.16       1.0  T
   4   -126.2050919  0.119142E-03  0.851E-02    0.16       1.0  T
   5   -126.2057833 -0.691380E-03  0.155E-02    0.16       1.0  T
   6   -126.2058082 -0.249810E-04  0.101E-02    0.16       1.1  T
   7   -126.2058155 -0.730119E-05  0.535E-03    0.16       2.0  T
   8   -126.2058181 -0.253554E-05  0.170E-03    0.16       6.3  T
   9   -126.2058182 -0.143939E-06  0.112E-03    0.16       9.5  T
  10   -126.2058183 -0.105666E-06  0.283E-04    0.16      37.9  T
  11   -126.2058183  0.626457E-09  0.258E-04    0.16      41.5  T
     SCC iter.                  ...        0 min,  0.365 sec
     gradient                   ...        0 min,  0.041 sec
 * total energy  :  -124.2417057 Eh     change       -0.4269518E-03 Eh
   gradient norm :     0.0059967 Eh/α   predicted    -0.3712551E-03 ( -13.05%)
   displ. norm   :     0.1637591 α      lambda       -0.3434823E-03
   maximum displ.:     0.0867640 α      in ANC's #18, #20, #16, ...

........................................................................
.............................. CYCLE   23 ..............................
........................................................................

 iter      E             dE          RMSdq      gap      omega  full diag
   1   -126.2046263 -0.126205E+03  0.463E-02    0.16       0.0  T
   2   -126.2045731  0.531840E-04  0.357E-02    0.16       1.0  T
   3   -126.1990299  0.554318E-02  0.264E-01    0.16       1.0  T
   4   -126.2044804 -0.545047E-02  0.402E-02    0.16       1.0  T
   5   -126.2045854 -0.105021E-03  0.161E-02    0.16       1.0  T
   6   -126.2046293 -0.439254E-04  0.441E-03    0.16       2.4  T
   7   -126.2046306 -0.125557E-05  0.250E-03    0.16       4.3  T
   8   -126.2046307 -0.117909E-06  0.181E-03    0.16       5.9  T
   9   -126.2046310 -0.275126E-06  0.647E-04    0.16      16.6  T
  10   -126.2046310 -0.175176E-07  0.426E-04    0.16      25.1  T
     SCC iter.                  ...        0 min,  0.329 sec
     gradient                   ...        0 min,  0.035 sec
 * total energy  :  -124.2419631 Eh     change       -0.2573604E-03 Eh
   gradient norm :     0.0054640 Eh/α   predicted    -0.1763504E-03 ( -31.48%)
   displ. norm   :     0.3434847 α      lambda       -0.4610445E-03
   maximum displ.:     0.1949088 α      in ANC's #18, #20, #16, ...

........................................................................
.............................. CYCLE   24 ..............................
........................................................................

 iter      E             dE          RMSdq      gap      omega  full diag
   1   -126.2031558 -0.126203E+03  0.872E-02    0.15       0.0  T
   2   -126.2018388  0.131700E-02  0.142E-01    0.15       1.0  T
   3   -126.1985605  0.327832E-02  0.242E-01    0.15       1.0  T
   4   -126.2026171 -0.405658E-02  0.786E-02    0.15       1.0  T
   5   -126.2030694 -0.452337E-03  0.278E-02    0.14       1.0  T
   6   -126.2031609 -0.914514E-04  0.144E-02    0.15       1.0  T
   7   -126.2031664 -0.550966E-05  0.105E-02    0.15       1.0  T
   8   -126.2031762 -0.986712E-05  0.261E-03    0.15       4.1  T
   9   -126.2031764 -0.164412E-06  0.215E-03    0.15       5.0  T
  10   -126.2031767 -0.307638E-06  0.463E-04    0.15      23.2  T
  11   -126.2031767 -0.115944E-07  0.249E-04    0.15      43.1  T
     SCC iter.                  ...        0 min,  0.383 sec
     gradient                   ...        0 min,  0.041 sec
 * total energy  :  -124.2423287 Eh     change       -0.3656323E-03 Eh
   gradient norm :     0.0104653 Eh/α   predicted    -0.2577214E-03 ( -29.51%)
   displ. norm   :     0.5041217 α      lambda       -0.6033059E-03
   maximum displ.:     0.2875496 α      in ANC's #18, #20, #16, ...

........................................................................
.............................. CYCLE   25 ..............................
........................................................................

 iter      E             dE          RMSdq      gap      omega  full diag
   1   -126.2005355 -0.126201E+03  0.126E-01    0.13       0.0  T
   2   -126.1864668  0.140687E-01  0.437E-01    0.14       1.0  T
   3   -126.1990434 -0.125766E-01  0.159E-01    0.13       1.0  T
   4   -126.2002643 -0.122097E-02  0.704E-02    0.13       1.0  T
   5   -126.2005082 -0.243812E-03  0.331E-02    0.13       1.0  T
   6   -126.2006369 -0.128709E-03  0.131E-02    0.13       1.0  T
   7   -126.2006273  0.958786E-05  0.159E-02    0.13       1.0  T
   8   -126.2006489 -0.216585E-04  0.357E-03    0.13       3.0  T
   9   -126.2006497 -0.751777E-06  0.240E-03    0.13       4.5  T
  10   -126.2006500 -0.263315E-06  0.170E-03    0.13       6.3  T
  11   -126.2006503 -0.312751E-06  0.295E-04    0.13      36.3  T
  12   -126.2006503  0.677701E-09  0.270E-04    0.13      39.7  T
     SCC iter.                  ...        0 min,  0.395 sec
     gradient                   ...        0 min,  0.041 sec
 * total energy  :  -124.2427969 Eh     change       -0.4681746E-03 Eh
   gradient norm :     0.0138261 Eh/α   predicted    -0.3783248E-03 ( -19.19%)
   displ. norm   :     0.4786312 α      lambda       -0.6665362E-03
   maximum displ.:     0.2640717 α      in ANC's #18, #20, #11, ...

........................................................................
.............................. CYCLE   26 ..............................
........................................................................

 iter      E             dE          RMSdq      gap      omega  full diag
   1   -126.1999108 -0.126200E+03  0.116E-01    0.12       0.0  T
   2   -126.1756932  0.242176E-01  0.568E-01    0.13       1.0  T
   3   -126.1997889 -0.240957E-01  0.889E-02    0.12       1.0  T
   4   -126.1990010  0.787868E-03  0.108E-01    0.12       1.0  T
   5   -126.2000297 -0.102872E-02  0.254E-02    0.12       1.0  T
   6   -126.2000800 -0.502427E-04  0.891E-03    0.12       1.2  T
   7   -126.2000819 -0.188432E-05  0.838E-03    0.12       1.3  T
   8   -126.2000864 -0.454186E-05  0.282E-03    0.12       3.8  T
   9   -126.2000874 -0.100997E-05  0.111E-03    0.12       9.7  T
  10   -126.2000875 -0.135674E-06  0.484E-04    0.12      22.2  T
  11   -126.2000876 -0.142526E-07  0.250E-04    0.12      42.8  T
     SCC iter.                  ...        0 min,  0.348 sec
     gradient                   ...        0 min,  0.038 sec
 * total energy  :  -124.2433396 Eh     change       -0.5426954E-03 Eh
   gradient norm :     0.0131404 Eh/α   predicted    -0.4096162E-03 ( -24.52%)
   displ. norm   :     0.4574095 α      lambda       -0.9389416E-03
   maximum displ.:     0.2289006 α      in ANC's #18, #11, #20, ...

........................................................................
.............................. CYCLE   27 ..............................
........................................................................

 iter      E             dE          RMSdq      gap      omega  full diag
   1   -126.2042520 -0.126204E+03  0.111E-01    0.12       0.0  T
   2   -126.1751901  0.290618E-01  0.622E-01    0.12       1.0  T
   3   -126.2043760 -0.291859E-01  0.674E-02    0.12       1.0  T
   4   -126.2031450  0.123104E-02  0.117E-01    0.12       1.0  T
   5   -126.2043825 -0.123757E-02  0.284E-02    0.12       1.0  T
   6   -126.2044456 -0.630729E-04  0.764E-03    0.12       1.4  T
   7   -126.2044474 -0.177895E-05  0.696E-03    0.12       1.5  T
   8   -126.2044503 -0.291568E-05  0.250E-03    0.12       4.3  T
   9   -126.2044508 -0.537872E-06  0.150E-03    0.12       7.1  T
  10   -126.2044510 -0.191745E-06  0.666E-04    0.12      16.1  T
  11   -126.2044511 -0.262158E-07  0.240E-04    0.12      44.7  T
     SCC iter.                  ...        0 min,  0.345 sec
     gradient                   ...        0 min,  0.039 sec
 * total energy  :  -124.2440307 Eh     change       -0.6911073E-03 Eh
   gradient norm :     0.0084112 Eh/α   predicted    -0.5677025E-03 ( -17.86%)
   displ. norm   :     0.6478158 α      lambda       -0.8339718E-03
   maximum displ.:     0.3367504 α      in ANC's #18, #11, #20, ...

........................................................................
.............................. CYCLE   28 ..............................
........................................................................

 iter      E             dE          RMSdq      gap      omega  full diag
   1   -126.1983914 -0.126198E+03  0.168E-01    0.12       0.0  T
   2   -126.1744419  0.239495E-01  0.574E-01    0.12       1.0  T
   3   -126.1968893 -0.224474E-01  0.175E-01    0.12       1.0  T
   4   -126.1968322  0.570248E-04  0.136E-01    0.12       1.0  T
   5   -126.1979771 -0.114484E-02  0.766E-02    0.11       1.0  T
   6   -126.1985298 -0.552735E-03  0.246E-02    0.12       1.0  T
   7   -126.1985214  0.844999E-05  0.242E-02    0.12       1.0  T
   8   -126.1985606 -0.392825E-04  0.892E-03    0.12       1.2  T
   9   -126.1985653 -0.463771E-05  0.406E-03    0.12       2.6  T
  10   -126.1985665 -0.120795E-05  0.114E-03    0.12       9.4  T
  11   -126.1985665 -0.456051E-07  0.766E-04    0.12      14.0  T
  12   -126.1985666 -0.357939E-07  0.452E-04    0.12      23.7  T
     SCC iter.                  ...        0 min,  0.424 sec
     gradient                   ...        0 min,  0.029 sec
 * total energy  :  -124.2445867 Eh     change       -0.5560489E-03 Eh
   gradient norm :     0.0152098 Eh/α   predicted    -0.5919810E-03 (   6.46%)
   displ. norm   :     0.3490701 α      lambda       -0.9246776E-03
   maximum displ.:     0.1158122 α      in ANC's #30, #18, #11, ...

........................................................................
.............................. CYCLE   29 ..............................
........................................................................

 iter      E             dE          RMSdq      gap      omega  full diag
   1   -126.2051460 -0.126205E+03  0.989E-02    0.13       0.0  T
   2   -126.2050756  0.704245E-04  0.623E-02    0.12       1.0  T
   3   -126.1876418  0.174337E-01  0.464E-01    0.14       1.0  T
   4   -126.2045553 -0.169134E-01  0.718E-02    0.14       1.0  T
   5   -126.2049844 -0.429155E-03  0.424E-02    0.12       1.0  T
   6   -126.2051419 -0.157463E-03  0.124E-02    0.12       1.0  T
   7   -126.2051608 -0.189227E-04  0.436E-03    0.12       2.5  T
   8   -126.2051618 -0.101058E-05  0.403E-03    0.12       2.7  T
   9   -126.2051629 -0.106995E-05  0.161E-03    0.12       6.7  T
  10   -126.2051631 -0.155971E-06  0.729E-04    0.12      14.7  T
  11   -126.2051631 -0.425001E-07  0.319E-04    0.12      33.6  T
     SCC iter.                  ...        0 min,  0.332 sec
     gradient                   ...        0 min,  0.041 sec
 * total energy  :  -124.2451767 Eh     change       -0.5899357E-03 Eh
   gradient norm :     0.0095938 Eh/α   predicted    -0.5186792E-03 ( -12.08%)
   displ. norm   :     0.4108534 α      lambda       -0.6046758E-03
   maximum displ.:     0.1386049 α      in ANC's #18, #33, #11, ...

........................................................................
.............................. CYCLE   30 ..............................
........................................................................

 iter      E             dE          RMSdq      gap      omega  full diag
   1   -126.2032314 -0.126203E+03  0.967E-02    0.13       0.0  T
   2   -126.2012048  0.202659E-02  0.167E-01    0.13       1.0  T
   3   -126.1980877  0.311708E-02  0.268E-01    0.13       1.0  T
   4   -126.2022506 -0.416283E-02  0.813E-02    0.14       1.0  T
   5   -126.2031704 -0.919804E-03  0.344E-02    0.13       1.0  T
   6   -126.2032189 -0.485178E-04  0.226E-02    0.13       1.0  T
   7   -126.2032625 -0.436038E-04  0.590E-03    0.13       1.8  T
   8   -126.2032642 -0.173294E-05  0.413E-03    0.13       2.6  T
   9   -126.2032653 -0.105145E-05  0.150E-03    0.13       7.2  T
  10   -126.2032654 -0.153058E-06  0.663E-04    0.13      16.2  T
  11   -126.2032655 -0.232763E-07  0.453E-04    0.13      23.7  T
     SCC iter.                  ...        0 min,  0.364 sec
     gradient                   ...        0 min,  0.042 sec
 * total energy  :  -124.2454605 Eh     change       -0.2837654E-03 Eh
   gradient norm :     0.0138826 Eh/α   predicted    -0.3533758E-03 (  24.53%)
   displ. norm   :     0.1786421 α      lambda       -0.4923753E-03
   maximum displ.:     0.0769127 α      in ANC's #1, #16, #30, ...

........................................................................
.............................. CYCLE   31 ..............................
........................................................................

 iter      E             dE          RMSdq      gap      omega  full diag
   1   -126.2083086 -0.126208E+03  0.590E-02    0.14       0.0  T
   2   -126.1934771  0.148315E-01  0.427E-01    0.13       1.0  T
   3   -126.2084626 -0.149855E-01  0.237E-02    0.13       1.0  T
   4   -126.2083786  0.839904E-04  0.323E-02    0.14       1.0  T
   5   -126.2084209 -0.422202E-04  0.207E-02    0.13       1.0  T
   6   -126.2084655 -0.446657E-04  0.472E-03    0.13       2.3  T
   7   -126.2084667 -0.116969E-05  0.333E-03    0.13       3.2  T
   8   -126.2084688 -0.212694E-05  0.128E-03    0.13       8.4  T
   9   -126.2084687  0.994975E-07  0.167E-03    0.13       6.4  T
  10   -126.2084689 -0.182505E-06  0.685E-04    0.13      15.6  T
  11   -126.2084689 -0.362244E-07  0.225E-04    0.13      47.7  T
     SCC iter.                  ...        0 min,  0.317 sec
     gradient                   ...        0 min,  0.040 sec
 * total energy  :  -124.2457515 Eh     change       -0.2910374E-03 Eh
   gradient norm :     0.0059408 Eh/α   predicted    -0.2540447E-03 ( -12.71%)
   displ. norm   :     0.3590897 α      lambda       -0.3207636E-03
   maximum displ.:     0.1303569 α      in ANC's #18, #11, #30, ...

........................................................................
.............................. CYCLE   32 ..............................
........................................................................

 iter      E             dE          RMSdq      gap      omega  full diag
   1   -126.2039610 -0.126204E+03  0.983E-02    0.13       0.0  T
   2   -126.2024897  0.147132E-02  0.146E-01    0.13       1.0  T
   3   -126.1962255  0.626422E-02  0.326E-01    0.13       1.0  T
   4   -126.2029964 -0.677088E-02  0.867E-02    0.14       1.0  T
   5   -126.2038943 -0.897888E-03  0.286E-02    0.13       1.0  T
   6   -126.2039652 -0.709294E-04  0.158E-02    0.13       1.0  T
   7   -126.2039756 -0.103728E-04  0.959E-03    0.13       1.1  T
   8   -126.2039821 -0.658187E-05  0.285E-03    0.13       3.8  T
   9   -126.2039824 -0.221544E-06  0.136E-03    0.13       7.9  T
  10   -126.2039826 -0.223671E-06  0.458E-04    0.13      23.4  T
  11   -126.2039826 -0.125525E-07  0.438E-04    0.13      24.5  T
     SCC iter.                  ...        0 min,  0.321 sec
     gradient                   ...        0 min,  0.036 sec
 * total energy  :  -124.2457451 Eh     change        0.6411091E-05 Eh
   gradient norm :     0.0108965 Eh/α   predicted    -0.1810649E-03 (*******%)
   displ. norm   :     0.1420534 α      lambda       -0.3768746E-03
   maximum displ.:     0.0722682 α      in ANC's #18, #16, #1, ...

........................................................................
.............................. CYCLE   33 ..............................
........................................................................

 iter      E             dE          RMSdq      gap      omega  full diag
   1   -126.2089658 -0.126209E+03  0.421E-02    0.13       0.0  T
   2   -126.2080682  0.897596E-03  0.111E-01    0.13       1.0  T
   3   -126.2086893 -0.621177E-03  0.653E-02    0.13       1.0  T
   4   -126.2089230 -0.233669E-03  0.243E-02    0.13       1.0  T
   5   -126.2089486 -0.256128E-04  0.169E-02    0.13       1.0  T
   6   -126.2089722 -0.236140E-04  0.564E-03    0.13       1.9  T
   7   -126.2089749 -0.262383E-05  0.197E-03    0.13       5.5  T
   8   -126.2089752 -0.311197E-06  0.722E-04    0.13      14.8  T
   9   -126.2089752 -0.151631E-07  0.635E-04    0.13      16.9  T
     SCC iter.                  ...        0 min,  0.283 sec
     gradient                   ...        0 min,  0.031 sec
 * total energy  :  -124.2459299 Eh     change       -0.1848500E-03 Eh
   gradient norm :     0.0049640 Eh/α   predicted    -0.1922399E-03 (   4.00%)
   displ. norm   :     0.0701276 α      lambda       -0.7914704E-04
   maximum displ.:     0.0228563 α      in ANC's #16, #33, #1, ...

........................................................................
.............................. CYCLE   34 ..............................
........................................................................

 iter      E             dE          RMSdq      gap      omega  full diag
   1   -126.2083338 -0.126208E+03  0.176E-02    0.13       0.0  T
   2   -126.2076053  0.728506E-03  0.974E-02    0.13       1.0  T
   3   -126.2083232 -0.717907E-03  0.177E-02    0.13       1.0  T
   4   -126.2083070  0.162431E-04  0.177E-02    0.13       1.0  T
   5   -126.2083342 -0.271975E-04  0.790E-03    0.13       1.4  T
   6   -126.2083393 -0.507245E-05  0.198E-03    0.13       5.4  T
   7   -126.2083395 -0.209102E-06  0.121E-03    0.13       8.9  T
   8   -126.2083397 -0.214739E-06  0.620E-04    0.13      17.3  T
   9   -126.2083397 -0.196832E-07  0.369E-04    0.13      29.0  T
     SCC iter.                  ...        0 min,  0.300 sec
     gradient                   ...        0 min,  0.035 sec
 * total energy  :  -124.2459561 Eh     change       -0.2620389E-04 Eh
   gradient norm :     0.0054077 Eh/α   predicted    -0.3976989E-04 (  51.77%)
   displ. norm   :     0.0883185 α      lambda       -0.7102244E-04
   maximum displ.:     0.0305474 α      in ANC's #1, #16, #9, ...

........................................................................
.............................. CYCLE   35 ..............................
........................................................................

 iter      E             dE          RMSdq      gap      omega  full diag
   1   -126.2076826 -0.126208E+03  0.210E-02    0.13       0.0  T
   2   -126.2060386  0.164403E-02  0.148E-01    0.13       1.0  T
   3   -126.2076740 -0.163539E-02  0.192E-02    0.13       1.0  T
   4   -126.2076738  0.215889E-06  0.137E-02    0.13       1.0  T
   5   -126.2076847 -0.109547E-04  0.751E-03    0.13       1.4  T
   6   -126.2076901 -0.537128E-05  0.654E-03    0.13       1.6  T
   7   -126.2076943 -0.422743E-05  0.182E-03    0.13       5.9  T
   8   -126.2076946 -0.265453E-06  0.590E-04    0.13      18.2  T
   9   -126.2076946 -0.245806E-07  0.442E-04    0.13      24.3  T
     SCC iter.                  ...        0 min,  0.291 sec
     gradient                   ...        0 min,  0.035 sec
 * total energy  :  -124.2460071 Eh     change       -0.5100231E-04 Eh
   gradient norm :     0.0031068 Eh/α   predicted    -0.3579310E-04 ( -29.82%)
   displ. norm   :     0.1633943 α      lambda       -0.7372363E-04
   maximum displ.:     0.0591866 α      in ANC's #16, #9, #1, ...

........................................................................
.............................. CYCLE   36 ..............................
........................................................................

 iter      E             dE          RMSdq      gap      omega  full diag
   1   -126.2074840 -0.126207E+03  0.316E-02    0.12       0.0  T
   2   -126.2046811  0.280294E-02  0.193E-01    0.12       1.0  T
   3   -126.2074414 -0.276029E-02  0.330E-02    0.12       1.0  T
   4   -126.2074543 -0.128642E-04  0.210E-02    0.12       1.0  T
   5   -126.2074593 -0.502471E-05  0.154E-02    0.12       1.0  T
   6   -126.2074989 -0.395635E-04  0.815E-03    0.12       1.3  T
   7   -126.2075048 -0.591034E-05  0.282E-03    0.12       3.8  T
   8   -126.2075054 -0.588885E-06  0.101E-03    0.12      10.7  T
   9   -126.2075054 -0.841868E-07  0.454E-04    0.12      23.6  T
  10   -126.2075054 -0.108409E-07  0.314E-04    0.12      34.1  T
     SCC iter.                  ...        0 min,  0.328 sec
     gradient                   ...        0 min,  0.035 sec
 * total energy  :  -124.2460515 Eh     change       -0.4434842E-04 Eh
   gradient norm :     0.0031615 Eh/α   predicted    -0.3784645E-04 ( -14.66%)
   displ. norm   :     0.1535139 α      lambda       -0.5088864E-04
   maximum displ.:     0.0605829 α      in ANC's #9, #5, #12, ...

........................................................................
.............................. CYCLE   37 ..............................
........................................................................

 iter      E             dE          RMSdq      gap      omega  full diag
   1   -126.2067677 -0.126207E+03  0.295E-02    0.12       0.0  T
   2   -126.2040299  0.273786E-02  0.191E-01    0.12       1.0  T
   3   -126.2067571 -0.272721E-02  0.252E-02    0.12       1.0  T
   4   -126.2067531  0.401959E-05  0.193E-02    0.12       1.0  T
   5   -126.2067460  0.709707E-05  0.144E-02    0.12       1.0  T
   6   -126.2067840 -0.380725E-04  0.697E-03    0.12       1.5  T
   7   -126.2067884 -0.430521E-05  0.243E-03    0.12       4.4  T
   8   -126.2067888 -0.456038E-06  0.862E-04    0.12      12.4  T
   9   -126.2067889 -0.664206E-07  0.360E-04    0.12      29.8  T
     SCC iter.                  ...        0 min,  0.285 sec
     gradient                   ...        0 min,  0.040 sec
 * total energy  :  -124.2460791 Eh     change       -0.2762841E-04 Eh
   gradient norm :     0.0038284 Eh/α   predicted    -0.2604523E-04 (  -5.73%)
   displ. norm   :     0.1696534 α      lambda       -0.5749350E-04
   maximum displ.:     0.0686050 α      in ANC's #9, #5, #12, ...

........................................................................
.............................. CYCLE   38 ..............................
........................................................................

 iter      E             dE          RMSdq      gap      omega  full diag
   1   -126.2068234 -0.126207E+03  0.250E-02    0.12       0.0  T
   2   -126.2060511  0.772280E-03  0.101E-01    0.12       1.0  T
   3   -126.2067658 -0.714698E-03  0.335E-02    0.12       1.0  T
   4   -126.2068112 -0.454783E-04  0.167E-02    0.12       1.0  T
   5   -126.2067929  0.183798E-04  0.147E-02    0.12       1.0  T
   6   -126.2068298 -0.369441E-04  0.431E-03    0.12       2.5  T
   7   -126.2068313 -0.147371E-05  0.177E-03    0.12       6.1  T
   8   -126.2068314 -0.644616E-07  0.136E-03    0.12       7.9  T
   9   -126.2068315 -0.168468E-06  0.321E-04    0.12      33.4  T
  10   -126.2068315 -0.104001E-07  0.137E-04    0.12      78.4  T
     SCC iter.                  ...        0 min,  0.333 sec
     gradient                   ...        0 min,  0.040 sec
 * total energy  :  -124.2461172 Eh     change       -0.3803993E-04 Eh
   gradient norm :     0.0037265 Eh/α   predicted    -0.2957493E-04 ( -22.25%)
   displ. norm   :     0.1679435 α      lambda       -0.5666979E-04
   maximum displ.:     0.0708692 α      in ANC's #5, #9, #12, ...

........................................................................
.............................. CYCLE   39 ..............................
........................................................................

 iter      E             dE          RMSdq      gap      omega  full diag
   1   -126.2077525 -0.126208E+03  0.225E-02    0.12       0.0  T
   2   -126.2074968  0.255783E-03  0.593E-02    0.12       1.0  T
   3   -126.2076004 -0.103672E-03  0.469E-02    0.12       1.0  T
   4   -126.2077293 -0.128841E-03  0.177E-02    0.13       1.0  T
   5   -126.2077172  0.121005E-04  0.197E-02    0.12       1.0  T
   6   -126.2077556 -0.384596E-04  0.233E-03    0.12       4.6  T
   7   -126.2077562 -0.532283E-06  0.198E-03    0.12       5.4  T
   8   -126.2077567 -0.488905E-06  0.782E-04    0.12      13.7  T
   9   -126.2077567  0.494155E-08  0.740E-04    0.12      14.5  T
     SCC iter.                  ...        0 min,  0.279 sec
     gradient                   ...        0 min,  0.040 sec
 * total energy  :  -124.2461590 Eh     change       -0.4185314E-04 Eh
   gradient norm :     0.0035452 Eh/α   predicted    -0.2913451E-04 ( -30.39%)
   displ. norm   :     0.1962387 α      lambda       -0.5539288E-04
   maximum displ.:     0.0906013 α      in ANC's #5, #9, #12, ...

........................................................................
.............................. CYCLE   40 ..............................
........................................................................

 iter      E             dE          RMSdq      gap      omega  full diag
   1   -126.2081632 -0.126208E+03  0.265E-02    0.13       0.0  T
   2   -126.2071575  0.100571E-02  0.115E-01    0.13       1.0  T
   3   -126.2081235 -0.966013E-03  0.297E-02    0.13       1.0  T
   4   -126.2081327 -0.921460E-05  0.202E-02    0.13       1.0  T
   5   -126.2081484 -0.157031E-04  0.175E-02    0.13       1.0  T
   6   -126.2081735 -0.250284E-04  0.290E-03    0.13       3.7  T
   7   -126.2081740 -0.553384E-06  0.286E-03    0.13       3.8  T
   8   -126.2081751 -0.111435E-05  0.789E-04    0.13      13.6  T
   9   -126.2081751  0.633030E-07  0.101E-03    0.13      10.6  T
  10   -126.2081752 -0.980038E-07  0.164E-04    0.13      65.3  T
  11   -126.2081752 -0.928978E-09  0.993E-05    0.13     107.9  T
     SCC iter.                  ...        0 min,  0.307 sec
     gradient                   ...        0 min,  0.040 sec
 * total energy  :  -124.2461998 Eh     change       -0.4079862E-04 Eh
   gradient norm :     0.0033735 Eh/α   predicted    -0.2876712E-04 ( -29.49%)
   displ. norm   :     0.1975071 α      lambda       -0.4917283E-04
   maximum displ.:     0.0951434 α      in ANC's #5, #9, #11, ...

........................................................................
.............................. CYCLE   41 ..............................
........................................................................

 iter      E             dE          RMSdq      gap      omega  full diag
   1   -126.2083899 -0.126208E+03  0.259E-02    0.13       0.0  T
   2   -126.2074460  0.943859E-03  0.111E-01    0.13       1.0  T
   3   -126.2083631 -0.917052E-03  0.267E-02    0.13       1.0  T
   4   -126.2083443  0.187768E-04  0.236E-02    0.14       1.0  T
   5   -126.2083853 -0.410055E-04  0.136E-02    0.13       1.0  T
   6   -126.2084000 -0.147032E-04  0.250E-03    0.13       4.3  T
   7   -126.2084002 -0.203216E-06  0.207E-03    0.13       5.2  T
   8   -126.2084007 -0.486622E-06  0.877E-04    0.13      12.2  T
   9   -126.2084007  0.465386E-08  0.814E-04    0.13      13.2  T
     SCC iter.                  ...        0 min,  0.292 sec
     gradient                   ...        0 min,  0.040 sec
 * total energy  :  -124.2462362 Eh     change       -0.3643573E-04 Eh
   gradient norm :     0.0030582 Eh/α   predicted    -0.2554851E-04 ( -29.88%)
   displ. norm   :     0.2241331 α      lambda       -0.4867341E-04
   maximum displ.:     0.1141201 α      in ANC's #5, #9, #7, ...

........................................................................
.............................. CYCLE   42 ..............................
........................................................................

 iter      E             dE          RMSdq      gap      omega  full diag
   1   -126.2076284 -0.126208E+03  0.269E-02    0.14       0.0  T
   2   -126.2070626  0.565834E-03  0.854E-02    0.13       1.0  T
   3   -126.2075555 -0.492898E-03  0.369E-02    0.13       1.0  T
   4   -126.2075443  0.111350E-04  0.300E-02    0.14       1.0  T
   5   -126.2076258 -0.814761E-04  0.111E-02    0.14       1.0  T
   6   -126.2076351 -0.930778E-05  0.292E-03    0.14       3.7  T
   7   -126.2076356 -0.537222E-06  0.180E-03    0.14       5.9  T
   8   -126.2076358 -0.194337E-06  0.101E-03    0.14      10.6  T
   9   -126.2076359 -0.434161E-07  0.711E-04    0.14      15.1  T
  10   -126.2076360 -0.742014E-07  0.146E-04    0.14      73.4  T
     SCC iter.                  ...        0 min,  0.342 sec
     gradient                   ...        0 min,  0.043 sec
 * total energy  :  -124.2462711 Eh     change       -0.3484582E-04 Eh
   gradient norm :     0.0029214 Eh/α   predicted    -0.2556441E-04 ( -26.64%)
   displ. norm   :     0.1946738 α      lambda       -0.4604908E-04
   maximum displ.:     0.1042719 α      in ANC's #5, #9, #11, ...
 * RMSD in coord.:     0.4259668 α      energy gain  -0.5550157E-02 Eh

generating ANC from exact Hessian ...
Using Lindh-Hessian (1995)
 Shifting diagonal of input Hessian by    1.0654245907121598E-002
 Lowest  eigenvalues of input Hessian
    0.010000    0.000000    0.000000    0.000000    0.000000    0.000000
    0.000000    0.010728    0.010764    0.010796    0.010819    0.010860
    0.010883    0.011063    0.011102    0.011235    0.011506    0.011635
 Highest eigenvalues
    2.095993    2.105061    2.107114    2.111479    2.119253    2.196247


........................................................................
.............................. CYCLE   43 ..............................
........................................................................

 iter      E             dE          RMSdq      gap      omega  full diag
   1   -126.2080367 -0.126208E+03  0.229E-02    0.14       0.0  T
   2   -126.2079339  0.102845E-03  0.368E-02    0.14       1.0  T
   3   -126.2076785  0.255419E-03  0.710E-02    0.14       1.0  T
   4   -126.2079666 -0.288121E-03  0.259E-02    0.14       1.0  T
   5   -126.2080355 -0.688902E-04  0.628E-03    0.14       1.7  T
   6   -126.2080348  0.680225E-06  0.675E-03    0.14       1.6  T
[...]
     9   6 C        3.129     0.062    26.415     8.415
    10   6 C        3.113     0.062    26.456     8.426
    11   6 C        3.049    -0.010    28.213     8.711
    12   6 C        3.051    -0.012    28.260     8.719
    13   6 C        3.114     0.073    26.209     8.386
    14   6 C        3.105     0.059    26.537     8.441
    15   6 C        3.061    -0.017    28.373     8.735
    16   6 C        3.048    -0.016    28.353     8.733
    17   6 C        3.113     0.060    26.513     8.435
    18   6 C        3.102     0.067    26.378     8.416
    19   6 C        3.055    -0.012    28.264     8.719
    20   6 C        3.045    -0.003    28.054     8.687
    21   6 C        3.109     0.073    26.231     8.391
    22   6 C        2.900    -0.057    29.408     8.892
    23   1 H        0.926     0.065     2.138     2.287
    24   6 C        2.899    -0.061    29.503     8.906
    25   1 H        0.926     0.064     2.152     2.294
    26   6 C        2.900    -0.066    29.633     8.926
    27   1 H        0.926     0.059     2.210     2.325
    28   6 C        2.899    -0.064    29.588     8.919
    29   1 H        0.926     0.058     2.224     2.332
    30   6 C        3.754    -0.110    22.655     6.787
    31   1 H        0.925     0.054     2.266     2.354
    32   1 H        0.925     0.058     2.225     2.332
    33   1 H        0.925     0.056     2.248     2.345
    34   6 C        3.754    -0.108    22.632     6.784
    35   1 H        0.925     0.055     2.258     2.350
    36   1 H        0.925     0.050     2.317     2.381
    37   1 H        0.925     0.054     2.265     2.353
    38   6 C        3.754    -0.111    22.689     6.792
    39   1 H        0.924     0.060     2.195     2.317
    40   1 H        0.925     0.052     2.292     2.368
    41   1 H        0.925     0.062     2.180     2.309
    42   6 C        2.888    -0.027    28.674     8.779
    43   1 H        0.925     0.043     2.414     2.430
    44   6 C        2.839    -0.082    30.033     8.981
    45   1 H        0.926     0.056     2.248     2.345
    46   1 H        0.926     0.053     2.284     2.363
    47   6 C        3.753    -0.108    22.620     6.782
    48   1 H        0.924     0.054     2.266     2.354
    49   1 H        0.925     0.046     2.366     2.406
    50   1 H        0.925     0.060     2.200     2.319
    51   6 C        2.889    -0.025    28.633     8.773
    52   1 H        0.925     0.041     2.439     2.442
    53   6 C        2.839    -0.083    30.055     8.984
    54   1 H        0.926     0.056     2.249     2.345
    55   1 H        0.926     0.051     2.310     2.377
    56   6 C        3.754    -0.109    22.643     6.785
    57   1 H        0.925     0.054     2.264     2.353
    58   1 H        0.925     0.054     2.270     2.356
    59   1 H        0.925     0.055     2.260     2.351
    60   6 C        3.754    -0.110    22.669     6.789
    61   1 H        0.925     0.056     2.250     2.346
    62   1 H        0.925     0.054     2.269     2.356
    63   1 H        0.925     0.057     2.232     2.337
    64   6 C        3.754    -0.122    22.894     6.823
    65   1 H        0.925     0.067     2.122     2.278
    66   1 H        0.925     0.067     2.120     2.277
    67   1 H        0.925     0.069     2.100     2.266
    68   7 N        2.827    -0.078    22.752     7.084
    69   1 H        0.860     0.186     1.182     1.703
    70   6 C        3.067     0.045    26.918     8.507
    71   6 C        3.120     0.084    25.962     8.345
    72   1 H        0.926     0.059     2.213     2.326
    73   7 N        2.249    -0.194    25.582     7.507
    74   6 C        3.143     0.002    27.738     8.618
    75   1 H        0.926     0.054     2.265     2.353
    76   6 C        3.789    -0.110    22.619     6.774
    77   1 H        0.925     0.058     2.228     2.334
    78   1 H        0.925     0.050     2.315     2.379
    79   1 H        0.925     0.061     2.188     2.313
    80   6 C        3.792    -0.016    20.870     6.506
    81   1 H        0.925     0.051     2.308     2.376
    82   1 H        0.925     0.064     2.156     2.296
    83  16 S        2.118    -0.075   144.157    20.208
    84   6 C        3.744    -0.070    21.922     6.679
    85   1 H        0.925     0.063     2.165     2.301
    86   1 H        0.925     0.074     2.039     2.233
    87   1 H        0.925     0.072     2.068     2.249

 Mol. C6AA /au·bohr⁶  :      87273.765268
 Mol. C8AA /au·bohr⁸  :    2177041.287274
 Mol. α(0) /au        :        470.939076


Wiberg/Mayer (AO) data.
largest (>0.10) Wiberg bond orders for each atom

 ---------------------------------------------------------------------------
     #   Z sym  total        # sym  WBO       # sym  WBO       # sym  WBO
 ---------------------------------------------------------------------------
     1  26 Fe   3.817 --     4 N    0.694     2 N    0.673     3 N    0.629
                             5 N    0.619    73 N    0.349    83 S    0.218
     2   7 N    3.429 --     9 C    1.265     6 C    1.187     1 Fe   0.673
     3   7 N    3.385 --    13 C    1.274    10 C    1.158     1 Fe   0.629
     4   7 N    3.423 --    17 C    1.220    14 C    1.213     1 Fe   0.694
     5   7 N    3.378 --    21 C    1.249    18 C    1.185     1 Fe   0.619
     6   6 C    3.913 --    22 C    1.335     7 C    1.202     2 N    1.187
     7   6 C    3.912 --     8 C    1.433     6 C    1.202    30 C    1.042
     8   6 C    3.916 --     7 C    1.433     9 C    1.224    34 C    1.038
     9   6 C    3.908 --     2 N    1.265     8 C    1.224    24 C    1.203
    10   6 C    3.927 --    24 C    1.471     3 N    1.158    11 C    1.118
    11   6 C    3.938 --    12 C    1.581    10 C    1.118    60 C    1.040
    12   6 C    3.939 --    11 C    1.581    13 C    1.120    56 C    1.039
    13   6 C    3.925 --    26 C    1.332     3 N    1.274    12 C    1.120
    14   6 C    3.926 --    26 C    1.318     4 N    1.213    15 C    1.189
    15   6 C    3.914 --    16 C    1.310    14 C    1.189    51 C    1.158
    16   6 C    3.903 --    15 C    1.310    17 C    1.300    47 C    1.041
    17   6 C    3.924 --    16 C    1.300     4 N    1.220    28 C    1.183
    18   6 C    3.935 --    28 C    1.471     5 N    1.185    19 C    1.095
    19   6 C    3.942 --    20 C    1.503    42 C    1.120    18 C    1.095
    20   6 C    3.938 --    19 C    1.503    21 C    1.155    38 C    1.043
    21   6 C    3.931 --    22 C    1.328     5 N    1.249    20 C    1.155
    22   6 C    3.882 --     6 C    1.335    21 C    1.328    23 H    0.957
    23   1 H    0.994 --    22 C    0.957
    24   6 C    3.887 --    10 C    1.471     9 C    1.203    25 H    0.959
    25   1 H    0.994 --    24 C    0.959
    26   6 C    3.887 --    13 C    1.332    14 C    1.318    27 H    0.956
    27   1 H    0.995 --    26 C    0.956
    28   6 C    3.877 --    18 C    1.471    17 C    1.183    29 H    0.955
    29   1 H    0.995 --    28 C    0.955
    30   6 C    3.988 --     7 C    1.042    33 H    0.977    32 H    0.964
                            31 H    0.963
    31   1 H    0.989 --    30 C    0.963
    32   1 H    0.989 --    30 C    0.964
    33   1 H    0.996 --    30 C    0.977
    34   6 C    3.989 --     8 C    1.038    37 H    0.978    36 H    0.968
                            35 H    0.965
    35   1 H    0.989 --    34 C    0.965
    36   1 H    0.991 --    34 C    0.968
    37   1 H    0.996 --    34 C    0.978
    38   6 C    3.990 --    20 C    1.043    41 H    0.973    40 H    0.972
                            39 H    0.958
    39   1 H    0.989 --    38 C    0.958
    40   1 H    0.994 --    38 C    0.972
    41   1 H    0.994 --    38 C    0.973
    42   6 C    3.981 --    44 C    1.863    19 C    1.120    43 H    0.955
    43   1 H    0.996 --    42 C    0.955
    44   6 C    3.936 --    42 C    1.863    46 H    0.977    45 H    0.973
    45   1 H    0.997 --    44 C    0.973
    46   1 H    0.996 --    44 C    0.977
    47   6 C    3.989 --    16 C    1.041    49 H    0.974    50 H    0.972
                            48 H    0.959
    48   1 H    0.986 --    47 C    0.959
    49   1 H    0.995 --    47 C    0.974
    50   1 H    0.993 --    47 C    0.972
    51   6 C    3.971 --    53 C    1.810    15 C    1.158    52 H    0.955
    52   1 H    0.996 --    51 C    0.955
    53   6 C    3.887 --    51 C    1.810    55 H    0.978    54 H    0.973
    54   1 H    0.997 --    53 C    0.973
    55   1 H    0.997 --    53 C    0.978
    56   6 C    3.991 --    12 C    1.039    57 H    0.978    58 H    0.966
                            59 H    0.965
    57   1 H    0.996 --    56 C    0.978
    58   1 H    0.991 --    56 C    0.966
    59   1 H    0.991 --    56 C    0.965
    60   6 C    3.991 --    11 C    1.040    61 H    0.978    62 H    0.967
                            63 H    0.964
    61   1 H    0.996 --    60 C    0.978
    62   1 H    0.992 --    60 C    0.967
    63   1 H    0.991 --    60 C    0.964
    64   6 C    3.991 --    70 C    1.036    67 H    0.981    65 H    0.967
                            66 H    0.967
    65   1 H    0.995 --    64 C    0.967
    66   1 H    0.995 --    64 C    0.967
    67   1 H    0.995 --    64 C    0.981
    68   7 N    3.605 --    71 C    1.284    70 C    1.194    69 H    0.937
                            73 N    0.101
    69   1 H    0.965 --    68 N    0.937
    70   6 C    3.947 --    74 C    1.557    68 N    1.194    64 C    1.036
                            71 C    0.107
    71   6 C    3.958 --    73 N    1.512    68 N    1.284    72 H    0.959
                            70 C    0.107
    72   1 H    0.996 --    71 C    0.959
    73   7 N    3.319 --    71 C    1.512    74 C    1.268     1 Fe   0.349
                            68 N    0.101
    74   6 C    3.965 --    70 C    1.557    73 N    1.268    75 H    0.963
    75   1 H    0.997 --    74 C    0.963
    76   6 C    3.990 --    80 C    1.027    79 H    0.985    78 H    0.980
                            77 H    0.978
    77   1 H    0.996 --    76 C    0.978
    78   1 H    0.997 --    76 C    0.980
    79   1 H    0.996 --    76 C    0.985
    80   6 C    3.971 --    76 C    1.027    83 S    0.975    82 H    0.971
                            81 H    0.968
    81   1 H    0.996 --    80 C    0.968
    82   1 H    0.994 --    80 C    0.971
    83  16 S    2.363 --    84 C    1.009    80 C    0.975     1 Fe   0.218
    84   6 C    3.972 --    83 S    1.009    86 H    0.978    87 H    0.978
                            85 H    0.976
    85   1 H    0.995 --    84 C    0.976
    86   1 H    0.993 --    84 C    0.978
    87   1 H    0.994 --    84 C    0.978
 ---------------------------------------------------------------------------

Topologies differ in total number of bonds
Writing topology from bond orders to xtbtopo.mol

molecular dipole:
                 x           y           z       tot (Debye)
 q only:       21.979      45.019       4.455
   full:       22.377      44.722       4.597     127.642
molecular quadrupole (traceless):
                xx          xy          yy          xz          yz          zz
 q only:     -537.441    1490.233    1768.462     145.648     302.102   -1231.021
  q+dip:     -504.684    1512.253    1733.780     148.918     314.307   -1229.096
   full:     -503.612    1510.615    1730.451     153.298     313.130   -1226.839

           -------------------------------------------------
          |                Geometry Summary                 |
           -------------------------------------------------

      molecular mass/u    :      658.6808909
   center of mass at/Å    :       11.1147948      23.7821669       2.0706989
  moments of inertia/u·Å² :        0.6530119E+04   0.6772023E+04   0.8844641E+04
rotational constants/cm⁻¹ :        0.2581520E-02   0.2489305E-02   0.1905971E-02

 * 85 selected distances

     #   Z          #   Z                                           value/Å
     2   7 N        6   6 C                                       1.3756615
     6   6 C        7   6 C                                       1.4288699
     7   6 C        8   6 C                                       1.3855257
     2   7 N        9   6 C                                       1.3583375
     8   6 C        9   6 C                                       1.4238211
     3   7 N       10   6 C                                       1.3801432
    10   6 C       11   6 C                                       1.4498154
    11   6 C       12   6 C                                       1.3634724
     3   7 N       13   6 C                                       1.3533339
    12   6 C       13   6 C                                       1.4495632
     4   7 N       14   6 C                                       1.3709379
    14   6 C       15   6 C                                       1.4328218
    15   6 C       16   6 C                                       1.4078379
     4   7 N       17   6 C                                       1.3701675
    16   6 C       17   6 C                                       1.4090981
     5   7 N       18   6 C                                       1.3719689
    19   6 C       20   6 C                                       1.3751118
     5   7 N       21   6 C                                       1.3592735
    20   6 C       21   6 C                                       1.4412985
     6   6 C       22   6 C                                       1.3912497
    21   6 C       22   6 C                                       1.3890358
    22   6 C       23   1 H                                       1.0786142
     9   6 C       24   6 C                                       1.4154719
    10   6 C       24   6 C                                       1.3664301
    24   6 C       25   1 H                                       1.0788865
    13   6 C       26   6 C                                       1.3882116
    14   6 C       26   6 C                                       1.3951371
    26   6 C       27   1 H                                       1.0781895
    17   6 C       28   6 C                                       1.4212319
    18   6 C       28   6 C                                       1.3663498
    28   6 C       29   1 H                                       1.0784517
     7   6 C       30   6 C                                       1.4852532
    30   6 C       31   1 H                                       1.0901410
    30   6 C       32   1 H                                       1.0897222
    30   6 C       33   1 H                                       1.0859839
     8   6 C       34   6 C                                       1.4870981
    34   6 C       35   1 H                                       1.0900677
    34   6 C       36   1 H                                       1.0898133
    34   6 C       37   1 H                                       1.0859349
    20   6 C       38   6 C                                       1.4847068
    38   6 C       39   1 H                                       1.0907187
    38   6 C       40   1 H                                       1.0880583
    38   6 C       41   1 H                                       1.0875365
    42   6 C       43   1 H                                       1.0828791
    42   6 C       44   6 C                                       1.3311814
    44   6 C       45   1 H                                       1.0755798
    44   6 C       46   1 H                                       1.0761799
    16   6 C       47   6 C                                       1.4861692
    47   6 C       48   1 H                                       1.0914401
    47   6 C       49   1 H                                       1.0877776
    47   6 C       50   1 H                                       1.0876807
    15   6 C       51   6 C                                       1.4340351
    51   6 C       52   1 H                                       1.0829133
    51   6 C       53   6 C                                       1.3365551
    53   6 C       54   1 H                                       1.0746969
    53   6 C       55   1 H                                       1.0760848
    12   6 C       56   6 C                                       1.4858812
    56   6 C       57   1 H                                       1.0860266
    56   6 C       58   1 H                                       1.0897026
    56   6 C       59   1 H                                       1.0898708
    11   6 C       60   6 C                                       1.4854916
    60   6 C       61   1 H                                       1.0859706
    60   6 C       62   1 H                                       1.0893743
    60   6 C       63   1 H                                       1.0898674
    64   6 C       65   1 H                                       1.0895272
    64   6 C       66   1 H                                       1.0895385
    64   6 C       67   1 H                                       1.0854446
    68   7 N       69   1 H                                       1.0077473 (min)
    64   6 C       70   6 C                                       1.4823591
    68   7 N       70   6 C                                       1.3700953
    68   7 N       71   6 C                                       1.3475119
    71   6 C       72   1 H                                       1.0715601
    71   6 C       73   7 N                                       1.3101743
    70   6 C       74   6 C                                       1.3666467
    73   7 N       74   6 C                                       1.3650891
    74   6 C       75   1 H                                       1.0709153
    76   6 C       77   1 H                                       1.0875566
    76   6 C       78   1 H                                       1.0872835
    76   6 C       79   1 H                                       1.0869640
    76   6 C       80   6 C                                       1.5153970 (max)
    80   6 C       81   1 H                                       1.0908098
    80   6 C       82   1 H                                       1.0900665
    84   6 C       85   1 H                                       1.0858639
    84   6 C       86   1 H                                       1.0864368
    84   6 C       87   1 H                                       1.0848299

 * 4 distinct bonds (by element types)

   Z      Z             #   av. dist./Å        max./Å        min./Å
   1 H    6 C          41     1.0849990     1.0914401     1.0709153
   6 C    6 C          31     1.4219719     1.5153970     1.3311814
   1 H    7 N           1     1.0077473     1.0077473     1.0077473
   6 C    7 N          12     1.3610579     1.3801432     1.3101743


optimized geometry written to: xtbopt.xyz


           -------------------------------------------------
          | TOTAL ENERGY             -124.248194745172 Eh   |
          | GRADIENT NORM               0.000036562214 Eh/α |
          | HOMO-LUMO GAP               0.163127220559 eV   |
           -------------------------------------------------

------------------------------------------------------------------------
 * finished run on 2026/01/12 at 14:00:20.011     
------------------------------------------------------------------------
 total:
 * wall-time:     0 d,  0 h,  0 min, 49.122 sec
 *  cpu-time:     0 d,  0 h,  5 min, 40.698 sec
 * ratio c/w:     6.936 speedup
 SCF:
 * wall-time:     0 d,  0 h,  0 min,  0.933 sec
 *  cpu-time:     0 d,  0 h,  0 min,  5.641 sec
 * ratio c/w:     6.044 speedup
 ANC optimizer:
 * wall-time:     0 d,  0 h,  0 min, 48.157 sec
 *  cpu-time:     0 d,  0 h,  5 min, 34.672 sec
 * ratio c/w:     6.950 speedup


=== STDERR ===
normal termination of xtb
Note: The following floating-point exceptions are signalling: IEEE_UNDERFLOW_FLAG IEEE_DENORMAL
