87
 energy: -127.830910939597 gnorm: 0.329885783228 xtb: 6.7.1 (edcfbbe)
Fe          13.71300000000000       28.90700000000000       74.83600000000000
N           15.20200000000000       29.74000000000000       73.83100000000000
N           12.43000000000000       30.00700000000000       73.85700000000000
N           12.20900000000000       28.04700000000000       75.82899999999999
N           14.99300000000000       27.85600000000000       75.83300000000000
C           16.54700000000000       29.43700000000000       73.89700000000001
C           17.35000000000000       30.32900000000000       73.08899999999998
C           16.49500000000000       31.16600000000000       72.50500000000000
C           15.14900000000000       30.78700000000000       72.95300000000000
C           12.70100000000000       31.07900000000000       73.02599999999998
C           11.48300000000000       31.73500000000000       72.59600000000000
C           10.45000000000000       31.02700000000000       73.14000000000000
C           11.04300000000000       29.95100000000000       73.90000000000001
C           10.86200000000000       28.16400000000000       75.59300000000000
C           10.09000000000000       27.33800000000000       76.51900000000001
C           10.98500000000000       26.79200000000000       77.39100000000001
C           12.30400000000000       27.21800000000000       76.91499999999999
C           14.76300000000000       27.02700000000000       76.91599999999998
C           15.99300000000000       26.42700000000000       77.39700000000001
C           16.98700000000000       26.85100000000000       76.58000000000000
C           16.37100000000000       27.74700000000000       75.63600000000000
C           17.08000000000000       28.48600000000000       74.71899999999998
H           18.15100000000000       28.29800000000000       74.64200000000000
C           13.97500000000000       31.41900000000000       72.59099999999998
H           14.05600000000000       32.26000000000000       71.90199999999999
C           10.31900000000000       29.05600000000000       74.67400000000001
H            9.23600000000000       29.05099999999999       74.55200000000001
C           13.49600000000000       26.76500000000000       77.42200000000000
H           13.44300000000000       26.13700000000000       78.31100000000001
C           18.86900000000000       30.35300000000000       72.95099999999999
H           18.97100000000000       29.30000000000000       72.61100000000000
H           19.08400000000000       30.40200000000000       74.04000000000001
H           19.59300000000000       30.98400000000000       72.39200000000000
C           16.86500000000000       32.31300000000000       71.57700000000000
H           16.37200000000000       33.11600000000000       72.16500000000001
H           16.18700000000000       32.00100000000000       70.75400000000000
H           17.81500000000000       32.70600000000000       71.15700000000000
C           18.44900000000000       26.39400000000000       76.61700000000000
H           18.59500000000000       26.70900000000000       77.67200000000000
H           19.40100000000000       26.53900000000000       76.06200000000000
H           18.15800000000000       25.32200000000000       76.59799999999998
C           16.17000000000000       25.48800000000000       78.59000000000000
H           16.23500000000000       24.40900000000000       78.38599999999998
C           17.00400000000000       26.04000000000000       79.73999999999999
H           16.97600000000000       27.11200000000000       79.98599999999999
H           17.64300000000000       25.37300000000000       80.33700000000000
C           10.69000000000000       25.92500000000000       78.60199999999999
H           11.30100000000000       26.53500000000000       79.30100000000000
H           11.27700000000000       25.03400000000000       78.29399999999998
H            9.76000000000000       25.60700000000000       79.12000000000000
C            8.59000000000000       27.07000000000000       76.41199999999999
H            8.26100000000000       26.86100000000000       75.39400000000001
C            7.71000000000000       27.58599999999999       77.53400000000001
H            8.13000000000000       27.76900000000000       78.53400000000001
H            6.64200000000000       27.78300000000000       77.36000000000000
C            8.95900000000000       31.31400000000000       72.99100000000000
H            7.98200000000000       31.05099999999999       73.44900000000000
H            8.93500000000000       31.04700000000000       71.91300000000000
H            9.13000000000000       32.40500000000000       73.10800000000000
C           11.37600000000000       32.95700000000000       71.67400000000001
H           10.68300000000000       33.46900000000000       72.37500000000000
H           10.77900000000000       32.39700000000000       70.92300000000000
H           12.00500000000000       33.72000000000000       71.16700000000000
C           12.92000000000000       32.89700000000000       78.75000000000000
H           13.56300000000000       33.80200000000000       78.77600000000000
H           12.88800000000000       32.44900000000000       79.76599999999999
H           11.89700000000000       33.19100000000000       78.43200000000000
N           14.74400000000000       31.35800000000000       77.88799999999999
H           15.41900000000000       31.59600000000000       78.58700000000000
C           13.48700000000000       31.90900000000000       77.77900000000000
C           14.89300000000000       30.46099999999999       76.90300000000001
H           15.80000000000000       29.87200000000000       76.76500000000000
N           13.81300000000000       30.39800000000000       76.14900000000000
C           12.92200000000000       31.31700000000000       76.69799999999998
H           11.94600000000000       31.46300000000000       76.25200000000000
C           13.70400000000000       23.99700000000000       72.05599999999998
H           14.55100000000000       23.85100000000000       71.35200000000000
H           12.76200000000000       23.68500000000000       71.55599999999998
H           13.87600000000000       23.37600000000000       72.96100000000000
N           13.41800000000000       26.46700000000000       71.53900000000000
H           13.31800000000000       26.35500000000000       70.54999999999998
C           13.61800000000000       25.44200000000000       72.44199999999999
C           13.38400000000000       27.62200000000000       72.22499999999999
H           13.23800000000000       28.59300000000000       71.75200000000000
N           13.54800000000000       27.41200000000000       73.51600000000001
C           13.69700000000000       26.03400000000000       73.65699999999998
H           13.84900000000000       25.60000000000000       74.63800000000001
87
 energy: -127.971686273032 gnorm: 0.184357158070 xtb: 6.7.1 (edcfbbe)
Fe          13.70926062067282       28.90374622759924       74.83530659600882
N           15.22053611499744       29.74722705559423       73.81811452419312
N           12.42488355987750       30.00642182140264       73.85021794179421
N           12.19079087061128       28.04450832025124       75.84216923319624
N           15.00274896325016       27.83961928811875       75.84284017071543
C           16.55649825347473       29.44264136260153       73.89658342919066
C           17.35545692780289       30.33471700585408       73.08229811572127
C           16.49477270173005       31.17652613510129       72.49765387265386
C           15.15468914833388       30.79880789280007       72.94956946135166
C           12.71023879535646       31.06905771143355       73.02689933473755
C           11.50359912650227       31.72446493680904       72.60494873007771
C           10.46225782933194       31.01506411460706       73.15833237508072
C           11.05102723759695       29.94726244083932       73.91461165677866
C           10.85211248438640       28.15505906731728       75.58592585744465
C           10.06929974433438       27.33680716722736       76.51075604478261
C           10.96590064327297       26.79617808135063       77.38192341977812
C           12.29249571561230       27.21358685396359       76.92133240031251
C           14.76068594051118       27.02369110040276       76.92462064393834
C           15.99055355638280       26.43064591139471       77.41422619065564
C           16.98087875506705       26.85551633769375       76.56631728707374
C           16.36489502450713       27.74352770941850       75.62988566218847
C           17.08528607969600       28.47840433884643       74.71411697794993
H           18.15105361367226       28.29653842793997       74.64866974826160
C           13.97767180597135       31.42426104018568       72.58994479605748
H           14.05115048366740       32.26006610920362       71.90369351481264
C           10.31781208904397       29.04656072563738       74.67130515361767
H            9.23958244830531       29.05623194653352       74.55592134218369
C           13.49493818624497       26.76398442367838       77.43525134200210
H           13.44707161662354       26.13141430165502       78.31277091889307
C           18.86118329685952       30.31329815380747       72.97939649541017
H           19.01343973481212       29.28926426628133       72.61999091719062
H           19.12620640508820       30.38892311134484       74.04046617559260
H           19.52190288175375       30.98299784036742       72.40020204596141
C           16.81311816367851       32.32118672097693       71.57564741533163
H           16.36459883484696       33.14915836999263       72.13533769634705
H           16.18153823590580       32.04233015435813       70.72558933506383
H           17.79718889386243       32.65229236424018       71.19847768872810
C           18.42080926163217       26.37890124897240       76.65082991197865
H           18.62998246467509       26.67962575851806       77.68511485913533
H           19.32925075855510       26.56895963869433       76.05052375162897
H           18.20368059692867       25.30350099334360       76.61718289798849
C           16.24655689885270       25.53209701602319       78.59934354598523
H           16.23471164664539       24.44808960974202       78.40514153631379
C           16.97923117693089       26.01972783603196       79.69069028857800
H           16.97202150933961       27.07988411602123       79.95521697962342
H           17.59161424214040       25.37353537719635       80.32439018270942
C           10.73443985255286       25.93178026029575       78.59706389499975
H           11.30811285529591       26.50624499763069       79.33513356010066
H           11.28066973478019       25.01931688357222       78.32701361627633
H            9.77449945679045       25.64247787938509       79.06019825455439
C            8.58491602907924       27.14959267332743       76.44906312834503
H            8.24560752335644       26.87702130550752       75.44283013410653
C            7.74551549766177       27.56920503108991       77.48624436354743
H            8.13700868848999       27.76622285866515       78.48675612553886
H            6.67549099810988       27.74608160503946       77.34965243360142
C            8.99139216003910       31.33851554575383       72.96254149140115
H            8.05693733809154       31.02524647513544       73.46459304921171
H            8.90009912097630       31.07444667834930       71.89988222716619
H            9.08062318492695       32.42569568127972       73.08151553373044
C           11.33386387311348       32.93248042501438       71.69154448986382
H           10.65852532173852       33.50409203954396       72.34184729639622
H           10.75581293311737       32.43632014654757       70.90033697509472
H           12.02329900885909       33.65450449662505       71.21429564289667
C           12.92468995232487       32.89640583038361       78.74581580466715
H           13.55477833404474       33.79494010509492       78.77909145917847
H           12.88657100302013       32.45836722552799       79.75311780220596
H           11.91279685939634       33.18573542531276       78.43819718473293
N           14.74030097525690       31.36322980874927       77.89312273923039
H           15.41936675465261       31.60144167424057       78.59372769500665
C           13.48341876755085       31.90779989857048       77.78008086450657
C           14.89553447902867       30.46749841747141       76.90731767066269
H           15.79356503030901       29.88490667991937       76.76781132301589
N           13.81633224795256       30.39461957982170       76.16120951091690
C           12.92474346499338       31.30637709121893       76.69384311235596
H           11.95491584579349       31.45543607798893       76.25189226399989
C           13.70451061710625       24.00305620455984       72.05483474695086
H           14.54024689080260       23.84923581735639       71.35861250367383
H           12.77532029693796       23.68509526626920       71.56228398530146
H           13.87160213061028       23.38603962992549       72.94607239990090
N           13.41796282886728       26.46131674344142       71.54013659082356
H           13.31731729390881       26.35060045432040       70.54645429242632
C           13.61689410235697       25.44072282298314       72.44250853930194
C           13.38592160947526       27.61860765483564       72.22320104807871
H           13.24050348847712       28.58263107916250       71.75765998259850
N           13.55493181304361       27.40989581093415       73.50880718414703
C           13.69663880437441       26.04364078265146       73.65903515163758
H           13.84713949339204       25.60884450512520       74.63190546282944
87
 energy: -128.041642464776 gnorm: 0.116460175410 xtb: 6.7.1 (edcfbbe)
Fe          13.70165559254623       28.90031574013461       74.83360376480110
N           15.24005748415808       29.75503338057013       73.80676044392408
N           12.41665569340157       30.00865977487728       73.84299159405478
N           12.17320039861916       28.03700695130632       75.85402567808261
N           15.01332609219962       27.82062589170278       75.85312347808718
C           16.56439790967736       29.44808669980465       73.89553273136154
C           17.36328597186411       30.34105155848305       73.07608708143256
C           16.49703187402793       31.18760062910804       72.49102575345761
C           15.16240382439275       30.80863544091907       72.94701804116718
C           12.71431796350635       31.06395253544223       73.02556842976274
C           11.51439992672242       31.72017561357379       72.60713049561430
C           10.46588614705061       31.00938046481133       73.16861079392461
C           11.05393916861568       29.94802690745227       73.92500745142212
C           10.84281443821884       28.14801618354425       75.58662455071558
C           10.05475537621067       27.33225730517787       76.51366410498024
C           10.95464237460971       26.79726554890760       77.38181123460730
C           12.28379336211058       27.20759522444980       76.92614787074581
C           14.75846698914363       27.02219735210845       76.93566333488057
C           15.98667904748993       26.43651820144357       77.43347169074696
C           16.97732494438098       26.85604785995692       76.56291904263816
C           16.35988949273421       27.73462297535610       75.62540485501405
C           17.08914871176479       28.46901436421775       74.70817143951982
H           18.15135979607258       28.29328414379330       74.65589036007385
C           13.98120031327128       31.42942221227139       72.58926338103285
H           14.04638237383217       32.26178082269102       71.90566609575673
C           10.31493730020339       29.03777715354274       74.67066202823321
H            9.24089287305390       29.06122615193314       74.55999552622265
C           13.49255741367154       26.76427173169406       77.44798888528594
H           13.44952985198017       26.12580335195150       78.31607447917352
C           18.85257135871419       30.27519434453676       73.00656369478510
H           19.05806357930074       29.27587040150206       72.63148436236770
H           19.17026584069415       30.37233179338546       74.04250806105117
H           19.44116505266335       30.98627935823252       72.40493277917896
C           16.76166646679303       32.32896192441534       71.57458227393423
H           16.35286754819156       33.18729142030085       72.10094911867789
H           16.17235001980809       32.08958976750946       70.69406104251021
H           17.78125606122507       32.59026058907260       71.24601833626278
C           18.39125139361801       26.36232483601753       76.68657021930925
H           18.66513395668688       26.65140185597967       77.69992808282076
H           19.24399527035893       26.60992936402170       76.03019979023117
H           18.24832335800030       25.28212948132841       76.63941820697137
C           16.31241618731625       25.56703744962086       78.60405129741406
H           16.23946908658018       24.48498058574385       78.40960804876691
C           16.95149931238758       26.00510251195832       79.64251995516459
H           16.98625657454006       27.05951624125593       79.91482368217812
H           17.52466012548483       25.37122506161644       80.32082269833661
C           10.77720903476219       25.93652089879307       78.59257265263120
H           11.31689308790818       26.47696045792533       79.36837765971353
H           11.28757970534502       25.00349815628517       78.35887001946621
H            9.78255819253960       25.68411576094246       78.99178397679417
C            8.58178559646245       27.20698339197841       76.47677148675115
H            8.22969213420886       26.90747318453271       75.48014403804366
C            7.78836374956280       27.56400583374334       77.43990313984602
H            8.14827573945727       27.78229605088291       78.44436734243305
H            6.70937463351412       27.69420460015941       77.34007150120364
C            9.02393639079665       31.36314945076106       72.93314303097135
H            8.14571082993191       30.98826837373079       73.49047162280128
H            8.86873275290412       31.10254562252502       71.88491306312784
H            9.03555352463327       32.44576814134200       73.05430810317597
C           11.29124650193478       32.90689685297873       71.70862045718160
H           10.63395758848524       33.53517432288341       72.31075975576097
H           10.73020694111615       32.47253983037499       70.87956526556155
H           12.05551523890026       33.57634426447159       71.27150972567857
C           12.92785655504061       32.89648565863762       78.74196986073088
H           13.55060661806023       33.78984061592303       78.77987323550074
H           12.88623838723574       32.46472925493598       79.74353011492261
H           11.92320840280130       33.18189658899487       78.44117595970376
N           14.73649936066303       31.37131287322574       77.89999717674654
H           15.41828077836546       31.60924237035383       78.60144738690562
C           13.47961116090411       31.90702761988896       77.78140014114459
C           14.89999657725347       30.47369008272084       76.91568896191781
H           15.79211410254117       29.89808425055849       76.77243013394255
N           13.82181960485846       30.39263487336452       76.17346305868955
C           12.92845466919398       31.29300520716077       76.69170183032091
H           11.96234561421341       31.44579898536318       76.25350785710164
C           13.70458278371726       24.00816864112495       72.05414445336974
H           14.53273361964363       23.85010597910355       71.36262396987027
H           12.78395654829847       23.68623136572019       71.56621063494863
H           13.86821535136973       23.39461984822655       72.93678035378625
N           13.41769777312310       26.45388864068243       71.53983018072483
H           13.31650584359983       26.34441429333341       70.54341815466714
C           13.61576551083131       25.43965821236363       72.44279428985624
C           13.38891813576321       27.61535924123751       72.21764367556288
H           13.24389233083771       28.57454490753922       71.75955253295221
N           13.56004596004644       27.40792236438471       73.50070137003996
C           13.69798452129431       26.05474181743529       73.65969161954395
H           13.84593424998757       25.61677195568743       74.62632393922823
87
 energy: -128.075383754837 gnorm: 0.052286374650 xtb: 6.7.1 (edcfbbe)
Fe          13.69894813338277       28.89852842643052       74.83151625220512
N           15.24698994274190       29.75756767580963       73.80145489308008
N           12.41408154751128       30.00764395525621       73.83897906267597
N           12.17305857209152       28.03495884560187       75.85872745990902
N           15.01575501564158       27.80879859838634       75.85494680829856
C           16.56547043328240       29.44760774999184       73.89429792039813
C           17.36303307521269       30.34101185305781       73.07505797532509
C           16.49226031562271       31.19305343326549       72.48918160935108
C           15.16377575150305       30.81321473560704       72.94832196580566
C           12.71462577611312       31.06186402502587       73.02317561375884
C           11.51257395157162       31.71628977782983       72.60642788147840
C           10.46735184178158       31.00920668323059       73.16792422956135
C           11.05405984877463       29.94937151692039       73.92846607863953
C           10.84792526869398       28.14636845431162       75.58489316694433
C           10.06807766062984       27.33522286074504       76.51312819915826
C           10.96377582934667       26.79631514507581       77.38263931605807
C           12.28696438199276       27.20712172020521       76.92859026926433
C           14.75554001543888       27.02448589831226       76.94244976943848
C           15.98050195954390       26.44092992674384       77.42997833946242
C           16.97358492354533       26.85165995555313       76.56586266664755
C           16.35758624539230       27.72385975453291       75.61982039792439
C           17.08834488643290       28.45990046242394       74.70214104459100
H           18.15161025943766       28.28868761623332       74.66222746527990
C           13.98185991580163       31.43238565790470       72.59063144092197
H           14.04122770662644       32.26538508384693       71.90815945731858
C           10.31649736934396       29.03344383745737       74.66987530456802
H            9.24238993002558       29.06694079834909       74.56694638960101
C           13.49220904239679       26.76668656282191       77.45823599569603
H           13.45173207585454       26.12047954269602       78.32148990485193
C           18.84554680143957       30.24866426533592       73.02366611997842
H           19.10598333651788       29.25910415575680       72.64511202858435
H           19.21779259072419       30.35091977654839       74.04499675215349
H           19.36314712596882       30.99539616260679       72.40176142957972
C           16.72405319929779       32.33529977005390       71.57210968912322
H           16.33619815995415       33.23019078417780       72.06045662096268
H           16.15785890262786       32.14251791754662       70.65976242761150
H           17.77191542129804       32.53057250453765       71.28988284391995
C           18.37207263584959       26.35187579421988       76.70991868224198
H           18.70450934474716       26.62000643981490       77.71594286635289
H           19.16202740526693       26.66061686303426       75.99914868147313
H           18.29837662236354       25.25917559221099       76.66520023982493
C           16.32932079592499       25.56471956472721       78.56286471616527
H           16.24419889381932       24.49241392495047       78.38139694588794
C           16.93162768820186       26.00802139223147       79.66836956489816
H           17.02085648561088       27.06821360652915       79.88897693616504
H           17.45433787603928       25.35933572761116       80.36461630105480
C           10.80640348760243       25.93877631741357       78.58823576257159
H           11.32780752981998       26.44301235512518       79.40563343125619
H           11.29812715484958       24.98423757249556       78.39421141765462
H            9.77890147319927       25.72627728281073       78.92101074129735
C            8.60606398070355       27.25143995859717       76.45163804954424
H            8.22609197150094       26.94738806420847       75.47485456420569
C            7.78156717317316       27.54412266799076       77.45691150235587
H            8.15657558366128       27.82247123052785       78.43552899010479
H            6.70703975804835       27.63223766156443       77.34814238009835
C            9.04534164011272       31.37673937434831       72.91427005302421
H            8.23082500767215       30.94061195721377       73.52493175873036
H            8.83419551327906       31.13361870699433       71.86803393068732
H            8.98507773932727       32.46511969571098       73.02450964517304
C           11.26515315592492       32.88861378963428       71.71906555909077
H           10.60863850896996       33.56786865695920       72.27504609150927
H           10.70085330041766       32.51283345524211       70.85776804893472
H           12.10310366469079       33.49855675995029       71.32739458386592
C           12.92890386754039       32.89784249508229       78.73849592063314
H           13.55013738764345       33.79012960574827       78.77808624531129
H           12.88594619160897       32.47038118205288       79.73950987125561
H           11.92592919094076       33.18155161841763       78.44029873170926
N           14.73582325906214       31.38044640039998       77.90874476623632
H           15.41577395975430       31.62292174489794       78.61111201039560
C           13.47746960751909       31.90578110442857       77.78325675967081
C           14.90817819473049       30.48009116930090       76.92780810013437
H           15.80303464468621       29.91421347689656       76.78137164144937
N           13.83033336365996       30.38597002154438       76.18587404288927
C           12.93248383404341       31.27984353014157       76.69539749990190
H           11.96799235655593       31.42979752064568       76.25516295476658
C           13.70369719883269       24.01160625584684       72.05443151824862
H           14.52935939689354       23.85081713845597       71.36338456934750
H           12.78609726124117       23.68623079755216       71.56768944673745
H           13.86575854815153       23.39935751875329       72.93492730977927
N           13.41708891733865       26.44774026822218       71.53635946563038
H           13.31462545412663       26.33535160357204       70.54009999730297
C           13.61464923928374       25.44010407882722       72.44296782382293
C           13.39272097644672       27.61292183479233       72.20850401192780
H           13.24789547147041       28.57039018727429       71.75283496791882
N           13.56581587789561       27.41047819912600       73.49234367259413
C           13.69950753455526       26.06246544104540       73.65764252378675
H           13.84537666167962       25.62560650466852       74.62377991425471
87
 energy: -128.087725822060 gnorm: 0.050648361765 xtb: 6.7.1 (edcfbbe)
Fe          13.69661652412427       28.89666840912957       74.83034452792431
N           15.24586457269657       29.75646716150124       73.80102769626021
N           12.40862321379267       30.00975496276140       73.83685436374867
N           12.17924519181345       28.03355716775368       75.85734577241590
N           15.01864770893965       27.79617884726907       75.85691342893249
C           16.56075864276563       29.44337374897888       73.89453780455976
C           17.35865333775786       30.33813445272775       73.07662133321044
C           16.48384148382054       31.19640246078695       72.49079582336499
C           15.16044851796711       30.81401323114775       72.95373638702287
C           12.71013109303490       31.06332325384807       73.01970447594776
C           11.50351598847823       31.71325734094059       72.59890630055392
C           10.46223210059155       31.00835057824875       73.15832843340078
C           11.04873514497082       29.95022653102011       73.92722761532170
C           10.85570689620125       28.14557041385622       75.58489462337944
C           10.07967142379055       27.34294668581270       76.52080858591133
C           10.97881043626149       26.80023655410533       77.38896750710143
C           12.29485423997914       27.20888678888905       76.92804555373381
C           14.75550221934578       27.02281028321183       76.94996929054308
C           15.97631942211684       26.44079635650990       77.43751573248062
C           16.97188618120643       26.83705992882085       76.57454042245523
C           16.35853542461246       27.70946894357618       75.61885533654198
C           17.08418209206825       28.44925487337703       74.69843679891750
H           18.14853947076836       28.28140886329047       74.66528148208117
C           13.97901350991973       31.43457088355168       72.59468095490148
H           14.03705099280328       32.26990518321534       71.91453544343247
C           10.31789787012543       29.03121934778111       74.67104593056608
H            9.24308773574584       29.07028229311133       74.57797019739286
C           13.49377483175079       26.76857150709291       77.46728275068486
H           13.45307771546562       26.12069771548384       78.33008910064599
C           18.83819088393767       30.23687937076042       73.02897470746005
H           19.13657012441593       29.25716352816439       72.64864847981360