 Entering Gaussian System, Link 0=g16
 Input=1aom12.com
 Output=1aom12.log
 Initial command:
 /sw/chem/gaussian/g16_C02/a100.el9/g16/l1.exe "/local/bebjones_9029944/Gau-2444048.inp" -scrdir="/local/bebjones_9029944/"
 Entering Link 1 = /sw/chem/gaussian/g16_C02/a100.el9/g16/l1.exe PID=   2444049.
  
 Copyright (c) 1988-2021, Gaussian, Inc.  All Rights Reserved.
  
 This is part of the Gaussian(R) 16 program.  It is based on
 the Gaussian(R) 09 system (copyright 2009, Gaussian, Inc.),
 the Gaussian(R) 03 system (copyright 2003, Gaussian, Inc.),
 the Gaussian(R) 98 system (copyright 1998, Gaussian, Inc.),
 the Gaussian(R) 94 system (copyright 1995, Gaussian, Inc.),
 the Gaussian 92(TM) system (copyright 1992, Gaussian, Inc.),
 the Gaussian 90(TM) system (copyright 1990, Gaussian, Inc.),
 the Gaussian 88(TM) system (copyright 1988, Gaussian, Inc.),
 the Gaussian 86(TM) system (copyright 1986, Carnegie Mellon
 University), and the Gaussian 82(TM) system (copyright 1983,
 Carnegie Mellon University). Gaussian is a federally registered
 trademark of Gaussian, Inc.
  
 This software contains proprietary and confidential information,
 including trade secrets, belonging to Gaussian, Inc.
  
 This software is provided under written license and may be
 used, copied, transmitted, or stored only in accord with that
 written license.
  
 The following legend is applicable only to US Government
 contracts under FAR:
  
                    RESTRICTED RIGHTS LEGEND
  
 Use, reproduction and disclosure by the US Government is
 subject to restrictions as set forth in subparagraphs (a)
 and (c) of the Commercial Computer Software - Restricted
 Rights clause in FAR 52.227-19.
  
 Gaussian, Inc.
 340 Quinnipiac St., Bldg. 40, Wallingford CT 06492
  
  
 ---------------------------------------------------------------
 Warning -- This program may not be used in any manner that
 competes with the business of Gaussian, Inc. or will provide
 assistance to any competitor of Gaussian, Inc.  The licensee
 of this program is prohibited from giving any competitor of
 Gaussian, Inc. access to this program.  By using this program,
 the user acknowledges that Gaussian, Inc. is engaged in the
 business of creating and licensing software in the field of
 computational chemistry and represents and warrants to the
 licensee that it is not a competitor of Gaussian, Inc. and that
 it will not use this program in any manner prohibited above.
 ---------------------------------------------------------------
  

 Cite this work as:
 Gaussian 16, Revision C.02,
 M. J. Frisch, G. W. Trucks, H. B. Schlegel, G. E. Scuseria, 
 M. A. Robb, J. R. Cheeseman, G. Scalmani, V. Barone, 
 G. A. Petersson, H. Nakatsuji, X. Li, M. Caricato, A. V. Marenich, 
 J. Bloino, B. G. Janesko, R. Gomperts, B. Mennucci, H. P. Hratchian, 
 J. V. Ortiz, A. F. Izmaylov, J. L. Sonnenberg, D. Williams-Young, 
 F. Ding, F. Lipparini, F. Egidi, J. Goings, B. Peng, A. Petrone, 
 T. Henderson, D. Ranasinghe, V. G. Zakrzewski, J. Gao, N. Rega, 
 G. Zheng, W. Liang, M. Hada, M. Ehara, K. Toyota, R. Fukuda, 
 J. Hasegawa, M. Ishida, T. Nakajima, Y. Honda, O. Kitao, H. Nakai, 
 T. Vreven, K. Throssell, J. A. Montgomery, Jr., J. E. Peralta, 
 F. Ogliaro, M. J. Bearpark, J. J. Heyd, E. N. Brothers, K. N. Kudin, 
 V. N. Staroverov, T. A. Keith, R. Kobayashi, J. Normand, 
 K. Raghavachari, A. P. Rendell, J. C. Burant, S. S. Iyengar, 
 J. Tomasi, M. Cossi, J. M. Millam, M. Klene, C. Adamo, R. Cammi, 
 J. W. Ochterski, R. L. Martin, K. Morokuma, O. Farkas, 
 J. B. Foresman, and D. J. Fox, Gaussian, Inc., Wallingford CT, 2019.
 
 ******************************************
 Gaussian 16:  ES64L-G16RevC.02  7-Dec-2021
                23-Jan-2026 
 ******************************************
 %mem=16GB
 %CPU=0-71
 SetSPE:  set environment variable "OMP_PROC_BIND" = "true"
 SetSPE:  set environment variable "OMP_PLACES" = "{0},{1},{2},{3},{4},{5},{6},{7},{8},{9},{10},{11},{12},{13},{14},{15},{16},{17},{18},{19},{20},{21},{22},{23},{24},{25},{26},{27},{28},{29},{30},{31},{32},{33},{34},{35},{36},{37},{38},{39},{40},{41},{42},{43},{44},{45},{46},{47},{48},{49},{50},{51},{52},{53},{54},{55},{56},{57},{58},{59},{60},{61},{62},{63},{64},{65},{66},{67},{68},{69},{70},{71}"
 Will use up to   72 processors via shared memory.
 %gpucpu=0,1,2,3=0,1,2,3
 Will use    4 GPUs:
 Thread  CPU   GPU
      0    0     0
      1    1     1
      2    2     2
      3    3     3
      4    4    -1
      5    5    -1
      6    6    -1
      7    7    -1
      8    8    -1
      9    9    -1
     10   10    -1
     11   11    -1
     12   12    -1
     13   13    -1
     14   14    -1
     15   15    -1
     16   16    -1
     17   17    -1
     18   18    -1
     19   19    -1
     20   20    -1
     21   21    -1
     22   22    -1
     23   23    -1
     24   24    -1
     25   25    -1
     26   26    -1
     27   27    -1
     28   28    -1
     29   29    -1
     30   30    -1
     31   31    -1
     32   32    -1
     33   33    -1
     34   34    -1
     35   35    -1
     36   36    -1
     37   37    -1
     38   38    -1
     39   39    -1
     40   40    -1
     41   41    -1
     42   42    -1
     43   43    -1
     44   44    -1
     45   45    -1
     46   46    -1
     47   47    -1
     48   48    -1
     49   49    -1
     50   50    -1
     51   51    -1
     52   52    -1
     53   53    -1
     54   54    -1
     55   55    -1
     56   56    -1
     57   57    -1
     58   58    -1
     59   59    -1
     60   60    -1
     61   61    -1
     62   62    -1
     63   63    -1
     64   64    -1
     65   65    -1
     66   66    -1
     67   67    -1
     68   68    -1
     69   69    -1
     70   70    -1
     71   71    -1
 SetGPE:  set environment variable "OMP_PROC_BIND" = "true"
 SetGPE:  set environment variable "OMP_PLACES" = "{0},{1},{2},{3},{4},{5},{6},{7},{8},{9},{10},{11},{12},{13},{14},{15},{16},{17},{18},{19},{20},{21},{22},{23},{24},{25},{26},{27},{28},{29},{30},{31},{32},{33},{34},{35},{36},{37},{38},{39},{40},{41},{42},{43},{44},{45},{46},{47},{48},{49},{50},{51},{52},{53},{54},{55},{56},{57},{58},{59},{60},{61},{62},{63},{64},{65},{66},{67},{68},{69},{70},{71}"
 %oldchk=1aom_12_opt.chk
 %chk=1aom_12_nbo.chk
 Properties for Device   0
 Minimum vector length:                              32
 Maximum vector length:                            1024
 Number of SMPs:                                    108
 Maximum number of threads per SMP:                2048
 Number of ASync Engines:                             5
 Memory:                                           9206849536
 Properties for Device   1
 Minimum vector length:                              32
 Maximum vector length:                            1024
 Number of SMPs:                                    108
 Maximum number of threads per SMP:                2048
 Number of ASync Engines:                             5
 Memory:                                           9206849536
 Properties for Device   2
 Minimum vector length:                              32
 Maximum vector length:                            1024
 Number of SMPs:                                    108
 Maximum number of threads per SMP:                2048
 Number of ASync Engines:                             5
 Memory:                                           9206849536
 Properties for Device   3
 Minimum vector length:                              32
 Maximum vector length:                            1024
 Number of SMPs:                                    108
 Maximum number of threads per SMP:                2048
 Number of ASync Engines:                             5
 Memory:                                           9206849536
   8286164582 words of memory will be used on each GPU.
 Copying data from "1aom_12_opt.chk" to current chk file "1aom_12_nbo.chk"
 IOpt=  2 FromEx=T IUOpen= 4 IOptOp= 5 NList=   0 IFRang= 0 IUIn= 4 IUOut= 2.
 ------------------------------------------------------------------
 # opt apfd/def2TZVP guess=read scf=maxcycle=999 geom=check pop=nbo
 ------------------------------------------------------------------
 1/18=20,19=15,26=3,29=2,38=1/1,3;
 2/9=110,12=2,40=1/2;
 3/5=44,7=101,11=2,14=-4,25=1,30=1,71=1,74=-44,116=-2/1,2,3;
 4/5=1/1;
 5/5=2,7=999,38=6/2;
 6/7=2,8=2,9=2,10=2,28=1,40=1/1,7;
 7//1,2,3,16;
 1/18=20,19=15,26=3/3(2);
 2/9=110/2;
 99//99;
 2/9=110/2;
 3/5=44,7=101,11=2,14=-2,25=1,30=1,71=1,74=-44/1,2,3;
 4/5=5,16=3,69=1/1;
 5/5=2,7=999,38=5/2;
 7//1,2,3,16;
 1/18=20,19=15,26=3/3(-5);
 2/9=110/2;
 6/7=2,8=2,9=2,10=2,19=2,28=1,40=1/1,7;
 99/9=1/99;
 -----------
 1aom_12_nbo
 -----------
 Structure from the checkpoint file:  "1aom_12_nbo.chk"
 Charge =  1 Multiplicity = 2
 Redundant internal coordinates found in file.  (old form).
 Fe,0,13.7690015464,28.9745728036,74.9076924773
 N,0,15.2368118531,29.8086756191,73.9395927223
 N,0,12.4810847808,30.087998535,73.9037328185
 N,0,12.2821193099,28.1313100375,75.8844164425
 N,0,15.0612662979,27.8604873428,75.9094964182
 C,0,16.5337165121,29.3788806062,73.8817863478
 C,0,17.32227928,30.2517926416,73.0482338502
 C,0,16.4832174439,31.2499724201,72.6331577842
 C,0,15.1843093465,30.9406667543,73.1764628176
 C,0,12.7565044835,31.1881449297,73.1551785564
 C,0,11.5441505956,31.7628155249,72.6132355343
 C,0,10.5232532523,30.9572345344,73.0287095896
 C,0,11.1280602462,29.9352429607,73.8561696869
 C,0,10.9584997623,28.2173697939,75.5891010017
 C,0,10.1753281703,27.4651077515,76.5412641177
 C,0,11.0694590305,26.9468711307,77.4505857695
 C,0,12.37390293,27.3578599753,77.0050322562
 C,0,14.8106181533,27.1147493504,77.0200255923
 C,0,16.0138291317,26.4407245847,77.4662774398
 C,0,16.9876165551,26.7563004685,76.549970296
 C,0,16.3738689214,27.6612010793,75.6113174768
 C,0,17.0588611233,28.3321609379,74.6118122425
 H,0,18.1092417995,28.0996867421,74.4726932327
 C,0,14.0315117302,31.6327210136,72.8571697346
 H,0,14.1290070937,32.5221373618,72.2433607402
 C,0,10.412384088,29.0188038481,74.5995491282
 H,0,9.3337383419,29.0130304234,74.4856452315
 C,0,13.5604198861,26.934905092,77.5798219917
 H,0,13.4939863917,26.3441669977,78.4861067456
 C,0,18.7746441847,30.0629454119,72.7619926757
 H,0,18.9731216796,29.0756211754,72.3275589042
 H,0,19.3799068613,30.1429419706,73.673798787
 H,0,19.1464462335,30.8106088155,72.0567969539
 C,0,16.7781136064,32.4286036991,71.7665798778
 H,0,16.4997479275,33.3684198379,72.258759473
 H,0,16.2248979935,32.3827965261,70.8200254225
 H,0,17.8411853712,32.4914142713,71.5206664511
 C,0,18.3935723243,26.2651805616,76.4802459215
 H,0,19.0992501414,26.9562526853,76.9602591383
 H,0,18.7230356506,26.1307041441,75.4442818295
 H,0,18.486384482,25.3013040028,76.9909016136
 C,0,16.0939369482,25.5635007403,78.6253553037
 H,0,15.1941700568,24.999467884,78.8718358723
 C,0,17.1741530373,25.4007551232,79.4006231708
 H,0,18.0906448363,25.9620235684,79.2415088085
 H,0,17.1644819273,24.7115146674,80.2400555308
 C,0,10.7853415154,26.0664975653,78.6198839582
 H,0,10.7028159949,26.6378834591,79.5537115648
 H,0,11.5688738801,25.3157877582,78.766389098
 H,0,9.8378367947,25.5372488156,78.4770526654
 C,0,8.7284152436,27.3129454312,76.4820986634
 H,0,8.2894982424,27.2648678429,75.4849354116
 C,0,7.9122671719,27.2273732053,77.5407356587
 H,0,8.2769908385,27.3123730019,78.5605401016
 H,0,6.8416453432,27.0931775258,77.4154804038
 C,0,9.0604224379,31.0672836408,72.7556068505
 H,0,8.4905573621,31.2516179289,73.675079261
 H,0,8.6638936235,30.1473429154,72.308734954
 H,0,8.8409333221,31.8864582774,72.0659796399
 C,0,11.4984563922,32.9834352663,71.7562524546
 H,0,10.4720128767,33.2525704607,71.4940238819
 H,0,12.0495387381,32.8406165356,70.8180579693
 H,0,11.9441045747,33.8475132969,72.2642960123
 C,0,12.5777925483,32.978470466,78.5353968865
 H,0,13.0116209242,33.9749597679,78.3882308584
 H,0,12.6324930084,32.7424045122,79.6050050975
 H,0,11.5214064331,33.0326243754,78.2612101708
 N,0,14.6032313728,31.6513264986,77.8248749697
 H,0,15.2482517336,32.0888899421,78.466905755
 C,0,13.2593957201,31.9498403115,77.7062758312
 C,0,14.9137915546,30.6769478644,76.9480052744
 H,0,15.8930457042,30.2442213627,76.8182508387
 N,0,13.8370834731,30.3440349901,76.2706908688
 C,0,12.8020470023,31.1174295023,76.7226673408
 H,0,11.8078962876,31.0144449383,76.3171408039
 C,0,13.5028132482,24.1254292891,72.2555451906
 H,0,14.3266103777,23.8410733268,71.5897157906
 H,0,12.5620360105,23.8517741386,71.7627656449
 H,0,13.5883937632,23.5246431689,73.1642604721
 N,0,13.4611693539,26.577917363,71.6616339882
 H,0,13.3687963226,26.4446983682,70.664926083
 C,0,13.5456463912,25.5702089336,72.6032375607
 C,0,13.5214480997,27.7687234489,72.2888757457
 H,0,13.4817109865,28.7313846148,71.8043259094
 N,0,13.6468004406,27.571228559,73.5827049319
 C,0,13.663652864,26.2199826175,73.8005014834
 H,0,13.7515207086,25.8147023668,74.7961501779
 Recover connectivity data from disk.

 GradGradGradGradGradGradGradGradGradGradGradGradGradGradGradGradGradGrad
 Berny optimization.
 Initialization pass.
                           ----------------------------
                           !    Initial Parameters    !
                           ! (Angstroms and Degrees)  !
 --------------------------                            --------------------------
 ! Name  Definition              Value          Derivative Info.                !
 --------------------------------------------------------------------------------
 ! R1    R(1,2)                  1.9461         estimate D2E/DX2                !
 ! R2    R(1,3)                  1.9765         estimate D2E/DX2                !
 ! R3    R(1,4)                  1.9687         estimate D2E/DX2                !
 ! R4    R(1,5)                  1.9786         estimate D2E/DX2                !
 ! R5    R(1,73)                 1.9333         estimate D2E/DX2                !
 ! R6    R(1,85)                 1.9339         estimate D2E/DX2                !
 ! R7    R(2,6)                  1.3675         estimate D2E/DX2                !
 ! R8    R(2,9)                  1.3662         estimate D2E/DX2                !
 ! R9    R(3,10)                 1.3589         estimate D2E/DX2                !
 ! R10   R(3,13)                 1.3625         estimate D2E/DX2                !
 ! R11   R(4,14)                 1.3589         estimate D2E/DX2                !
 ! R12   R(4,17)                 1.3647         estimate D2E/DX2                !
 ! R13   R(5,18)                 1.361          estimate D2E/DX2                !
 ! R14   R(5,21)                 1.3607         estimate D2E/DX2                !
 ! R15   R(6,7)                  1.4417         estimate D2E/DX2                !
 ! R16   R(6,22)                 1.38           estimate D2E/DX2                !
 ! R17   R(7,8)                  1.3685         estimate D2E/DX2                !
 ! R18   R(7,30)                 1.4923         estimate D2E/DX2                !
 ! R19   R(8,9)                  1.4415         estimate D2E/DX2                !
 ! R20   R(8,34)                 1.4923         estimate D2E/DX2                !
 ! R21   R(9,24)                 1.382          estimate D2E/DX2                !
 ! R22   R(10,11)                1.447          estimate D2E/DX2                !
 ! R23   R(10,24)                1.3828         estimate D2E/DX2                !
 ! R24   R(11,12)                1.3652         estimate D2E/DX2                !
 ! R25   R(11,60)                1.4921         estimate D2E/DX2                !
 ! R26   R(12,13)                1.4474         estimate D2E/DX2                !
 ! R27   R(12,56)                1.4922         estimate D2E/DX2                !
 ! R28   R(13,26)                1.3801         estimate D2E/DX2                !
 ! R29   R(14,15)                1.4443         estimate D2E/DX2                !
 ! R30   R(14,26)                1.3856         estimate D2E/DX2                !
 ! R31   R(15,16)                1.3766         estimate D2E/DX2                !
 ! R32   R(15,51)                1.4561         estimate D2E/DX2                !
 ! R33   R(16,17)                1.4384         estimate D2E/DX2                !
 ! R34   R(16,47)                1.491          estimate D2E/DX2                !
 ! R35   R(17,28)                1.3846         estimate D2E/DX2                !
 ! R36   R(18,19)                1.4495         estimate D2E/DX2                !
 ! R37   R(18,28)                1.3816         estimate D2E/DX2                !
 ! R38   R(19,20)                1.3739         estimate D2E/DX2                !
 ! R39   R(19,42)                1.4558         estimate D2E/DX2                !
 ! R40   R(20,21)                1.441          estimate D2E/DX2                !
 ! R41   R(20,38)                1.4909         estimate D2E/DX2                !
 ! R42   R(21,22)                1.3851         estimate D2E/DX2                !
 ! R43   R(22,23)                1.0848         estimate D2E/DX2                !
 ! R44   R(24,25)                1.085          estimate D2E/DX2                !
 ! R45   R(26,27)                1.0847         estimate D2E/DX2                !
 ! R46   R(28,29)                1.0839         estimate D2E/DX2                !
 ! R47   R(30,31)                1.0968         estimate D2E/DX2                !
 ! R48   R(30,32)                1.0973         estimate D2E/DX2                !
 ! R49   R(30,33)                1.0929         estimate D2E/DX2                !
 ! R50   R(34,35)                1.0968         estimate D2E/DX2                !
 ! R51   R(34,36)                1.0973         estimate D2E/DX2                !
 ! R52   R(34,37)                1.093          estimate D2E/DX2                !
 ! R53   R(38,39)                1.0982         estimate D2E/DX2                !
 ! R54   R(38,40)                1.0954         estimate D2E/DX2                !
 ! R55   R(38,41)                1.0947         estimate D2E/DX2                !
 ! R56   R(42,43)                1.0902         estimate D2E/DX2                !
 ! R57   R(42,44)                1.3395         estimate D2E/DX2                !
 ! R58   R(44,45)                1.0864         estimate D2E/DX2                !
 ! R59   R(44,46)                1.0862         estimate D2E/DX2                !
 ! R60   R(47,48)                1.0979         estimate D2E/DX2                !
 ! R61   R(47,49)                1.095          estimate D2E/DX2                !
 ! R62   R(47,50)                1.0947         estimate D2E/DX2                !
 ! R63   R(51,52)                1.0905         estimate D2E/DX2                !
 ! R64   R(51,53)                1.3395         estimate D2E/DX2                !
 ! R65   R(53,54)                1.0864         estimate D2E/DX2                !
 ! R66   R(53,55)                1.0862         estimate D2E/DX2                !
 ! R67   R(56,57)                1.0973         estimate D2E/DX2                !
 ! R68   R(56,58)                1.0969         estimate D2E/DX2                !
 ! R69   R(56,59)                1.0931         estimate D2E/DX2                !
 ! R70   R(60,61)                1.0931         estimate D2E/DX2                !
 ! R71   R(60,62)                1.0974         estimate D2E/DX2                !
 ! R72   R(60,63)                1.097          estimate D2E/DX2                !
 ! R73   R(64,65)                1.0967         estimate D2E/DX2                !
 ! R74   R(64,66)                1.0967         estimate D2E/DX2                !
 ! R75   R(64,67)                1.0927         estimate D2E/DX2                !
 ! R76   R(64,70)                1.4866         estimate D2E/DX2                !
 ! R77   R(68,69)                1.0098         estimate D2E/DX2                !
 ! R78   R(68,70)                1.3817         estimate D2E/DX2                !
 ! R79   R(68,71)                1.3471         estimate D2E/DX2                !
 ! R80   R(70,74)                1.3673         estimate D2E/DX2                !
 ! R81   R(71,72)                1.0784         estimate D2E/DX2                !
 ! R82   R(71,73)                1.3149         estimate D2E/DX2                !
 ! R83   R(73,74)                1.3688         estimate D2E/DX2                !
 ! R84   R(74,75)                1.0786         estimate D2E/DX2                !
 ! R85   R(76,77)                1.0967         estimate D2E/DX2                !
 ! R86   R(76,78)                1.0967         estimate D2E/DX2                !
 ! R87   R(76,79)                1.0927         estimate D2E/DX2                !
 ! R88   R(76,82)                1.4866         estimate D2E/DX2                !
 ! R89   R(80,81)                1.0098         estimate D2E/DX2                !
 ! R90   R(80,82)                1.3817         estimate D2E/DX2                !
 ! R91   R(80,83)                1.3473         estimate D2E/DX2                !
 ! R92   R(82,86)                1.3673         estimate D2E/DX2                !
 ! R93   R(83,84)                1.0785         estimate D2E/DX2                !
 ! R94   R(83,85)                1.3148         estimate D2E/DX2                !
 ! R95   R(85,86)                1.3688         estimate D2E/DX2                !
 ! R96   R(86,87)                1.0786         estimate D2E/DX2                !
 ! A1    A(2,1,3)               89.8477         estimate D2E/DX2                !
 ! A2    A(2,1,5)               90.0343         estimate D2E/DX2                !
 ! A3    A(2,1,73)              91.1774         estimate D2E/DX2                !
 ! A4    A(2,1,85)              91.0228         estimate D2E/DX2                !
 ! A5    A(3,1,4)               90.0666         estimate D2E/DX2                !
 ! A6    A(3,1,73)              88.9696         estimate D2E/DX2                !
 ! A7    A(3,1,85)              91.1228         estimate D2E/DX2                !
 ! A8    A(4,1,5)               90.0514         estimate D2E/DX2                !
 ! A9    A(4,1,73)              88.8675         estimate D2E/DX2                !
 ! A10   A(4,1,85)              88.9324         estimate D2E/DX2                !
 ! A11   A(5,1,73)              91.0824         estimate D2E/DX2                !
 ! A12   A(5,1,85)              88.8297         estimate D2E/DX2                !
 ! A13   A(1,2,6)              126.9855         estimate D2E/DX2                !
 ! A14   A(1,2,9)              127.1567         estimate D2E/DX2                !
 ! A15   A(6,2,9)              105.8576         estimate D2E/DX2                !
 ! A16   A(1,3,10)             127.1448         estimate D2E/DX2                !
 ! A17   A(1,3,13)             126.9912         estimate D2E/DX2                !
 ! A18   A(10,3,13)            105.8323         estimate D2E/DX2                !
 ! A19   A(1,4,14)             126.9202         estimate D2E/DX2                !
 ! A20   A(1,4,17)             126.8229         estimate D2E/DX2                !
 ! A21   A(14,4,17)            106.2514         estimate D2E/DX2                !
 ! A22   A(1,5,18)             126.9706         estimate D2E/DX2                !
 ! A23   A(1,5,21)             126.9809         estimate D2E/DX2                !
 ! A24   A(18,5,21)            106.0345         estimate D2E/DX2                !
 ! A25   A(2,6,7)              110.6628         estimate D2E/DX2                !
 ! A26   A(2,6,22)             125.2353         estimate D2E/DX2                !
 ! A27   A(7,6,22)             123.8454         estimate D2E/DX2                !
 ! A28   A(6,7,8)              106.3579         estimate D2E/DX2                !
 ! A29   A(6,7,30)             124.513          estimate D2E/DX2                !
 ! A30   A(8,7,30)             129.1138         estimate D2E/DX2                !
 ! A31   A(7,8,9)              106.3589         estimate D2E/DX2                !
 ! A32   A(7,8,34)             129.1279         estimate D2E/DX2                !
 ! A33   A(9,8,34)             124.4977         estimate D2E/DX2                !
 ! A34   A(2,9,8)              110.7125         estimate D2E/DX2                !
 ! A35   A(2,9,24)             125.1722         estimate D2E/DX2                !
 ! A36   A(8,9,24)             123.8563         estimate D2E/DX2                !
 ! A37   A(3,10,11)            110.9797         estimate D2E/DX2                !
 ! A38   A(3,10,24)            124.4648         estimate D2E/DX2                !
 ! A39   A(11,10,24)           124.3427         estimate D2E/DX2                !
 ! A40   A(10,11,12)           106.1533         estimate D2E/DX2                !
 ! A41   A(10,11,60)           124.4478         estimate D2E/DX2                !
 ! A42   A(12,11,60)           129.3901         estimate D2E/DX2                !
 ! A43   A(11,12,13)           106.1502         estimate D2E/DX2                !
 ! A44   A(11,12,56)           129.3363         estimate D2E/DX2                !
 ! A45   A(13,12,56)           124.4962         estimate D2E/DX2                !
 ! A46   A(3,13,12)            110.8401         estimate D2E/DX2                !
 ! A47   A(3,13,26)            124.7941         estimate D2E/DX2                !
 ! A48   A(12,13,26)           124.0641         estimate D2E/DX2                !
 ! A49   A(4,14,15)            110.6054         estimate D2E/DX2                !
 ! A50   A(4,14,26)            125.1529         estimate D2E/DX2                !
 ! A51   A(15,14,26)           123.945          estimate D2E/DX2                !
 ! A52   A(14,15,16)           106.2226         estimate D2E/DX2                !
 ! A53   A(14,15,51)           124.5058         estimate D2E/DX2                !
 ! A54   A(16,15,51)           129.2678         estimate D2E/DX2                !
 ! A55   A(15,16,17)           106.0731         estimate D2E/DX2                !
 ! A56   A(15,16,47)           128.0664         estimate D2E/DX2                !
 ! A57   A(17,16,47)           125.7638         estimate D2E/DX2                !
 ! A58   A(4,17,16)            110.8116         estimate D2E/DX2                !
 ! A59   A(4,17,28)            124.8648         estimate D2E/DX2                !
 ! A60   A(16,17,28)           124.1433         estimate D2E/DX2                !
 ! A61   A(5,18,19)            110.6787         estimate D2E/DX2                !
 ! A62   A(5,18,28)            124.6539         estimate D2E/DX2                !
 ! A63   A(19,18,28)           124.4626         estimate D2E/DX2                !
 ! A64   A(18,19,20)           106.0342         estimate D2E/DX2                !
 ! A65   A(18,19,42)           124.8179         estimate D2E/DX2                !
 ! A66   A(20,19,42)           129.0814         estimate D2E/DX2                !
 ! A67   A(19,20,21)           106.0692         estimate D2E/DX2                !
 ! A68   A(19,20,38)           128.6047         estimate D2E/DX2                !
 ! A69   A(21,20,38)           125.3123         estimate D2E/DX2                !
 ! A70   A(5,21,20)            111.1048         estimate D2E/DX2                !
 ! A71   A(5,21,22)            124.3505         estimate D2E/DX2                !
 ! A72   A(20,21,22)           124.3057         estimate D2E/DX2                !
 ! A73   A(6,22,21)            124.1242         estimate D2E/DX2                !
 ! A74   A(6,22,23)            117.5935         estimate D2E/DX2                !
 ! A75   A(21,22,23)           117.8795         estimate D2E/DX2                !
 ! A76   A(9,24,10)            123.9423         estimate D2E/DX2                !
 ! A77   A(9,24,25)            117.7901         estimate D2E/DX2                !
 ! A78   A(10,24,25)           117.9244         estimate D2E/DX2                !
 ! A79   A(13,26,14)           124.3604         estimate D2E/DX2                !
 ! A80   A(13,26,27)           117.5592         estimate D2E/DX2                !
 ! A81   A(14,26,27)           117.6382         estimate D2E/DX2                !
 ! A82   A(17,28,18)           124.5753         estimate D2E/DX2                !
 ! A83   A(17,28,29)           117.4574         estimate D2E/DX2                !
 ! A84   A(18,28,29)           117.7247         estimate D2E/DX2                !
 ! A85   A(7,30,31)            111.4701         estimate D2E/DX2                !
 ! A86   A(7,30,32)            111.6052         estimate D2E/DX2                !
 ! A87   A(7,30,33)            111.6091         estimate D2E/DX2                !
 ! A88   A(31,30,32)           107.154          estimate D2E/DX2                !
 ! A89   A(31,30,33)           107.3781         estimate D2E/DX2                !
 ! A90   A(32,30,33)           107.3753         estimate D2E/DX2                !
 ! A91   A(8,34,35)            111.47           estimate D2E/DX2                !
 ! A92   A(8,34,36)            111.6113         estimate D2E/DX2                !
 ! A93   A(8,34,37)            111.6074         estimate D2E/DX2                !
 ! A94   A(35,34,36)           107.1517         estimate D2E/DX2                !
 ! A95   A(35,34,37)           107.3724         estimate D2E/DX2                !
 ! A96   A(36,34,37)           107.3785         estimate D2E/DX2                !
 ! A97   A(20,38,39)           112.225          estimate D2E/DX2                !
 ! A98   A(20,38,40)           111.6115         estimate D2E/DX2                !
 ! A99   A(20,38,41)           110.3756         estimate D2E/DX2                !
 ! A100  A(39,38,40)           107.3            estimate D2E/DX2                !
 ! A101  A(39,38,41)           107.1995         estimate D2E/DX2                !
 ! A102  A(40,38,41)           107.913          estimate D2E/DX2                !
 ! A103  A(19,42,43)           116.5097         estimate D2E/DX2                !
 ! A104  A(19,42,44)           125.3357         estimate D2E/DX2                !
 ! A105  A(43,42,44)           118.1545         estimate D2E/DX2                !
 ! A106  A(42,44,45)           122.1912         estimate D2E/DX2                !
 ! A107  A(42,44,46)           121.1439         estimate D2E/DX2                !
 ! A108  A(45,44,46)           116.649          estimate D2E/DX2                !
 ! A109  A(16,47,48)           111.9675         estimate D2E/DX2                !
 ! A110  A(16,47,49)           111.9252         estimate D2E/DX2                !
 ! A111  A(16,47,50)           110.3707         estimate D2E/DX2                !
 ! A112  A(48,47,49)           107.2656         estimate D2E/DX2                !
 ! A113  A(48,47,50)           107.3104         estimate D2E/DX2                !
 ! A114  A(49,47,50)           107.7801         estimate D2E/DX2                !
 ! A115  A(15,51,52)           116.2122         estimate D2E/DX2                !
 ! A116  A(15,51,53)           125.453          estimate D2E/DX2                !
 ! A117  A(52,51,53)           118.3348         estimate D2E/DX2                !
 ! A118  A(51,53,54)           122.1644         estimate D2E/DX2                !
 ! A119  A(51,53,55)           121.1519         estimate D2E/DX2                !
 ! A120  A(54,53,55)           116.6667         estimate D2E/DX2                !
 ! A121  A(12,56,57)           111.6007         estimate D2E/DX2                !
 ! A122  A(12,56,58)           111.5367         estimate D2E/DX2                !
 ! A123  A(12,56,59)           111.5673         estimate D2E/DX2                !
 ! A124  A(57,56,58)           107.128          estimate D2E/DX2                !
 ! A125  A(57,56,59)           107.366          estimate D2E/DX2                !
 ! A126  A(58,56,59)           107.3916         estimate D2E/DX2                !
 ! A127  A(11,60,61)           111.59           estimate D2E/DX2                !
 ! A128  A(11,60,62)           111.6647         estimate D2E/DX2                !
 ! A129  A(11,60,63)           111.465          estimate D2E/DX2                !
 ! A130  A(61,60,62)           107.3681         estimate D2E/DX2                !
 ! A131  A(61,60,63)           107.3768         estimate D2E/DX2                !
 ! A132  A(62,60,63)           107.1244         estimate D2E/DX2                !
 ! A133  A(65,64,66)           107.8611         estimate D2E/DX2                !
 ! A134  A(65,64,67)           107.6803         estimate D2E/DX2                !
 ! A135  A(65,64,70)           111.868          estimate D2E/DX2                !
 ! A136  A(66,64,67)           107.6741         estimate D2E/DX2                !
 ! A137  A(66,64,70)           111.847          estimate D2E/DX2                !
 ! A138  A(67,64,70)           109.7298         estimate D2E/DX2                !
 ! A139  A(69,68,70)           125.6062         estimate D2E/DX2                !
 ! A140  A(69,68,71)           125.4511         estimate D2E/DX2                !
 ! A141  A(70,68,71)           108.9422         estimate D2E/DX2                !
 ! A142  A(64,70,68)           123.1984         estimate D2E/DX2                !
 ! A143  A(64,70,74)           131.9959         estimate D2E/DX2                !
 ! A144  A(68,70,74)           104.8056         estimate D2E/DX2                !
 ! A145  A(68,71,72)           125.3012         estimate D2E/DX2                !
 ! A146  A(68,71,73)           109.2478         estimate D2E/DX2                !
 ! A147  A(72,71,73)           125.4497         estimate D2E/DX2                !
 ! A148  A(1,73,71)            124.8435         estimate D2E/DX2                !
 ! A149  A(1,73,74)            127.3272         estimate D2E/DX2                !
 ! A150  A(71,73,74)           107.8209         estimate D2E/DX2                !
 ! A151  A(70,74,73)           109.1824         estimate D2E/DX2                !
 ! A152  A(70,74,75)           129.56           estimate D2E/DX2                !
 ! A153  A(73,74,75)           121.2549         estimate D2E/DX2                !
 ! A154  A(77,76,78)           107.8698         estimate D2E/DX2                !
 ! A155  A(77,76,79)           107.6674         estimate D2E/DX2                !
 ! A156  A(77,76,82)           111.8587         estimate D2E/DX2                !
 ! A157  A(78,76,79)           107.6773         estimate D2E/DX2                !
 ! A158  A(78,76,82)           111.8574         estimate D2E/DX2                !
 ! A159  A(79,76,82)           109.7292         estimate D2E/DX2                !
 ! A160  A(81,80,82)           125.5912         estimate D2E/DX2                !
 ! A161  A(81,80,83)           125.4669         estimate D2E/DX2                !
 ! A162  A(82,80,83)           108.9419         estimate D2E/DX2                !
 ! A163  A(76,82,80)           123.2041         estimate D2E/DX2                !
 ! A164  A(76,82,86)           131.9983         estimate D2E/DX2                !
 ! A165  A(80,82,86)           104.7975         estimate D2E/DX2                !
 ! A166  A(80,83,84)           125.32           estimate D2E/DX2                !
 ! A167  A(80,83,85)           109.2472         estimate D2E/DX2                !
 ! A168  A(84,83,85)           125.4309         estimate D2E/DX2                !
 ! A169  A(1,85,83)            124.8366         estimate D2E/DX2                !
 ! A170  A(1,85,86)            127.3416         estimate D2E/DX2                !
 ! A171  A(83,85,86)           107.8204         estimate D2E/DX2                !
 ! A172  A(82,86,85)           109.1921         estimate D2E/DX2                !
 ! A173  A(82,86,87)           129.5521         estimate D2E/DX2                !
 ! A174  A(85,86,87)           121.254          estimate D2E/DX2                !
 ! A175  L(2,1,4,3,-1)         179.9142         estimate D2E/DX2                !
 ! A176  L(3,1,5,2,-1)         179.882          estimate D2E/DX2                !
 ! A177  L(73,1,85,2,-1)       182.2002         estimate D2E/DX2                !
 ! A178  L(2,1,4,3,-2)         179.9535         estimate D2E/DX2                !
 ! A179  L(3,1,5,2,-2)         180.0496         estimate D2E/DX2                !
 ! A180  L(73,1,85,2,-2)       179.9134         estimate D2E/DX2                !
 ! D1    D(3,1,2,6)           -166.0359         estimate D2E/DX2                !
 ! D2    D(3,1,2,9)             13.8128         estimate D2E/DX2                !
 ! D3    D(5,1,2,6)             13.9145         estimate D2E/DX2                !
 ! D4    D(5,1,2,9)           -166.2368         estimate D2E/DX2                !
 ! D5    D(73,1,2,6)           104.9979         estimate D2E/DX2                !
 ! D6    D(73,1,2,9)           -75.1535         estimate D2E/DX2                !
 ! D7    D(85,1,2,6)           -74.9155         estimate D2E/DX2                !
 ! D8    D(85,1,2,9)           104.9331         estimate D2E/DX2                !
 ! D9    D(2,1,3,10)           -14.3364         estimate D2E/DX2                !
 ! D10   D(2,1,3,13)           168.0067         estimate D2E/DX2                !
 ! D11   D(4,1,3,10)           165.7102         estimate D2E/DX2                !
 ! D12   D(4,1,3,13)           -11.9468         estimate D2E/DX2                !
 ! D13   D(73,1,3,10)           76.844          estimate D2E/DX2                !
 ! D14   D(73,1,3,13)         -100.813          estimate D2E/DX2                !
 ! D15   D(85,1,3,10)         -105.3564         estimate D2E/DX2                !
 ! D16   D(85,1,3,13)           76.9867         estimate D2E/DX2                !
 ! D17   D(3,1,4,14)            12.1785         estimate D2E/DX2                !
 ! D18   D(3,1,4,17)          -166.8531         estimate D2E/DX2                !
 ! D19   D(5,1,4,14)          -167.7718         estimate D2E/DX2                !
 ! D20   D(5,1,4,17)            13.1966         estimate D2E/DX2                !
 ! D21   D(73,1,4,14)          101.1466         estimate D2E/DX2                !
 ! D22   D(73,1,4,17)          -77.885          estimate D2E/DX2                !
 ! D23   D(85,1,4,14)          -78.9433         estimate D2E/DX2                !
 ! D24   D(85,1,4,17)          102.0251         estimate D2E/DX2                !
 ! D25   D(2,1,5,18)           167.2698         estimate D2E/DX2                !
 ! D26   D(2,1,5,21)           -14.2811         estimate D2E/DX2                !
 ! D27   D(4,1,5,18)           -12.7768         estimate D2E/DX2                !
 ! D28   D(4,1,5,21)           165.6723         estimate D2E/DX2                !
 ! D29   D(73,1,5,18)           76.0915         estimate D2E/DX2                !
 ! D30   D(73,1,5,21)         -105.4594         estimate D2E/DX2                !
 ! D31   D(85,1,5,18)         -101.7079         estimate D2E/DX2                !
 ! D32   D(85,1,5,21)           76.7412         estimate D2E/DX2                !
 ! D33   D(2,1,73,71)          -54.0589         estimate D2E/DX2                !
 ! D34   D(2,1,73,74)          127.1336         estimate D2E/DX2                !
 ! D35   D(3,1,73,71)         -143.8853         estimate D2E/DX2                !
 ! D36   D(3,1,73,74)           37.3072         estimate D2E/DX2                !
 ! D37   D(4,1,73,71)          126.0277         estimate D2E/DX2                !
 ! D38   D(4,1,73,74)          -52.7798         estimate D2E/DX2                !
 ! D39   D(5,1,73,71)           35.9977         estimate D2E/DX2                !
 ! D40   D(5,1,73,74)         -142.8097         estimate D2E/DX2                !
 ! D41   D(2,1,85,83)          -53.1485         estimate D2E/DX2                !
 ! D42   D(2,1,85,86)          127.3397         estimate D2E/DX2                !
 ! D43   D(3,1,85,83)           36.7192         estimate D2E/DX2                !
 ! D44   D(3,1,85,86)         -142.7927         estimate D2E/DX2                !
 ! D45   D(4,1,85,83)          126.7649         estimate D2E/DX2                !
 ! D46   D(4,1,85,86)          -52.747          estimate D2E/DX2                !
 ! D47   D(5,1,85,83)         -143.1619         estimate D2E/DX2                !
 ! D48   D(5,1,85,86)           37.3262         estimate D2E/DX2                !
 ! D49   D(1,2,6,7)            179.2105         estimate D2E/DX2                !
 ! D50   D(1,2,6,22)            -6.4386         estimate D2E/DX2                !
 ! D51   D(9,2,6,7)             -0.6641         estimate D2E/DX2                !
 ! D52   D(9,2,6,22)           173.6869         estimate D2E/DX2                !
 ! D53   D(1,2,9,8)            179.3519         estimate D2E/DX2                !
 ! D54   D(1,2,9,24)            -6.324          estimate D2E/DX2                !
 ! D55   D(6,2,9,8)             -0.7738         estimate D2E/DX2                !
 ! D56   D(6,2,9,24)           173.5503         estimate D2E/DX2                !
 ! D57   D(1,3,10,11)         -177.8708         estimate D2E/DX2                !
 ! D58   D(1,3,10,24)            7.2421         estimate D2E/DX2                !
 ! D59   D(13,3,10,11)           0.1841         estimate D2E/DX2                !
 ! D60   D(13,3,10,24)        -174.7029         estimate D2E/DX2                !
 ! D61   D(1,3,13,12)          179.191          estimate D2E/DX2                !
 ! D62   D(1,3,13,26)            5.2976         estimate D2E/DX2                !
 ! D63   D(10,3,13,12)           1.1321         estimate D2E/DX2                !
 ! D64   D(10,3,13,26)        -172.7612         estimate D2E/DX2                !
 ! D65   D(1,4,14,15)         -179.7829         estimate D2E/DX2                !
 ! D66   D(1,4,14,26)           -5.8506         estimate D2E/DX2                !
 ! D67   D(17,4,14,15)          -0.5904         estimate D2E/DX2                !
 ! D68   D(17,4,14,26)         173.3419         estimate D2E/DX2                !
 ! D69   D(1,4,17,16)          178.564          estimate D2E/DX2                !
 ! D70   D(1,4,17,28)           -6.1561         estimate D2E/DX2                !
 ! D71   D(14,4,17,16)          -0.6295         estimate D2E/DX2                !
 ! D72   D(14,4,17,28)         174.6504         estimate D2E/DX2                !
 ! D73   D(1,5,18,19)         -179.8455         estimate D2E/DX2                !
 ! D74   D(1,5,18,28)            5.168          estimate D2E/DX2                !
 ! D75   D(21,5,18,19)           1.4435         estimate D2E/DX2                !
 ! D76   D(21,5,18,28)        -173.5429         estimate D2E/DX2                !
 ! D77   D(1,5,21,20)         -178.3892         estimate D2E/DX2                !
 ! D78   D(1,5,21,22)            7.0281         estimate D2E/DX2                !
 ! D79   D(18,5,21,20)           0.3216         estimate D2E/DX2                !
 ! D80   D(18,5,21,22)        -174.2611         estimate D2E/DX2                !
 ! D81   D(2,6,7,8)              1.8939         estimate D2E/DX2                !
 ! D82   D(2,6,7,30)          -179.4191         estimate D2E/DX2                !
 ! D83   D(22,6,7,8)          -172.5509         estimate D2E/DX2                !
 ! D84   D(22,6,7,30)            6.1361         estimate D2E/DX2                !
 ! D85   D(2,6,22,21)           -7.1262         estimate D2E/DX2                !
 ! D86   D(2,6,22,23)         -179.6708         estimate D2E/DX2                !
 ! D87   D(7,6,22,21)          166.5069         estimate D2E/DX2                !
 ! D88   D(7,6,22,23)           -6.0377         estimate D2E/DX2                !
 ! D89   D(6,7,8,9)             -2.2346         estimate D2E/DX2                !
 ! D90   D(6,7,8,34)           179.168          estimate D2E/DX2                !
 ! D91   D(30,7,8,9)           179.1598         estimate D2E/DX2                !
 ! D92   D(30,7,8,34)            0.5624         estimate D2E/DX2                !
 ! D93   D(6,7,30,31)           56.3931         estimate D2E/DX2                !
 ! D94   D(6,7,30,32)          -63.3852         estimate D2E/DX2                !
 ! D95   D(6,7,30,33)          176.4593         estimate D2E/DX2                !
 ! D96   D(8,7,30,31)         -125.2307         estimate D2E/DX2                !
 ! D97   D(8,7,30,32)          114.9911         estimate D2E/DX2                !
 ! D98   D(8,7,30,33)           -5.1644         estimate D2E/DX2                !
 ! D99   D(7,8,9,2)              1.9634         estimate D2E/DX2                !
 ! D100  D(7,8,9,24)          -172.4499         estimate D2E/DX2                !
 ! D101  D(34,8,9,2)          -179.3568         estimate D2E/DX2                !
 ! D102  D(34,8,9,24)            6.2298         estimate D2E/DX2                !
 ! D103  D(7,8,34,35)         -124.9491         estimate D2E/DX2                !
 ! D104  D(7,8,34,36)          115.2715         estimate D2E/DX2                !
 ! D105  D(7,8,34,37)           -4.8912         estimate D2E/DX2                !
 ! D106  D(9,8,34,35)           56.684          estimate D2E/DX2                !
 ! D107  D(9,8,34,36)          -63.0954         estimate D2E/DX2                !
 ! D108  D(9,8,34,37)          176.7419         estimate D2E/DX2                !
 ! D109  D(2,9,24,10)           -7.077          estimate D2E/DX2                !
 ! D110  D(2,9,24,25)          179.8028         estimate D2E/DX2                !
 ! D111  D(8,9,24,10)          166.5271         estimate D2E/DX2                !
 ! D112  D(8,9,24,25)           -6.5931         estimate D2E/DX2                !
 ! D113  D(3,10,11,12)          -1.4733         estimate D2E/DX2                !
 ! D114  D(3,10,11,60)         179.5218         estimate D2E/DX2                !
 ! D115  D(24,10,11,12)        173.4212         estimate D2E/DX2                !
 ! D116  D(24,10,11,60)         -5.5836         estimate D2E/DX2                !
 ! D117  D(3,10,24,9)            6.4855         estimate D2E/DX2                !
 ! D118  D(3,10,24,25)         179.5972         estimate D2E/DX2                !
 ! D119  D(11,10,24,9)        -167.7304         estimate D2E/DX2                !
 ! D120  D(11,10,24,25)          5.3813         estimate D2E/DX2                !
 ! D121  D(10,11,12,13)          2.0363         estimate D2E/DX2                !
 ! D122  D(10,11,12,56)       -179.4438         estimate D2E/DX2                !
 ! D123  D(60,11,12,13)       -179.0255         estimate D2E/DX2                !
 ! D124  D(60,11,12,56)         -0.5057         estimate D2E/DX2                !
 ! D125  D(10,11,60,61)       -177.9325         estimate D2E/DX2                !
 ! D126  D(10,11,60,62)         61.8933         estimate D2E/DX2                !
 ! D127  D(10,11,60,63)        -57.8844         estimate D2E/DX2                !
 ! D128  D(12,11,60,61)          3.3043         estimate D2E/DX2                !
 ! D129  D(12,11,60,62)       -116.8699         estimate D2E/DX2                !
 ! D130  D(12,11,60,63)        123.3525         estimate D2E/DX2                !
 ! D131  D(11,12,13,3)          -2.0671         estimate D2E/DX2                !
 ! D132  D(11,12,13,26)        171.8795         estimate D2E/DX2                !
 ! D133  D(56,12,13,3)         179.3219         estimate D2E/DX2                !
 ! D134  D(56,12,13,26)         -6.7314         estimate D2E/DX2                !
 ! D135  D(11,12,56,57)       -115.6128         estimate D2E/DX2                !
 ! D136  D(11,12,56,58)        124.5997         estimate D2E/DX2                !
 ! D137  D(11,12,56,59)          4.4991         estimate D2E/DX2                !
 ! D138  D(13,12,56,57)         62.6621         estimate D2E/DX2                !
 ! D139  D(13,12,56,58)        -57.1255         estimate D2E/DX2                !
 ! D140  D(13,12,56,59)       -177.2261         estimate D2E/DX2                !
 ! D141  D(3,13,26,14)           6.4904         estimate D2E/DX2                !
 ! D142  D(3,13,26,27)         178.6603         estimate D2E/DX2                !
 ! D143  D(12,13,26,14)       -166.6168         estimate D2E/DX2                !
 ! D144  D(12,13,26,27)          5.5531         estimate D2E/DX2                !
 ! D145  D(4,14,15,16)           1.613          estimate D2E/DX2                !
 ! D146  D(4,14,15,51)        -177.7383         estimate D2E/DX2                !
 ! D147  D(26,14,15,16)       -172.4071         estimate D2E/DX2                !
 ! D148  D(26,14,15,51)          8.2416         estimate D2E/DX2                !
 ! D149  D(4,14,26,13)          -6.2349         estimate D2E/DX2                !
 ! D150  D(4,14,26,27)        -178.3991         estimate D2E/DX2                !
 ! D151  D(15,14,26,13)        166.9153         estimate D2E/DX2                !
 ! D152  D(15,14,26,27)         -5.2489         estimate D2E/DX2                !
 ! D153  D(14,15,16,17)         -1.8802         estimate D2E/DX2                !
 ! D154  D(14,15,16,47)       -178.4338         estimate D2E/DX2                !
 ! D155  D(51,15,16,17)        177.4293         estimate D2E/DX2                !
 ! D156  D(51,15,16,47)          0.8758         estimate D2E/DX2                !
 ! D157  D(14,15,51,52)         34.1522         estimate D2E/DX2                !
 ! D158  D(14,15,51,53)       -145.9462         estimate D2E/DX2                !
 ! D159  D(16,15,51,52)       -145.0433         estimate D2E/DX2                !
 ! D160  D(16,15,51,53)         34.8583         estimate D2E/DX2                !
 ! D161  D(15,16,17,4)           1.6367         estimate D2E/DX2                !
 ! D162  D(15,16,17,28)       -173.684          estimate D2E/DX2                !
 ! D163  D(47,16,17,4)         178.2929         estimate D2E/DX2                !
 ! D164  D(47,16,17,28)          2.9722         estimate D2E/DX2                !
 ! D165  D(15,16,47,48)        -96.8011         estimate D2E/DX2                !
 ! D166  D(15,16,47,49)        142.7115         estimate D2E/DX2                !
 ! D167  D(15,16,47,50)         22.6725         estimate D2E/DX2                !
 ! D168  D(17,16,47,48)         87.2812         estimate D2E/DX2                !
 ! D169  D(17,16,47,49)        -33.2061         estimate D2E/DX2                !
 ! D170  D(17,16,47,50)       -153.2452         estimate D2E/DX2                !
 ! D171  D(4,17,28,18)          -7.3495         estimate D2E/DX2                !
 ! D172  D(4,17,28,29)         178.4522         estimate D2E/DX2                !
 ! D173  D(16,17,28,18)        167.3179         estimate D2E/DX2                !
 ! D174  D(16,17,28,29)         -6.8804         estimate D2E/DX2                !
 ! D175  D(5,18,19,20)          -2.7089         estimate D2E/DX2                !
 ! D176  D(5,18,19,42)        -179.9707         estimate D2E/DX2                !
 ! D177  D(28,18,19,20)        172.2891         estimate D2E/DX2                !
 ! D178  D(28,18,19,42)         -4.9727         estimate D2E/DX2                !
 ! D179  D(5,18,28,17)           7.8375         estimate D2E/DX2                !
 ! D180  D(5,18,28,29)        -177.9784         estimate D2E/DX2                !
 ! D181  D(19,18,28,17)       -166.4714         estimate D2E/DX2                !
 ! D182  D(19,18,28,29)          7.7127         estimate D2E/DX2                !
 ! D183  D(18,19,20,21)          2.7198         estimate D2E/DX2                !
 ! D184  D(18,19,20,38)       -175.9684         estimate D2E/DX2                !
 ! D185  D(42,19,20,21)        179.8237         estimate D2E/DX2                !
 ! D186  D(42,19,20,38)          1.1355         estimate D2E/DX2                !
 ! D187  D(18,19,42,43)         30.994          estimate D2E/DX2                !
 ! D188  D(18,19,42,44)       -148.9555         estimate D2E/DX2                !
 ! D189  D(20,19,42,43)       -145.6152         estimate D2E/DX2                !
 ! D190  D(20,19,42,44)         34.4353         estimate D2E/DX2                !
 ! D191  D(19,20,21,5)          -2.0127         estimate D2E/DX2                !
 ! D192  D(19,20,21,22)        172.5729         estimate D2E/DX2                !
 ! D193  D(38,20,21,5)         176.731          estimate D2E/DX2                !
 ! D194  D(38,20,21,22)         -8.6834         estimate D2E/DX2                !
 ! D195  D(19,20,38,39)        -95.7508         estimate D2E/DX2                !
 ! D196  D(19,20,38,40)        143.7582         estimate D2E/DX2                !
 ! D197  D(19,20,38,41)         23.755          estimate D2E/DX2                !
 ! D198  D(21,20,38,39)         85.794          estimate D2E/DX2                !
 ! D199  D(21,20,38,40)        -34.6969         estimate D2E/DX2                !
 ! D200  D(21,20,38,41)       -154.7001         estimate D2E/DX2                !
 ! D201  D(5,21,22,6)            6.6938         estimate D2E/DX2                !
 ! D202  D(5,21,22,23)         179.2188         estimate D2E/DX2                !
 ! D203  D(20,21,22,6)        -167.1854         estimate D2E/DX2                !
 ! D204  D(20,21,22,23)          5.3395         estimate D2E/DX2                !
 ! D205  D(19,42,44,45)          2.6949         estimate D2E/DX2                !
 ! D206  D(19,42,44,46)       -178.8023         estimate D2E/DX2                !
 ! D207  D(43,42,44,45)       -177.2538         estimate D2E/DX2                !
 ! D208  D(43,42,44,46)          1.249          estimate D2E/DX2                !
 ! D209  D(15,51,53,54)          2.8766         estimate D2E/DX2                !
 ! D210  D(15,51,53,55)       -178.6767         estimate D2E/DX2                !
 ! D211  D(52,51,53,54)       -177.2237         estimate D2E/DX2                !
 ! D212  D(52,51,53,55)          1.223          estimate D2E/DX2                !
 ! D213  D(65,64,70,68)         60.6317         estimate D2E/DX2                !
 ! D214  D(65,64,70,74)       -119.5072         estimate D2E/DX2                !
 ! D215  D(66,64,70,68)        -60.4977         estimate D2E/DX2                !
 ! D216  D(66,64,70,74)        119.3634         estimate D2E/DX2                !
 ! D217  D(67,64,70,68)       -179.9224         estimate D2E/DX2                !
 ! D218  D(67,64,70,74)         -0.0613         estimate D2E/DX2                !
 ! D219  D(69,68,70,64)         -0.1781         estimate D2E/DX2                !
 ! D220  D(69,68,70,74)        179.9287         estimate D2E/DX2                !
 ! D221  D(71,68,70,64)        179.582          estimate D2E/DX2                !
 ! D222  D(71,68,70,74)         -0.3112         estimate D2E/DX2                !
 ! D223  D(69,68,71,72)         -0.2954         estimate D2E/DX2                !
 ! D224  D(69,68,71,73)       -179.8916         estimate D2E/DX2                !
 ! D225  D(70,68,71,72)        179.9441         estimate D2E/DX2                !
 ! D226  D(70,68,71,73)          0.3479         estimate D2E/DX2                !
 ! D227  D(64,70,74,73)       -179.7113         estimate D2E/DX2                !
 ! D228  D(64,70,74,75)         -0.3171         estimate D2E/DX2                !
 ! D229  D(68,70,74,73)          0.1684         estimate D2E/DX2                !
 ! D230  D(68,70,74,75)        179.5627         estimate D2E/DX2                !
 ! D231  D(68,71,73,1)        -179.2399         estimate D2E/DX2                !
 ! D232  D(68,71,73,74)         -0.2359         estimate D2E/DX2                !
 ! D233  D(72,71,73,1)           1.1647         estimate D2E/DX2                !
 ! D234  D(72,71,73,74)       -179.8314         estimate D2E/DX2                !
 ! D235  D(1,73,74,70)         179.0083         estimate D2E/DX2                !
 ! D236  D(1,73,74,75)          -0.4454         estimate D2E/DX2                !
 ! D237  D(71,73,74,70)          0.0364         estimate D2E/DX2                !
 ! D238  D(71,73,74,75)       -179.4173         estimate D2E/DX2                !
 ! D239  D(77,76,82,80)         60.4838         estimate D2E/DX2                !
 ! D240  D(77,76,82,86)       -119.6161         estimate D2E/DX2                !
 ! D241  D(78,76,82,80)        -60.6577         estimate D2E/DX2                !
 ! D242  D(78,76,82,86)        119.2424         estimate D2E/DX2                !
 ! D243  D(79,76,82,80)        179.9073         estimate D2E/DX2                !
 ! D244  D(79,76,82,86)         -0.1926         estimate D2E/DX2                !
 ! D245  D(81,80,82,76)         -0.3288         estimate D2E/DX2                !
 ! D246  D(81,80,82,86)        179.7479         estimate D2E/DX2                !
 ! D247  D(83,80,82,76)        179.6454         estimate D2E/DX2                !
 ! D248  D(83,80,82,86)         -0.2779         estimate D2E/DX2                !
 ! D249  D(81,80,83,84)         -0.206          estimate D2E/DX2                !
 ! D250  D(81,80,83,85)       -179.7168         estimate D2E/DX2                !
 ! D251  D(82,80,83,84)        179.8198         estimate D2E/DX2                !
 ! D252  D(82,80,83,85)          0.3089         estimate D2E/DX2                !
 ! D253  D(76,82,86,85)       -179.7616         estimate D2E/DX2                !
 ! D254  D(76,82,86,87)         -0.262          estimate D2E/DX2                !
 ! D255  D(80,82,86,85)          0.152          estimate D2E/DX2                !
 ! D256  D(80,82,86,87)        179.6516         estimate D2E/DX2                !
 ! D257  D(80,83,85,1)        -179.8004         estimate D2E/DX2                !
 ! D258  D(80,83,85,86)         -0.208          estimate D2E/DX2                !
 ! D259  D(84,83,85,1)           0.6895         estimate D2E/DX2                !
 ! D260  D(84,83,85,86)       -179.7181         estimate D2E/DX2                !
 ! D261  D(1,85,86,82)         179.6089         estimate D2E/DX2                !
 ! D262  D(1,85,86,87)           0.0603         estimate D2E/DX2                !
 ! D263  D(83,85,86,82)          0.0298         estimate D2E/DX2                !
 ! D264  D(83,85,86,87)       -179.5189         estimate D2E/DX2                !
 --------------------------------------------------------------------------------
 Trust Radius=3.00D-01 FncErr=1.00D-07 GrdErr=1.00D-06 EigMax=2.50D+02 EigMin=1.00D-04
 Number of steps in this run=    522 maximum allowed number of steps=    522.
 GradGradGradGradGradGradGradGradGradGradGradGradGradGradGradGradGradGrad

 Stoichiometry    C38H40FeN8(1+,2)
 Framework group  C1[X(C38H40FeN8)]
 Deg. of freedom   255
 Full point group                 C1      NOp   1
 Largest Abelian subgroup         C1      NOp   1
 Largest concise Abelian subgroup C1      NOp   1
                         Standard orientation:                         
 ---------------------------------------------------------------------
 Center     Atomic      Atomic             Coordinates (Angstroms)
 Number     Number       Type             X           Y           Z
 ---------------------------------------------------------------------
      1         26           0        0.026161    0.216243    0.029330
      2          7           0       -0.566084    2.069406   -0.020095
      3          7           0        1.898044    0.824770    0.208579
      4          7           0        0.627927   -1.657547    0.081187
      5          7           0       -1.849132   -0.389064   -0.148510
      6          6           0       -1.846099    2.528177    0.125223
      7          6           0       -1.882709    3.967319    0.046808
      8          6           0       -0.597977    4.373034   -0.193057
      9          6           0        0.209554    3.178970   -0.203891
     10          6           0        2.378406    2.076801   -0.010924
     11          6           0        3.812546    2.121638    0.176114
     12          6           0        4.186412    0.862837    0.549551
     13          6           0        2.979771    0.063610    0.535342
     14          6           0        1.861932   -2.109321    0.427190
     15          6           0        1.919452   -3.549648    0.337631
     16          6           0        0.683665   -3.956665   -0.111895
     17          6           0       -0.106498   -2.761700   -0.241143
     18          6           0       -2.279164   -1.648427   -0.433644
     19          6           0       -3.727078   -1.695970   -0.483151
     20          6           0       -4.159591   -0.433474   -0.156799
     21          6           0       -2.971145    0.362527    0.018073
     22          6           0       -2.971587    1.734204    0.210199
     23          1           0       -3.929818    2.230868    0.318908
     24          6           0        1.590084    3.183704   -0.266686
     25          1           0        2.086247    4.136378   -0.420186
     26          6           0        2.958177   -1.306623    0.698623
     27          1           0        3.894908   -1.798318    0.937901
     28          6           0       -1.456306   -2.752156   -0.549403
     29          1           0       -1.915339   -3.697852   -0.813382
     30          6           0       -3.120809    4.790028    0.178025
     31          1           0       -3.637264    4.589988    1.124700
     32          1           0       -3.833039    4.579939   -0.629888
     33          1           0       -2.898450    5.859673    0.147158
     34          6           0       -0.066234    5.754742   -0.380738
     35          1           0        0.480137    5.849527   -1.327034
     36          1           0        0.627270    6.033492    0.422668
     37          1           0       -0.868611    6.496778   -0.391449
     38          6           0       -5.557198    0.053625    0.022644
     39          1           0       -5.954083    0.521723   -0.888037
     40          1           0       -5.626107    0.794657    0.826370
     41          1           0       -6.221679   -0.779109    0.274557
     42          6           0       -4.510436   -2.890681   -0.763180
     43          1           0       -4.081032   -3.840210   -0.443066
     44          6           0       -5.701179   -2.910245   -1.376484
     45          1           0       -6.168919   -2.008331   -1.761277
     46          1           0       -6.236730   -3.842007   -1.533952
     47          6           0        0.203269   -5.348575   -0.346082
     48          1           0        0.295723   -5.643148   -1.399650
     49          1           0       -0.848041   -5.470900   -0.065482
     50          1           0        0.791454   -6.058948    0.243561
     51          6           0        3.083672   -4.351911    0.685733
     52          1           0        3.693019   -3.983507    1.511729
     53          6           0        3.453787   -5.487772    0.079953
     54          1           0        2.918377   -5.887340   -0.776745
     55          1           0        4.326490   -6.042980    0.411707
     56          6           0        5.543225    0.338904    0.882903
     57          1           0        5.868818   -0.424909    0.165454
     58          1           0        5.563367   -0.122815    1.877705
     59          1           0        6.293631    1.133672    0.876331
     60          6           0        4.648659    3.345085    0.001437
     61          1           0        5.709273    3.133390    0.159763
     62          1           0        4.363295    4.135046    0.707714
     63          1           0        4.544834    3.761473   -1.008109
     64          6           0        1.956407   -0.340855   -5.125688
     65          1           0        2.096682    0.556596   -5.740310
     66          1           0        1.518728   -1.119400   -5.762152
     67          1           0        2.944562   -0.685785   -4.811624
     68          7           0       -0.187501    0.381897   -4.007725
     69          1           0       -0.694695    0.569499   -4.860530
     70          6           0        1.116817   -0.067258   -3.929721
     71          6           0       -0.676236    0.524465   -2.760498
     72          1           0       -1.670887    0.861757   -2.515693
     73          7           0        0.253320    0.195916   -1.890517
     74          6           0        1.370219   -0.173622   -2.590305
     75          1           0        2.266664   -0.495561   -2.084207
     76          6           0       -1.327806   -1.085577    5.234229
     77          1           0       -1.981031   -0.407016    5.796083
     78          1           0       -0.533519   -1.424595    5.910214
     79          1           0       -1.920371   -1.959777    4.953744
     80          7           0        0.013691    0.692640    4.047850
     81          1           0        0.290766    1.190975    4.881275
     82          6           0       -0.777465   -0.439671    4.013556
     83          6           0        0.356790    1.024739    2.788057
     84          1           0        0.969093    1.867962    2.510310
     85          7           0       -0.181238    0.164971    1.951375
     86          6           0       -0.886494   -0.749441    2.686255
     87          1           0       -1.412101   -1.563022    2.211794
 ---------------------------------------------------------------------
 Rotational constants (GHZ):           0.0782188           0.0763763           0.0594471
 Standard basis: def2TZVP (5D, 7F)
 There are  1948 symmetry adapted cartesian basis functions of A   symmetry.
 There are  1711 symmetry adapted basis functions of A   symmetry.
  1711 basis functions,  2768 primitive gaussians,  1948 cartesian basis functions
   175 alpha electrons      174 beta electrons
       nuclear repulsion energy      7211.7790266487 Hartrees.
 NAtoms=   87 NActive=   87 NUniq=   87 SFac= 1.00D+00 NAtFMM=   60 NAOKFM=T Big=T
 Integral buffers will be    131072 words long.
 Raffenetti 2 integral format.
 Two-electron integral symmetry is turned on.
 R6APFD:  NTU= -4 IXU= 1 FactS= 1.050
 Nuclear repulsion after empirical dispersion term =     7211.6033667866 Hartrees.
 One-electron integrals computed using PRISM.
   1 Symmetry operations used in ECPInt.
 ECPInt:  NShTT=  232221 NPrTT=  716997 LenC2=  183691 LenP2D=  372996.
 LDataN:  DoStor=T MaxTD1= 6 Len=  172
 Number of processors reduced to  20 by ecpmxn.
 NBasis=  1711 RedAO= T EigKep=  4.09D-06  NBF=  1711
 NBsUse=  1711 1.00D-06 EigRej= -1.00D+00 NBFU=  1711
 Initial guess from the checkpoint file:  "1aom_12_nbo.chk"
 B after Tr=     0.000000    0.000000    0.000000
         Rot=    1.000000    0.000000    0.000000    0.000000 Ang=   0.00 deg.
 Initial guess <Sx>= 0.0000 <Sy>= 0.0000 <Sz>= 0.5000 <S**2>= 0.7656 S= 0.5078
 Requested convergence on RMS density matrix=1.00D-08 within 999 cycles.
 Requested convergence on MAX density matrix=1.00D-06.
 Requested convergence on             energy=1.00D-06.
 No special actions if energy rises.
 Restarting incremental Fock formation.
 SCF Done:  E(UAPFD) =  -3172.91563630     A.U. after   32 cycles
            NFock= 32  Conv=0.42D-09     -V/T= 2.0037
 <Sx>= 0.0000 <Sy>= 0.0000 <Sz>= 0.5000 <S**2>= 0.7667 S= 0.5083
 <L.S>=  0.00000000000    
 Annihilation of the first spin contaminant:
 S**2 before annihilation     0.7667,   after     0.7502

 **********************************************************************

            Population analysis using the SCF Density.

 **********************************************************************

 Orbital symmetries:
 Alpha Orbitals:
       Occupied  (A) (A) (A) (A) (A) (A) (A) (A) (A) (A) (A) (A)
                 (A) (A) (A) (A) (A) (A) (A) (A) (A) (A) (A) (A)
                 (A) (A) (A) (A) (A) (A) (A) (A) (A) (A) (A) (A)
                 (A) (A) (A) (A) (A) (A) (A) (A) (A) (A) (A) (A)
                 (A) (A) (A) (A) (A) (A) (A) (A) (A) (A) (A) (A)
                 (A) (A) (A) (A) (A) (A) (A) (A) (A) (A) (A) (A)
                 (A) (A) (A) (A) (A) (A) (A) (A) (A) (A) (A) (A)
                 (A) (A) (A) (A) (A) (A) (A) (A) (A) (A) (A) (A)
                 (A) (A) (A) (A) (A) (A) (A) (A) (A) (A) (A) (A)
                 (A) (A) (A) (A) (A) (A) (A) (A) (A) (A) (A) (A)
                 (A) (A) (A) (A) (A) (A) (A) (A) (A) (A) (A) (A)
                 (A) (A) (A) (A) (A) (A) (A) (A) (A) (A) (A) (A)
                 (A) (A) (A) (A) (A) (A) (A) (A) (A) (A) (A) (A)
                 (A) (A) (A) (A) (A) (A) (A) (A) (A) (A) (A) (A)
                 (A) (A) (A) (A) (A) (A) (A)
       Virtual   (A) (A) (A) (A) (A) (A) (A) (A) (A) (A) (A) (A)
                 (A) (A) (A) (A) (A) (A) (A) (A) (A) (A) (A) (A)
                 (A) (A) (A) (A) (A) (A) (A) (A) (A) (A) (A) (A)
                 (A) (A) (A) (A) (A) (A) (A) (A) (A) (A) (A) (A)
                 (A) (A) (A) (A) (A) (A) (A) (A) (A) (A) (A) (A)
                 (A) (A) (A) (A) (A) (A) (A) (A) (A) (A) (A) (A)
                 (A) (A) (A) (A) (A) (A) (A) (A) (A) (A) (A) (A)
                 (A) (A) (A) (A) (A) (A) (A) (A) (A) (A) (A) (A)
                 (A) (A) (A) (A) (A) (A) (A) (A) (A) (A) (A) (A)
                 (A) (A) (A) (A) (A) (A) (A) (A) (A) (A) (A) (A)
                 (A) (A) (A) (A) (A) (A) (A) (A) (A) (A) (A) (A)
                 (A) (A) (A) (A) (A) (A) (A) (A) (A) (A) (A) (A)
                 (A) (A) (A) (A) (A) (A) (A) (A) (A) (A) (A) (A)
                 (A) (A) (A) (A) (A) (A) (A) (A) (A) (A) (A) (A)
                 (A) (A) (A) (A) (A) (A) (A) (A) (A) (A) (A) (A)
                 (A) (A) (A) (A) (A) (A) (A) (A) (A) (A) (A) (A)
                 (A) (A) (A) (A) (A) (A) (A) (A) (A) (A) (A) (A)
                 (A) (A) (A) (A) (A) (A) (A) (A) (A) (A) (A) (A)
                 (A) (A) (A) (A) (A) (A) (A) (A) (A) (A) (A) (A)
                 (A) (A) (A) (A) (A) (A) (A) (A) (A) (A) (A) (A)
                 (A) (A) (A) (A) (A) (A) (A) (A) (A) (A) (A) (A)
                 (A) (A) (A) (A) (A) (A) (A) (A) (A) (A) (A) (A)
                 (A) (A) (A) (A) (A) (A) (A) (A) (A) (A) (A) (A)
                 (A) (A) (A) (A) (A) (A) (A) (A) (A) (A) (A) (A)
                 (A) (A) (A) (A) (A) (A) (A) (A) (A) (A) (A) (A)
                 (A) (A) (A) (A) (A) (A) (A) (A) (A) (A) (A) (A)
                 (A) (A) (A) (A) (A) (A) (A) (A) (A) (A) (A) (A)
                 (A) (A) (A) (A) (A) (A) (A) (A) (A) (A) (A) (A)
                 (A) (A) (A) (A) (A) (A) (A) (A) (A) (A) (A) (A)
                 (A) (A) (A) (A) (A) (A) (A) (A) (A) (A) (A) (A)
                 (A) (A) (A) (A) (A) (A) (A) (A) (A) (A) (A) (A)
                 (A) (A) (A) (A) (A) (A) (A) (A) (A) (A) (A) (A)
                 (A) (A) (A) (A) (A) (A) (A) (A) (A) (A) (A) (A)
                 (A) (A) (A) (A) (A) (A) (A) (A) (A) (A) (A) (A)
                 (A) (A) (A) (A) (A) (A) (A) (A) (A) (A) (A) (A)
                 (A) (A) (A) (A) (A) (A) (A) (A) (A) (A) (A) (A)
                 (A) (A) (A) (A) (A) (A) (A) (A) (A) (A) (A) (A)
                 (A) (A) (A) (A) (A) (A) (A) (A) (A) (A) (A) (A)
                 (A) (A) (A) (A) (A) (A) (A) (A) (A) (A) (A) (A)
                 (A) (A) (A) (A) (A) (A) (A) (A) (A) (A) (A) (A)
                 (A) (A) (A) (A) (A) (A) (A) (A) (A) (A) (A) (A)
                 (A) (A) (A) (A) (A) (A) (A) (A) (A) (A) (A) (A)
                 (A) (A) (A) (A) (A) (A) (A) (A) (A) (A) (A) (A)
                 (A) (A) (A) (A) (A) (A) (A) (A) (A) (A) (A) (A)
                 (A) (A) (A) (A) (A) (A) (A) (A) (A) (A) (A) (A)
                 (A) (A) (A) (A) (A) (A) (A) (A) (A) (A) (A) (A)
                 (A) (A) (A) (A) (A) (A) (A) (A) (A) (A) (A) (A)
                 (A) (A) (A) (A) (A) (A) (A) (A) (A) (A) (A) (A)
                 (A) (A) (A) (A) (A) (A) (A) (A) (A) (A) (A) (A)
                 (A) (A) (A) (A) (A) (A) (A) (A) (A) (A) (A) (A)
                 (A) (A) (A) (A) (A) (A) (A) (A) (A) (A) (A) (A)
                 (A) (A) (A) (A) (A) (A) (A) (A) (A) (A) (A) (A)
                 (A) (A) (A) (A) (A) (A) (A) (A) (A) (A) (A) (A)
                 (A) (A) (A) (A) (A) (A) (A) (A) (A) (A) (A) (A)
                 (A) (A) (A) (A) (A) (A) (A) (A) (A) (A) (A) (A)
                 (A) (A) (A) (A) (A) (A) (A) (A) (A) (A) (A) (A)
                 (A) (A) (A) (A) (A) (A) (A) (A) (A) (A) (A) (A)
                 (A) (A) (A) (A) (A) (A) (A) (A) (A) (A) (A) (A)
                 (A) (A) (A) (A) (A) (A) (A) (A) (A) (A) (A) (A)
                 (A) (A) (A) (A) (A) (A) (A) (A) (A) (A) (A) (A)
                 (A) (A) (A) (A) (A) (A) (A) (A) (A) (A) (A) (A)
                 (A) (A) (A) (A) (A) (A) (A) (A) (A) (A) (A) (A)
                 (A) (A) (A) (A) (A) (A) (A) (A) (A) (A) (A) (A)
                 (A) (A) (A) (A) (A) (A) (A) (A) (A) (A) (A) (A)
                 (A) (A) (A) (A) (A) (A) (A) (A) (A) (A) (A) (A)
                 (A) (A) (A) (A) (A) (A) (A) (A) (A) (A) (A) (A)
                 (A) (A) (A) (A) (A) (A) (A) (A) (A) (A) (A) (A)
                 (A) (A) (A) (A) (A) (A) (A) (A) (A) (A) (A) (A)
                 (A) (A) (A) (A) (A) (A) (A) (A) (A) (A) (A) (A)
                 (A) (A) (A) (A) (A) (A) (A) (A) (A) (A) (A) (A)
                 (A) (A) (A) (A) (A) (A) (A) (A) (A) (A) (A) (A)
                 (A) (A) (A) (A) (A) (A) (A) (A) (A) (A) (A) (A)
                 (A) (A) (A) (A) (A) (A) (A) (A) (A) (A) (A) (A)
                 (A) (A) (A) (A) (A) (A) (A) (A) (A) (A) (A) (A)
                 (A) (A) (A) (A) (A) (A) (A) (A) (A) (A) (A) (A)
                 (A) (A) (A) (A) (A) (A) (A) (A) (A) (A) (A) (A)
                 (A) (A) (A) (A) (A) (A) (A) (A) (A) (A) (A) (A)
                 (A) (A) (A) (A) (A) (A) (A) (A) (A) (A) (A) (A)
                 (A) (A) (A) (A) (A) (A) (A) (A) (A) (A) (A) (A)
                 (A) (A) (A) (A) (A) (A) (A) (A) (A) (A) (A) (A)
                 (A) (A) (A) (A) (A) (A) (A) (A) (A) (A) (A) (A)
                 (A) (A) (A) (A) (A) (A) (A) (A) (A) (A) (A) (A)
                 (A) (A) (A) (A) (A) (A) (A) (A) (A) (A) (A) (A)
                 (A) (A) (A) (A) (A) (A) (A) (A) (A) (A) (A) (A)
                 (A) (A) (A) (A) (A) (A) (A) (A) (A) (A) (A) (A)
                 (A) (A) (A) (A) (A) (A) (A) (A) (A) (A) (A) (A)
                 (A) (A) (A) (A) (A) (A) (A) (A) (A) (A) (A) (A)
                 (A) (A) (A) (A) (A) (A) (A) (A) (A) (A) (A) (A)
                 (A) (A) (A) (A) (A) (A) (A) (A) (A) (A) (A) (A)
                 (A) (A) (A) (A) (A) (A) (A) (A) (A) (A) (A) (A)
                 (A) (A) (A) (A) (A) (A) (A) (A) (A) (A) (A) (A)
                 (A) (A) (A) (A) (A) (A) (A) (A) (A) (A) (A) (A)
                 (A) (A) (A) (A) (A) (A) (A) (A) (A) (A) (A) (A)
                 (A) (A) (A) (A) (A) (A) (A) (A) (A) (A) (A) (A)
                 (A) (A) (A) (A) (A) (A) (A) (A) (A) (A) (A) (A)
                 (A) (A) (A) (A) (A) (A) (A) (A) (A) (A) (A) (A)
                 (A) (A) (A) (A) (A) (A) (A) (A) (A) (A) (A) (A)
                 (A) (A) (A) (A) (A) (A) (A) (A) (A) (A) (A) (A)
                 (A) (A) (A) (A) (A) (A) (A) (A) (A) (A) (A) (A)
                 (A) (A) (A) (A) (A) (A) (A) (A) (A) (A) (A) (A)
                 (A) (A) (A) (A) (A) (A) (A) (A) (A) (A) (A) (A)
                 (A) (A) (A) (A) (A) (A) (A) (A) (A) (A) (A) (A)
                 (A) (A) (A) (A) (A) (A) (A) (A) (A) (A) (A) (A)
                 (A) (A) (A) (A) (A) (A) (A) (A) (A) (A) (A) (A)
                 (A) (A) (A) (A) (A) (A) (A) (A) (A) (A) (A) (A)
                 (A) (A) (A) (A) (A) (A) (A) (A) (A) (A) (A) (A)
                 (A) (A) (A) (A) (A) (A) (A) (A) (A) (A) (A) (A)
                 (A) (A) (A) (A) (A) (A) (A) (A) (A) (A) (A) (A)
                 (A) (A) (A) (A) (A) (A) (A) (A) (A) (A) (A) (A)
                 (A) (A) (A) (A) (A) (A) (A) (A) (A) (A) (A) (A)
                 (A) (A) (A) (A) (A) (A) (A) (A) (A) (A) (A) (A)
                 (A) (A) (A) (A) (A) (A) (A) (A) (A) (A) (A) (A)
                 (A) (A) (A) (A) (A) (A) (A) (A) (A) (A) (A) (A)
                 (A) (A) (A) (A) (A) (A) (A) (A) (A) (A) (A) (A)
                 (A) (A) (A) (A) (A) (A) (A) (A) (A) (A) (A) (A)
                 (A) (A) (A) (A) (A) (A) (A) (A) (A) (A) (A) (A)
                 (A) (A) (A) (A) (A) (A) (A) (A) (A) (A) (A) (A)
                 (A) (A) (A) (A) (A) (A) (A) (A) (A) (A) (A) (A)
                 (A) (A) (A) (A) (A) (A) (A) (A) (A) (A) (A) (A)
                 (A) (A) (A) (A) (A) (A) (A) (A) (A) (A) (A) (A)
                 (A) (A) (A) (A) (A) (A) (A) (A) (A) (A) (A) (A)
                 (A) (A) (A) (A) (A) (A) (A) (A) (A) (A) (A) (A)
                 (A) (A) (A) (A) (A) (A) (A) (A) (A) (A) (A) (A)
                 (A) (A) (A) (A) (A) (A) (A) (A) (A) (A) (A) (A)
                 (A) (A) (A) (A) (A) (A) (A) (A) (A) (A) (A) (A)
                 (A) (A) (A) (A) (A) (A) (A) (A) (A) (A) (A) (A)
                 (A) (A) (A) (A) (A) (A) (A) (A) (A) (A) (A) (A)
                 (A) (A) (A) (A) (A) (A) (A) (A) (A) (A) (A) (A)
 Beta  Orbitals:
       Occupied  (A) (A) (A) (A) (A) (A) (A) (A) (A) (A) (A) (A)
                 (A) (A) (A) (A) (A) (A) (A) (A) (A) (A) (A) (A)
                 (A) (A) (A) (A) (A) (A) (A) (A) (A) (A) (A) (A)
                 (A) (A) (A) (A) (A) (A) (A) (A) (A) (A) (A) (A)
                 (A) (A) (A) (A) (A) (A) (A) (A) (A) (A) (A) (A)
                 (A) (A) (A) (A) (A) (A) (A) (A) (A) (A) (A) (A)
                 (A) (A) (A) (A) (A) (A) (A) (A) (A) (A) (A) (A)
                 (A) (A) (A) (A) (A) (A) (A) (A) (A) (A) (A) (A)
                 (A) (A) (A) (A) (A) (A) (A) (A) (A) (A) (A) (A)
                 (A) (A) (A) (A) (A) (A) (A) (A) (A) (A) (A) (A)
                 (A) (A) (A) (A) (A) (A) (A) (A) (A) (A) (A) (A)
                 (A) (A) (A) (A) (A) (A) (A) (A) (A) (A) (A) (A)
                 (A) (A) (A) (A) (A) (A) (A) (A) (A) (A) (A) (A)
                 (A) (A) (A) (A) (A) (A) (A) (A) (A) (A) (A) (A)
                 (A) (A) (A) (A) (A) (A)
       Virtual   (A) (A) (A) (A) (A) (A) (A) (A) (A) (A) (A) (A)
                 (A) (A) (A) (A) (A) (A) (A) (A) (A) (A) (A) (A)
                 (A) (A) (A) (A) (A) (A) (A) (A) (A) (A) (A) (A)
                 (A) (A) (A) (A) (A) (A) (A) (A) (A) (A) (A) (A)
                 (A) (A) (A) (A) (A) (A) (A) (A) (A) (A) (A) (A)
                 (A) (A) (A) (A) (A) (A) (A) (A) (A) (A) (A) (A)
                 (A) (A) (A) (A) (A) (A) (A) (A) (A) (A) (A) (A)
                 (A) (A) (A) (A) (A) (A) (A) (A) (A) (A) (A) (A)
                 (A) (A) (A) (A) (A) (A) (A) (A) (A) (A) (A) (A)
                 (A) (A) (A) (A) (A) (A) (A) (A) (A) (A) (A) (A)
                 (A) (A) (A) (A) (A) (A) (A) (A) (A) (A) (A) (A)
                 (A) (A) (A) (A) (A) (A) (A) (A) (A) (A) (A) (A)
                 (A) (A) (A) (A) (A) (A) (A) (A) (A) (A) (A) (A)
                 (A) (A) (A) (A) (A) (A) (A) (A) (A) (A) (A) (A)
                 (A) (A) (A) (A) (A) (A) (A) (A) (A) (A) (A) (A)
                 (A) (A) (A) (A) (A) (A) (A) (A) (A) (A) (A) (A)
                 (A) (A) (A) (A) (A) (A) (A) (A) (A) (A) (A) (A)
                 (A) (A) (A) (A) (A) (A) (A) (A) (A) (A) (A) (A)
                 (A) (A) (A) (A) (A) (A) (A) (A) (A) (A) (A) (A)
                 (A) (A) (A) (A) (A) (A) (A) (A) (A) (A) (A) (A)
                 (A) (A) (A) (A) (A) (A) (A) (A) (A) (A) (A) (A)
                 (A) (A) (A) (A) (A) (A) (A) (A) (A) (A) (A) (A)
                 (A) (A) (A) (A) (A) (A) (A) (A) (A) (A) (A) (A)
                 (A) (A) (A) (A) (A) (A) (A) (A) (A) (A) (A) (A)
                 (A) (A) (A) (A) (A) (A) (A) (A) (A) (A) (A) (A)
                 (A) (A) (A) (A) (A) (A) (A) (A) (A) (A) (A) (A)
                 (A) (A) (A) (A) (A) (A) (A) (A) (A) (A) (A) (A)
                 (A) (A) (A) (A) (A) (A) (A) (A) (A) (A) (A) (A)
                 (A) (A) (A) (A) (A) (A) (A) (A) (A) (A) (A) (A)
                 (A) (A) (A) (A) (A) (A) (A) (A) (A) (A) (A) (A)
                 (A) (A) (A) (A) (A) (A) (A) (A) (A) (A) (A) (A)
                 (A) (A) (A) (A) (A) (A) (A) (A) (A) (A) (A) (A)
                 (A) (A) (A) (A) (A) (A) (A) (A) (A) (A) (A) (A)
                 (A) (A) (A) (A) (A) (A) (A) (A) (A) (A) (A) (A)
                 (A) (A) (A) (A) (A) (A) (A) (A) (A) (A) (A) (A)
                 (A) (A) (A) (A) (A) (A) (A) (A) (A) (A) (A) (A)
                 (A) (A) (A) (A) (A) (A) (A) (A) (A) (A) (A) (A)
                 (A) (A) (A) (A) (A) (A) (A) (A) (A) (A) (A) (A)
                 (A) (A) (A) (A) (A) (A) (A) (A) (A) (A) (A) (A)
                 (A) (A) (A) (A) (A) (A) (A) (A) (A) (A) (A) (A)
                 (A) (A) (A) (A) (A) (A) (A) (A) (A) (A) (A) (A)
[...]
   D121       0.03554   0.00005   0.00000   0.00216   0.00216   0.03770
   D122      -3.13189   0.00005   0.00000   0.00181   0.00181  -3.13008
   D123      -3.12458   0.00006   0.00000   0.00236   0.00236  -3.12222
   D124      -0.00883   0.00005   0.00000   0.00201   0.00201  -0.00682
   D125      -3.10551   0.00001   0.00000   0.00087   0.00087  -3.10464
   D126       1.08024   0.00001   0.00000   0.00084   0.00084   1.08109
   D127      -1.01027   0.00002   0.00000   0.00102   0.00102  -1.00925
   D128       0.05767   0.00000   0.00000   0.00065   0.00065   0.05832
   D129      -2.03976   0.00000   0.00000   0.00062   0.00062  -2.03914
   D130       2.15291   0.00002   0.00000   0.00080   0.00080   2.15370
   D131      -0.03608  -0.00004   0.00000  -0.00145  -0.00145  -0.03752
   D132       2.99986  -0.00003   0.00000  -0.00010  -0.00010   2.99976
   D133       3.12976  -0.00002   0.00000  -0.00107  -0.00107   3.12869
   D134      -0.11749  -0.00001   0.00000   0.00028   0.00028  -0.11721
   D135      -2.01782  -0.00001   0.00000   0.00015   0.00015  -2.01767
   D136       2.17467   0.00002   0.00000   0.00046   0.00046   2.17514
   D137       0.07852   0.00001   0.00000   0.00032   0.00032   0.07884
   D138       1.09366  -0.00002   0.00000  -0.00028  -0.00028   1.09338
   D139      -0.99703   0.00001   0.00000   0.00004   0.00004  -0.99699
   D140      -3.09318  -0.00000   0.00000  -0.00011  -0.00011  -3.09329
   D141       0.11328  -0.00008   0.00000  -0.00171  -0.00171   0.11157
   D142       3.11821   0.00005   0.00000   0.00298   0.00299   3.12120
   D143      -2.90801  -0.00004   0.00000  -0.00313  -0.00313  -2.91114
   D144       0.09692   0.00009   0.00000   0.00157   0.00157   0.09849
   D145       0.02815  -0.00003   0.00000  -0.00152  -0.00152   0.02663
   D146      -3.10212  -0.00005   0.00000  -0.00256  -0.00256  -3.10468
   D147      -3.00907  -0.00002   0.00000  -0.00130  -0.00130  -3.01038
   D148       0.14384  -0.00004   0.00000  -0.00235  -0.00235   0.14150
   D149      -0.10882   0.00007   0.00000   0.00150   0.00150  -0.10732
   D150      -3.11365  -0.00006   0.00000  -0.00323  -0.00323  -3.11688
   D151       2.91322   0.00001   0.00000   0.00117   0.00117   2.91439
   D152      -0.09161  -0.00013   0.00000  -0.00356  -0.00356  -0.09517
   D153      -0.03282  -0.00001   0.00000  -0.00018  -0.00018  -0.03300
   D154      -3.11426  -0.00003   0.00000  -0.00248  -0.00248  -3.11674
   D155       3.09673   0.00001   0.00000   0.00091   0.00091   3.09764
   D156       0.01529  -0.00002   0.00000  -0.00139  -0.00139   0.01389
   D157       0.59607  -0.00013   0.00000  -0.00765  -0.00765   0.58841
   D158      -2.54724  -0.00010   0.00000  -0.00630  -0.00630  -2.55354
   D159      -2.53148  -0.00015   0.00000  -0.00894  -0.00894  -2.54042
   D160       0.60839  -0.00012   0.00000  -0.00759  -0.00759   0.60081
   D161       0.02857   0.00004   0.00000   0.00181   0.00180   0.03037
   D162      -3.03136   0.00000   0.00000   0.00002   0.00002  -3.03134
   D163       3.11180   0.00009   0.00000   0.00417   0.00417   3.11596
   D164       0.05187   0.00006   0.00000   0.00239   0.00238   0.05426
   D165      -1.68950   0.00002   0.00000   0.00367   0.00367  -1.68583
   D166       2.49079   0.00015   0.00000   0.00551   0.00551   2.49629
   D167       0.39571  -0.00000   0.00000   0.00342   0.00342   0.39913
   D168       1.52334  -0.00003   0.00000   0.00086   0.00086   1.52421
   D169      -0.57956   0.00011   0.00000   0.00270   0.00270  -0.57686
   D170      -2.67463  -0.00005   0.00000   0.00061   0.00061  -2.67402
   D171      -0.12827   0.00018   0.00000   0.00558   0.00558  -0.12270
   D172       3.11458   0.00011   0.00000   0.00307   0.00307   3.11765
   D173       2.92025   0.00018   0.00000   0.00752   0.00752   2.92777
   D174      -0.12009   0.00011   0.00000   0.00502   0.00502  -0.11507
   D175      -0.04728  -0.00008   0.00000  -0.00314  -0.00314  -0.05041
   D176      -3.14108  -0.00012   0.00000  -0.00541  -0.00541   3.13670
   D177       3.00701  -0.00005   0.00000  -0.00186  -0.00186   3.00515
   D178      -0.08679  -0.00010   0.00000  -0.00413  -0.00413  -0.09092
   D179       0.13679  -0.00018   0.00000  -0.00610  -0.00610   0.13069
   D180      -3.10631  -0.00011   0.00000  -0.00358  -0.00358  -3.10989
   D181      -2.90547  -0.00015   0.00000  -0.00744  -0.00744  -2.91291
   D182       0.13461  -0.00008   0.00000  -0.00492  -0.00492   0.12969
   D183       0.04747   0.00005   0.00000   0.00220   0.00220   0.04967
   D184      -3.07123   0.00004   0.00000   0.00079   0.00078  -3.07044
   D185       3.13852   0.00008   0.00000   0.00450   0.00450  -3.14016
   D186       0.01982   0.00007   0.00000   0.00308   0.00308   0.02290
   D187       0.54095  -0.00012   0.00000  -0.00724  -0.00725   0.53370
   D188      -2.59976  -0.00008   0.00000  -0.00543  -0.00543  -2.60519
   D189      -2.54146  -0.00017   0.00000  -0.01002  -0.01002  -2.55148
   D190       0.60101  -0.00013   0.00000  -0.00820  -0.00820   0.59281
   D191      -0.03513  -0.00001   0.00000  -0.00064  -0.00064  -0.03577
   D192       3.01197   0.00000   0.00000   0.00022   0.00022   3.01218
   D193       3.08454   0.00001   0.00000   0.00076   0.00076   3.08530
   D194      -0.15155   0.00003   0.00000   0.00162   0.00161  -0.14994
   D195      -1.67117   0.00001   0.00000   0.00333   0.00334  -1.66783
   D196       2.50905   0.00013   0.00000   0.00500   0.00500   2.51405
   D197       0.41460  -0.00001   0.00000   0.00312   0.00312   0.41772
   D198       1.49739  -0.00001   0.00000   0.00164   0.00164   1.49903
   D199      -0.60558   0.00011   0.00000   0.00331   0.00331  -0.60227
   D200      -2.70003  -0.00003   0.00000   0.00143   0.00143  -2.69860
   D201       0.11683  -0.00007   0.00000  -0.00116  -0.00116   0.11567
   D202       3.12796   0.00005   0.00000   0.00278   0.00278   3.13074
   D203      -2.91794  -0.00004   0.00000  -0.00201  -0.00201  -2.91995
   D204       0.09319   0.00009   0.00000   0.00193   0.00193   0.09512
   D205       0.04704  -0.00012   0.00000  -0.00403  -0.00403   0.04301
   D206      -3.12069  -0.00008   0.00000  -0.00267  -0.00267  -3.12336
   D207      -3.09366  -0.00008   0.00000  -0.00219  -0.00219  -3.09585
   D208       0.02180  -0.00003   0.00000  -0.00083  -0.00083   0.02097
   D209       0.05021  -0.00012   0.00000  -0.00394  -0.00394   0.04627
   D210      -3.11850  -0.00007   0.00000  -0.00234  -0.00234  -3.12084
   D211      -3.09314  -0.00009   0.00000  -0.00256  -0.00256  -3.09569
   D212       0.02135  -0.00004   0.00000  -0.00096  -0.00096   0.02038
   D213       1.05822  -0.00008   0.00000  -0.00103  -0.00103   1.05719
   D214      -2.08579  -0.00008   0.00000  -0.00117  -0.00117  -2.08696
   D215      -1.05588   0.00008   0.00000   0.00112   0.00112  -1.05477
   D216       2.08328   0.00008   0.00000   0.00098   0.00098   2.08426
   D217      -3.14024   0.00000   0.00000   0.00003   0.00003  -3.14021
   D218      -0.00107  -0.00000   0.00000  -0.00011  -0.00011  -0.00118
   D219      -0.00311   0.00001   0.00000   0.00027   0.00027  -0.00284
   D220       3.14035   0.00001   0.00000   0.00038   0.00038   3.14073
   D221       3.13430  -0.00000   0.00000  -0.00008  -0.00008   3.13421
   D222      -0.00543   0.00000   0.00000   0.00003   0.00003  -0.00541
   D223      -0.00516   0.00003   0.00000   0.00089   0.00089  -0.00427
   D224      -3.13970  -0.00001   0.00000  -0.00034  -0.00034  -3.14004
   D225       3.14062   0.00004   0.00000   0.00124   0.00124  -3.14133
   D226       0.00607   0.00000   0.00000   0.00001   0.00001   0.00608
   D227      -3.13655   0.00000   0.00000   0.00008   0.00008  -3.13648
   D228      -0.00553   0.00003   0.00000   0.00101   0.00101  -0.00453
   D229       0.00294  -0.00000   0.00000  -0.00005  -0.00005   0.00289
   D230       3.13396   0.00003   0.00000   0.00089   0.00088   3.13484
   D231      -3.12833  -0.00000   0.00000  -0.00017  -0.00017  -3.12849
   D232      -0.00412  -0.00000   0.00000  -0.00003  -0.00003  -0.00415
   D233       0.02033  -0.00004   0.00000  -0.00138  -0.00138   0.01895
   D234      -3.13865  -0.00003   0.00000  -0.00125  -0.00125  -3.13990
   D235       3.12428   0.00001   0.00000   0.00021   0.00021   3.12449
   D236      -0.00777  -0.00001   0.00000  -0.00059  -0.00059  -0.00837
   D237       0.00063   0.00000   0.00000   0.00005   0.00005   0.00069
   D238      -3.13142  -0.00002   0.00000  -0.00075  -0.00075  -3.13217
   D239       1.05564  -0.00008   0.00000  -0.00098  -0.00098   1.05467
   D240      -2.08769  -0.00008   0.00000  -0.00117  -0.00117  -2.08887
   D241      -1.05868   0.00008   0.00000   0.00117   0.00117  -1.05751
   D242       2.08117   0.00008   0.00000   0.00098   0.00098   2.08215
   D243       3.13997   0.00000   0.00000   0.00010   0.00010   3.14008
   D244      -0.00336  -0.00000   0.00000  -0.00009  -0.00009  -0.00346
   D245      -0.00574   0.00001   0.00000   0.00033   0.00033  -0.00541
   D246       3.13719   0.00001   0.00000   0.00048   0.00048   3.13768
   D247       3.13540  -0.00000   0.00000  -0.00010  -0.00010   3.13531
   D248      -0.00485   0.00000   0.00000   0.00005   0.00005  -0.00480
   D249      -0.00360   0.00003   0.00000   0.00087   0.00087  -0.00273
   D250      -3.13665  -0.00001   0.00000  -0.00032  -0.00032  -3.13697
   D251       3.13845   0.00004   0.00000   0.00130   0.00130   3.13974
   D252       0.00539   0.00000   0.00000   0.00011   0.00011   0.00550
   D253      -3.13743  -0.00000   0.00000  -0.00002  -0.00002  -3.13745
   D254      -0.00457   0.00003   0.00000   0.00101   0.00101  -0.00357
   D255       0.00265  -0.00000   0.00000  -0.00019  -0.00019   0.00246
   D256       3.13551   0.00002   0.00000   0.00084   0.00084   3.13635
   D257      -3.13811  -0.00001   0.00000  -0.00020  -0.00020  -3.13831
   D258      -0.00363  -0.00001   0.00000  -0.00022  -0.00022  -0.00385
   D259       0.01203  -0.00004   0.00000  -0.00137  -0.00137   0.01066
   D260      -3.13667  -0.00004   0.00000  -0.00139  -0.00140  -3.13807
   D261       3.13477   0.00001   0.00000   0.00024   0.00024   3.13501
   D262       0.00105  -0.00001   0.00000  -0.00065  -0.00065   0.00040
   D263       0.00052   0.00001   0.00000   0.00026   0.00026   0.00078
   D264      -3.13320  -0.00001   0.00000  -0.00063  -0.00063  -3.13383
         Item               Value     Threshold  Converged?
 Maximum Force            0.007800     0.000450     NO 
 RMS     Force            0.001529     0.000300     NO 
 Maximum Displacement     0.043983     0.001800     NO 
 RMS     Displacement     0.012268     0.001200     NO 
 Predicted change in Energy=-1.454956D-03
 GradGradGradGradGradGradGradGradGradGradGradGradGradGradGradGradGradGrad

 Stoichiometry    C38H40FeN8(1+,2)
 Framework group  C1[X(C38H40FeN8)]
 Deg. of freedom   255
 Full point group                 C1      NOp   1
 Largest Abelian subgroup         C1      NOp   1
 Largest concise Abelian subgroup C1      NOp   1
                         Standard orientation:                         
 ---------------------------------------------------------------------
 Center     Atomic      Atomic             Coordinates (Angstroms)
 Number     Number       Type             X           Y           Z
 ---------------------------------------------------------------------
      1         26           0        0.025266    0.215123    0.029335
      2          7           0       -0.571821    2.062294   -0.021123
      3          7           0        1.890179    0.828316    0.208503
      4          7           0        0.631516   -1.651890    0.082576
      5          7           0       -1.843319   -0.394862   -0.148194
      6          6           0       -1.849226    2.514462    0.120554
      7          6           0       -1.889712    3.949140    0.043302
      8          6           0       -0.611232    4.357313   -0.193329
      9          6           0        0.198279    3.169854   -0.201667
     10          6           0        2.363339    2.078146   -0.007786
     11          6           0        3.793299    2.126498    0.177326
     12          6           0        4.169832    0.874035    0.548451
     13          6           0        2.970067    0.072326    0.532698
     14          6           0        1.863188   -2.096828    0.425662
     15          6           0        1.924779   -3.532365    0.336466
     16          6           0        0.693956   -3.942471   -0.107455
     17          6           0       -0.098553   -2.754537   -0.234131
     18          6           0       -2.266953   -1.652078   -0.427877
     19          6           0       -3.709860   -1.702268   -0.481342
     20          6           0       -4.144809   -0.445245   -0.159390
     21          6           0       -2.962881    0.352122    0.014445
     22          6           0       -2.967756    1.719219    0.203192
     23          1           0       -3.925258    2.211017    0.311517
     24          6           0        1.574032    3.178521   -0.261278
     25          1           0        2.065944    4.130130   -0.414288
     26          6           0        2.953048   -1.292920    0.694068
     27          1           0        3.888468   -1.780213    0.934488
     28          6           0       -1.444261   -2.750249   -0.537100
     29          1           0       -1.900067   -3.696179   -0.794090
     30          6           0       -3.124791    4.766878    0.172697
     31          1           0       -3.640337    4.564517    1.115470
     32          1           0       -3.832112    4.556497   -0.634876
     33          1           0       -2.902647    5.833086    0.143495
     34          6           0       -0.087965    5.736519   -0.380413
     35          1           0        0.458674    5.831496   -1.322630
     36          1           0        0.599635    6.017621    0.422633
     37          1           0       -0.892947    6.470568   -0.393770
     38          6           0       -5.538451    0.038257    0.015681
     39          1           0       -5.931636    0.499205   -0.896176
     40          1           0       -5.606954    0.781765    0.812424
     41          1           0       -6.199862   -0.791769    0.270016
     42          6           0       -4.485528   -2.895813   -0.763914
     43          1           0       -4.051768   -3.842276   -0.450330
     44          6           0       -5.670683   -2.919609   -1.372456
     45          1           0       -6.142980   -2.020160   -1.748804
     46          1           0       -6.197613   -3.852294   -1.533335
     47          6           0        0.218679   -5.330125   -0.342239
     48          1           0        0.312284   -5.619655   -1.393642
     49          1           0       -0.829491   -5.452424   -0.063387
     50          1           0        0.807038   -6.037794    0.244199
     51          6           0        3.090305   -4.326660    0.679358
     52          1           0        3.703968   -3.952235    1.495633
     53          6           0        3.458081   -5.458838    0.081106
     54          1           0        2.916446   -5.865067   -0.764648
     55          1           0        4.334176   -6.005241    0.408947
     56          6           0        5.524287    0.358590    0.880600
     57          1           0        5.851756   -0.400607    0.164260
     58          1           0        5.544930   -0.102251    1.872057
     59          1           0        6.266894    1.155935    0.874478
     60          6           0        4.624506    3.346826    0.003096
     61          1           0        5.681838    3.135208    0.159612
     62          1           0        4.338953    4.132544    0.708743
     63          1           0        4.518005    3.761687   -1.003147
     64          6           0        1.954870   -0.335392   -5.113118
     65          1           0        2.088798    0.560873   -5.725033
     66          1           0        1.519393   -1.113406   -5.746103
     67          1           0        2.941032   -0.674826   -4.798274
     68          7           0       -0.184813    0.376387   -4.001770
     69          1           0       -0.691108    0.560560   -4.851942
     70          6           0        1.116535   -0.065535   -3.922670
     71          6           0       -0.673519    0.517250   -2.759264
     72          1           0       -1.668462    0.848929   -2.518077
     73          7           0        0.252613    0.194671   -1.891371
     74          6           0        1.368672   -0.169653   -2.588887
     75          1           0        2.265634   -0.486461   -2.086355
     76          6           0       -1.323237   -1.082500    5.223368
     77          1           0       -1.974905   -0.404626    5.781459
     78          1           0       -0.528756   -1.416380    5.896374
     79          1           0       -1.911783   -1.955393    4.943187
     80          7           0        0.009733    0.691392    4.041399
     81          1           0        0.285097    1.189347    4.871604
     82          6           0       -0.776040   -0.438481    4.007388
     83          6           0        0.351533    1.022558    2.785881
     84          1           0        0.961944    1.865056    2.510656
     85          7           0       -0.181966    0.165053    1.952282
     86          6           0       -0.883575   -0.748213    2.686071
     87          1           0       -1.407522   -1.561916    2.216256
 ---------------------------------------------------------------------
 Rotational constants (GHZ):           0.0786374           0.0767905           0.0598283
 Standard basis: def2TZVP (5D, 7F)
 There are  1948 symmetry adapted cartesian basis functions of A   symmetry.
 There are  1711 symmetry adapted basis functions of A   symmetry.
  1711 basis functions,  2768 primitive gaussians,  1948 cartesian basis functions
   175 alpha electrons      174 beta electrons
       nuclear repulsion energy      7232.3452881040 Hartrees.
 NAtoms=   87 NActive=   87 NUniq=   87 SFac= 1.00D+00 NAtFMM=   60 NAOKFM=T Big=T
 Integral buffers will be    131072 words long.
 Raffenetti 2 integral format.
 Two-electron integral symmetry is turned on.
 R6APFD:  NTU= -4 IXU= 1 FactS= 1.050
 Nuclear repulsion after empirical dispersion term =     7232.1681625543 Hartrees.
 One-electron integrals computed using PRISM.
   1 Symmetry operations used in ECPInt.
 ECPInt:  NShTT=  232221 NPrTT=  716997 LenC2=  184047 LenP2D=  373843.
 LDataN:  DoStor=T MaxTD1= 6 Len=  172
 Number of processors reduced to  20 by ecpmxn.
 NBasis=  1711 RedAO= T EigKep=  3.85D-06  NBF=  1711
 NBsUse=  1711 1.00D-06 EigRej= -1.00D+00 NBFU=  1711
 Initial guess from the checkpoint file:  "1aom_12_nbo.chk"
 B after Tr=     0.000000    0.000000    0.000000
         Rot=    0.999999    0.000215    0.000193   -0.001602 Ang=   0.19 deg.
 Initial guess <Sx>= 0.0000 <Sy>= 0.0000 <Sz>= 0.5000 <S**2>= 0.7667 S= 0.5083
 ExpMin= 4.20D-02 ExpMax= 3.01D+05 ExpMxC= 2.91D+03 IAcc=3 IRadAn=         5 AccDes= 0.00D+00
 Harris functional with IExCor= 3731 and IRadAn=       5 diagonalized for initial guess.
 HarFok:  IExCor= 3731 AccDes= 0.00D+00 IRadAn=         5 IDoV= 1 UseB2=F ITyADJ=14
 ICtDFT=  3500011 ScaDFX=  1.000000  1.000000  1.000000  1.000000
 FoFCou: FMM=F IPFlag=           0 FMFlag=      100000 FMFlg1=        2001
         NFxFlg=           0 DoJE=T BraDBF=F KetDBF=T FulRan=T
         wScrn=  0.000000 ICntrl=       500 IOpCl=  0 I1Cent=   200000004 NGrid=           0
         NMat0=    1 NMatS0=      1 NMatT0=    0 NMatD0=    1 NMtDS0=    0 NMtDT0=    0
 Petite list used in FoFCou.
 Requested convergence on RMS density matrix=1.00D-08 within 999 cycles.
 Requested convergence on MAX density matrix=1.00D-06.
 Requested convergence on             energy=1.00D-06.
 No special actions if energy rises.
 Restarting incremental Fock formation.
