87
 energy: -124.393346469648 gnorm: 0.409557564656 xtb: 6.7.1 (edcfbbe)
Fe          44.63000000000000       28.12700000000000        5.91100000000000
N           44.85400000000000       26.57500000000000        7.16900000000000
N           43.90200000000000       29.12800000000000        7.45900000000000
N           44.37799999999999       29.75700000000000        4.71900000000000
N           45.38000000000000       27.14600000000000        4.40400000000000
C           45.45500000000000       25.38200000000000        6.75100000000000
C           45.27399999999999       24.38000000000000        7.78500000000000
C           44.60400000000000       24.93600000000000        8.74300000000000
C           44.33100000000000       26.33299999999999        8.41200000000000
C           43.49700000000000       28.57800000000000        8.69300000000000
C           42.99600000000000       29.66900000000000        9.50500000000000
C           43.05900000000000       30.77300000000000        8.80800000000000
C           43.63400000000000       30.46900000000000        7.50500000000000
C           44.10000000000000       31.04100000000000        5.15100000000000
C           44.04200000000000       31.93500000000000        4.00000000000000
C           44.36900000000000       31.17599999999999        2.91900000000000
C           44.54500000000000       29.82500000000000        3.34200000000000
C           45.47499999999999       27.58200000000000        3.07500000000000
C           46.19400000000000       26.54300000000000        2.31500000000000
C           46.54800000000000       25.58100000000000        3.16800000000000
C           46.04500000000000       25.92900000000000        4.45400000000000
C           46.14999999999999       25.18400000000000        5.60200000000000
H           46.85800000000000       24.35500000000000        5.59000000000000
C           43.60300000000000       27.25900000000000        9.12200000000000
H           43.09900000000000       26.95300000000000       10.03800000000000
C           43.82800000000000       31.35200000000000        6.47000000000000
H           43.76000000000000       32.41200000000000        6.71600000000000
C           44.90700000000000       28.73500000000000        2.56700000000000
H           44.73300000000000       28.79000000000000        1.49200000000000
C           45.92200000000000       22.98900000000000        7.44100000000000
H           46.96800000000000       23.31200000000000        7.25000000000000
H           45.42500000000000       22.78500000000000        6.46900000000000
H           45.93700000000000       22.06700000000000        8.06100000000000
C           44.13700000000000       24.30900000000000       10.09800000000000
H           43.05600000000000       24.53800000000000        9.98700000000000
H           44.59899999999999       25.06600000000000       10.76700000000000
H           44.24700000000000       23.29500000000000       10.53900000000000
C           47.35000000000000       24.27800000000000        2.83600000000000
H           46.61100000000000       23.97600000000000        2.06300000000000
H           47.77100000000000       23.36499999999999        3.30800000000000
H           48.16000000000000       24.86300000000000        2.35100000000000
C           46.46000000000000       26.65900000000000        0.81100000000000
H           47.52400000000000       26.79700000000000        0.57100000000000
C           45.65100000000000       25.81700000000000       -0.17700000000000
H           44.58000000000000       25.63300000000000       -0.00700000000000
H           46.13199999999999       25.38600000000000       -1.06800000000000
C           44.49900000000000       31.68000000000000        1.45600000000000
H           43.81800000000000       30.91200000000000        1.03200000000000
H           45.55000000000000       31.35800000000000        1.29400000000000
H           44.31499999999999       32.64800000000000        0.94300000000000
C           43.86099999999999       33.46400000000000        4.08900000000000
H           44.15100000000000       33.83500000000000        5.06300000000000
C           43.01799999999999       34.16800000000000        3.00300000000000
H           42.80000000000000       33.66300000000000        2.05000000000000
H           42.62599999999999       35.18200000000000        3.17100000000000
C           42.63999999999999       32.20800000000000        9.21900000000000
H           41.60599999999999       31.88600000000000        9.46700000000000
H           42.61400000000000       33.26100000000000        8.86500000000000
H           43.27000000000000       32.12900000000000       10.13000000000000
C           42.46500000000000       29.47600000000000       10.95900000000000
H           41.48299999999999       29.91600000000000       10.68200000000000
H           43.11800000000000       30.27800000000000       11.36400000000000
H           42.30400000000000       28.69200000000000       11.73000000000000
C           50.12500000000000       29.42800000000000        5.85000000000000
H           50.77199999999999       28.58400000000000        6.17300000000000
H           50.45900000000000       30.35500000000000        6.36400000000000
H           50.21500000000000       29.55100000000000        4.75000000000000
N           48.33800000000000       28.92900000000000        7.53400000000000
H           48.94800000000000       28.99700000000000        8.32300000000000
C           48.69500000000000       29.13200000000000        6.21300000000000
C           47.00700000000000       28.62200000000000        7.53800000000000
H           46.44200000000000       28.36600000000000        8.43400000000000
N           46.54600000000000       28.68700000000000        6.31800000000000
C           47.60400000000000       29.00200000000000        5.49100000000000
H           47.45300000000000       29.10400000000000        4.42300000000000
C           40.58599999999999       29.05400000000000        6.82400000000000
H           39.91000000000000       29.92500000000000        6.69000000000000
H           41.30100000000000       29.28200000000000        7.64300000000000
H           39.97300000000000       28.16900000000000        7.09800000000000
C           41.36800000000000       28.77100000000000        5.49900000000000
H           41.96300000000000       29.67400000000000        5.24800000000000
H           40.62800000000000       28.60500000000000        4.68800000000000
S           42.46100000000000       27.35500000000000        5.59600000000000
C           42.21300000000000       26.56800000000000        3.98800000000000
H           42.48600000000000       27.25300000000000        3.15700000000000
H           41.14700000000000       26.28200000000000        3.86100000000000
H           42.84499999999999       25.65800000000000        3.90400000000000
87
 energy: -124.552413502909 gnorm: 0.220460726473 xtb: 6.7.1 (edcfbbe)
Fe          44.62824156003000       28.12846947834103        5.90974588067269
N           44.85135065326556       26.55642972554988        7.15817830826128
N           43.90527647464214       29.11375357453285        7.45983873924859
N           44.38281586705568       29.76892959090695        4.71524108863599
N           45.38249893200189       27.15173349949962        4.39346753948816
C           45.46166135547060       25.38798314064029        6.76246243347224
C           45.29690322302382       24.36119981768072        7.77655202740663
C           44.60135070709588       24.91931571149045        8.76432135391916
C           44.32460631354346       26.31218214980305        8.39491364365992
C           43.50855178821973       28.57737918884934        8.67887038106493
C           43.00012120703126       29.64379061806988        9.50186216444835
C           43.07556546322228       30.78460669429361        8.78485374233347
C           43.64437361570303       30.45276998380065        7.49995254983155
C           44.10717984941794       31.04490677979709        5.14455583967165
C           44.05755530509040       31.96434180868950        4.00559466659962
C           44.35026112566475       31.19781839635170        2.91425792612241
C           44.54020398099205       29.83616880961565        3.34922024634652
C           45.45835250355675       27.56536440285924        3.07539508580209
C           46.17069687659480       26.54693314075111        2.29515656742385
C           46.55152338659401       25.58297517462132        3.17841346432654
C           46.04697224565490       25.95314051728368        4.45863148546874
C           46.15727387991911       25.19185067676475        5.60025530243502
H           46.84329164045221       24.35099345813401        5.57212709434307
C           43.61057491181327       27.25864396978235        9.10774547122500
H           43.11449174406295       26.96493198032156       10.03077011308223
C           43.83232033375425       31.35269297100327        6.46690800379033
H           43.74516320211200       32.40693353931193        6.71508539869456
C           44.90614966905919       28.73526569370756        2.57108259555162
H           44.75704408663467       28.79787346849254        1.49518249590347
C           45.92254269490569       23.00582640601216        7.43097524860657
H           46.96845062143724       23.28581187477885        7.24909810233959
H           45.44051223675071       22.76703392201715        6.47391358425361
H           45.91404252365682       22.11046410172976        8.07107348658992
C           44.12233011718165       24.34554160807355       10.09853816388391
H           43.04610700736003       24.53439431738931       10.01923715540967
H           44.58071531908903       25.05767292303944       10.79459574283095
H           44.26656175782416       23.32136066746897       10.48703172978356
C           47.33803730517354       24.31129592812652        2.79635415230809
H           46.63718624837989       23.94911986248001        2.03441078096888
H           47.73241846721422       23.42744982008374        3.33723398966779
H           48.17984763685030       24.82820308883131        2.32119589875691
C           46.44188997277872       26.56823643998840        0.80677012753025
H           47.49298894033113       26.79125022660680        0.56151072425616
C           45.68305970280463       25.84054772198541       -0.13177220109566
H           44.61748309399472       25.64061291357581        0.01057335723637
H           46.12566988381797       25.43319437007356       -1.04757671297821
C           44.50434029678658       31.63513311287761        1.45737240683762
H           43.82686140397157       30.91168380214908        0.99090105373600
H           45.54744695783955       31.35600988959895        1.26236058735077
H           44.31734311984681       32.62485619182674        1.00280143304003
C           43.79747402346590       33.44365991400541        4.05263288081757
H           44.12372042727058       33.84976518835152        5.01541352240789
C           43.05407909051636       34.13426176132665        3.05799185657140
H           42.81141533315893       33.66271783263544        2.10066422288917
H           42.66513839095004       35.15168088172639        3.18421975057942
C           42.63281622995573       32.17416527273126        9.25664412715235
H           41.59291672445870       31.91944068233296        9.49843933125192
H           42.63807800817473       33.19715068303463        8.83352551330824
H           43.24744773356695       32.16996045495962       10.16479279173658
C           42.45891627499348       29.52239876741593       10.93812028130075
H           41.46367516315291       29.93246924387574       10.72734526410874
H           43.09429677397848       30.28789423135402       11.40174403426763
H           42.33430646342101       28.69176942197877       11.66040015246260
C           50.12572860945182       29.42845931614032        5.85278012058658
H           50.76877217608490       28.59502480063954        6.16875096527600
H           50.46059289173127       30.34571823531885        6.35565828985256
H           50.21399728379672       29.55122179362315        4.76626907704009
N           48.34021351689082       28.92420063021800        7.53339297479427
H           48.95006765896917       28.99246409509048        8.32705233323097
C           48.70806159838592       29.13660731537854        6.22202893870808
C           47.01200487034571       28.62950396260461        7.53531521246988
H           46.45027777846359       28.37402204426179        8.42226624655694
N           46.53750487883763       28.68494193440918        6.31965287105756
C           47.58845622661116       28.99994613662190        5.48934704968514
H           47.44493690874212       29.10080278911778        4.42837413115871
C           40.58950180702950       29.04887278619136        6.81600504711420
H           39.92144490139456       29.91234482968020        6.68781270620482
H           41.28842546284443       29.27421316529726        7.62950962575032
H           39.98257142219308       28.17792476579833        7.09505880399599
C           41.35536631515639       28.78195148379206        5.49959626422481
H           41.95701949312884       29.66701240325743        5.24849972851377
H           40.63217064195523       28.60484780412289        4.69163261077226
S           42.45503736980279       27.34637711964420        5.60167404214886
C           42.20816984651605       26.57175020895276        3.97803643990801
H           42.48724753569890       27.25150699729229        3.16387603293852
H           41.15496072717818       26.28287865061055        3.86415729229294
H           42.83798223205383       25.67399524654938        3.91307904632200
87
 energy: -124.632276762745 gnorm: 0.119869263342 xtb: 6.7.1 (edcfbbe)
Fe          44.62937224223606       28.13251060707426        5.91055346344744
N           44.85212422380842       26.53772100471382        7.14686994922059
N           43.90952470392507       29.10446829876975        7.46378022485177
N           44.38694706540475       29.78342958848550        4.71020563483293
N           45.38474223109115       27.15663187445837        4.37835858308433
C           45.46821862488861       25.39507224190207        6.77178589038644
C           45.31592284310747       24.35130518445991        7.77249727680819
C           44.59770132357348       24.90435616515718        8.77643950308324
C           44.31890850922080       26.29216645718512        8.37607679987209
C           43.51811157276504       28.58244887499043        8.66831430606068
C           43.00149086979550       29.62874808065231        9.50093017465263
C           43.08997646997130       30.79484170156701        8.77005538787948
C           43.65383220857303       30.44218381037787        7.49914661203637
C           44.11277323406858       31.05048258767626        5.13712373848198
C           44.06466804236157       31.98464520866142        4.00057553269528
C           44.33328366300773       31.21151989278068        2.90303016835113
C           44.53774588107223       29.84341281005932        3.35683784932451
C           45.43846135459651       27.55023438427301        3.07311433992904
C           46.14137653989565       26.54951915859422        2.27815014932061
C           46.55332440899606       25.58484069178230        3.17899193988167
C           46.05194749766447       25.97619413654922        4.45937308997064
C           46.16352834265640       25.19738249924563        5.59518568776966
H           46.82678506644200       24.34573847379835        5.54938770898441
C           43.62112181274018       27.25711531876789        9.09104671729385
H           43.13597660218239       26.97697297511297       10.02152695905194
C           43.83530868135896       31.35585685534689        6.46253326698296
H           43.72607379481551       32.40293163832930        6.71338457469441
C           44.90657428415312       28.73943088329483        2.57578108662234
H           44.78777382697780       28.81114105982130        1.49924454448201
C           45.92279505156737       23.02575800250824        7.42653684915801
H           46.97516237067787       23.25335535253110        7.24592348717840
H           45.45688249737989       22.74531136322179        6.47921422323625
H           45.88283415645166       22.15991471678736        8.09445188144142
C           44.11078000377631       24.38171115493013       10.09193539039993
H           43.03397217790546       24.53277279867091       10.05542687259071
H           44.55885408587258       25.05109662587622       10.82525593882487
H           44.29187661444826       23.34697837866266       10.42333775035219
C           47.32391526343612       24.35091553510463        2.75543555145166
H           46.66356106069347       23.92423279249687        2.00147362407638
H           47.68349112084205       23.50519956109191        3.37907618208715
H           48.20031379404783       24.79549787791955        2.28549568247002
C           46.42571687194380       26.48826672969230        0.80766521432506
H           47.46490122437014       26.77388939140391        0.56508322216845
C           45.71320072889170       25.86421215240273       -0.08128284670010
H           44.65499921704293       25.62982601889907        0.04123021444086
H           46.11678788511933       25.49610433919572       -1.03152193148841
C           44.50853122036865       31.58990552636469        1.46002360339346
H           43.83771200537624       30.90696148381276        0.94512406807101
H           45.54595000684717       31.34879658620183        1.23134657803932
H           44.31557581361857       32.60362849139920        1.07357192971934
C           43.75600366927607       33.42786638512040        4.02456211389679
H           44.08603330818585       33.86811088595942        4.97841582995061
C           43.08854004975938       34.08571314836732        3.11622915347187
H           42.81233830804187       33.65280564213932        2.15130135218082
H           42.71787394362403       35.11430411416912        3.20390064618386
C           42.62870546249595       32.13290994023829        9.29334543351818
H           41.58138528379105       31.94833107500303        9.53248009975268
H           42.67129054872780       33.11828369365112        8.78872515074520
H           43.22217194130238       32.20852407512643       10.20384324542057
C           42.45507275211295       29.57040752531545       10.91024764348221
H           41.44483068469352       29.95391430758595       10.77124045976945
H           43.06972374151808       30.30204724132022       11.43615536023788
H           42.37275199748994       28.68475820720057       11.57164810317296
C           50.12335453799223       29.42880994172109        5.85480197082926
H           50.76700874582329       28.60387651764139        6.16546505008755
H           50.46346135902225       30.33971591035141        6.34877529394308
H           50.21063158690525       29.55182898223610        4.77796503876893
N           48.34041341987259       28.91930475837473        7.53097860716821
H           48.95085033766019       28.98747257244112        8.32825014549017
C           48.71420846344480       29.13929788753408        6.22858301786413
C           47.01702100317639       28.63595971827978        7.53546694892460
H           46.45610387427622       28.38262479599223        8.41443791675678
N           46.53101097687027       28.68444932988046        6.32278697091629
C           47.57461841246811       28.99724188845674        5.49307633303163
H           47.43975158185540       29.09850187857946        4.43566594775570
C           40.59104847168516       29.04534318227335        6.80754308317022
H           39.92835073411032       29.90369448045106        6.68473351779860
H           41.28121037822690       29.26662800666641        7.61688191146322
H           39.99059731390939       28.18166563814298        7.08888679637905
C           41.34106297576956       28.79325927062607        5.50018786383089
H           41.95252591799093       29.66055355105613        5.24892965599283
H           40.63377036796653       28.60276593109028        4.69317583630377
S           42.45188394311780       27.33860580898639        5.60683932074683
C           42.20344935509619       26.57465557270055        3.96817207233936
H           42.48898909103958       27.25459230476288        3.17112489228183
H           41.15965603392610       26.28469063996044        3.86645289226612
H           42.83389033474820       25.68784784753738        3.92261967881932
87
 energy: -124.671115991531 gnorm: 0.056076047451 xtb: 6.7.1 (edcfbbe)
Fe          44.62888619819512       28.13378572337748        5.91080353077320
N           44.85135480950593       26.52903153658679        7.13211105028576
N           43.91884072888666       29.10436642380845        7.46330978522041
N           44.39407299819557       29.78438305825095        4.71165189578246
N           45.38196548122529       27.16087842114990        4.37244032106479
C           45.48221358811939       25.39856655555806        6.76944985756851
C           45.32980683362332       24.35677567624585        7.77057826006999
C           44.59708816671706       24.90737148583797        8.77203946911846
C           44.31343083293789       26.28580882283723        8.35717630824767
C           43.52781503014862       28.58572530684062        8.66280521499602
C           43.00562072827350       29.62841996030908        9.49725880979380
C           43.10147424761434       30.79617970545089        8.76915768106698
C           43.66454815242931       30.44162088988623        7.49919619155516
C           44.12150971713914       31.04649566072563        5.13814903617340
C           44.07433435720142       31.97003522165314        4.00037321557882
C           44.32844750104143       31.20078872270755        2.89776915884208
C           44.53683376990778       29.83820509085145        3.36225551148718
C           45.41656122613893       27.54418026193109        3.06983312653178
C           46.12244240962521       26.55229285530326        2.28276548807795
C           46.54828065698216       25.59159736393595        3.17316918255210
C           46.05873795166816       25.98941124240976        4.45820738373228
C           46.17286925538063       25.20263084675578        5.58731545829069
H           46.80894476730969       24.33324654457951        5.51673091272936
C           43.63099237321413       27.25656627570211        9.07427463864968
H           43.16585145074999       26.98839829970084       10.01536874367257
C           43.83891193461788       31.35567728340646        6.45983883808662
H           43.69768795964546       32.39938437567079        6.70792049220157
C           44.90482600112887       28.74242838754868        2.57720415436214
H           44.83191849433617       28.83336081422286        1.49768427432477
C           45.92593528799981       23.03349656369627        7.43083536569773
H           46.99128878183134       23.20806961637822        7.24950408094456
H           45.47485503911704       22.71446814533336        6.48634140280659
H           45.83899564651771       22.20835181408764        8.14425379303199
C           44.10176251949466       24.40913196922078       10.08629687947631
H           43.01662549104007       24.53289123736887       10.09697272396155
H           44.53333718122013       25.04798206834016       10.86161418821462
H           44.32412308346166       23.36346478028199       10.35141029420696
C           47.31356577584491       24.38256936233396        2.72439999489602
H           46.69547916200560       23.89826282946581        1.95964987618965
H           47.63075037760538       23.58656238725852        3.43625541587730
H           48.22163523729430       24.76078629023511        2.23990477750160
C           46.45059429877461       26.45990240074410        0.84336229834047
H           47.47415137401608       26.75208291134430        0.58920613622199
C           45.69534382257977       25.88064122676073       -0.09355971984971
H           44.66242175891028       25.59206740005786        0.07478497531729
H           46.09456917980162       25.56825419463765       -1.05886159932190
C           44.51084935907223       31.55187061166761        1.45940636452700
H           43.84975901783118       30.89651093061050        0.88748556017499
H           45.54634381430994       31.33169545759085        1.19327767523464
H           44.31142924164597       32.58937575429920        1.14971055118820
C           43.74147386460341       33.39090084001506        4.05558829512182
H           44.05695262841505       33.87170916107425        4.98658371973368
C           43.09909101216801       34.08504909659274        3.11200262176678
H           42.78464142697957       33.63715470488610        2.17527717252683
H           42.76899984092240       35.11466711913815        3.21587689775579
C           42.62916877452531       32.10463369364206        9.31829468519079
H           41.57115630840206       31.97950905926643        9.57259776444835
H           42.71017239749551       33.04287327669702        8.73070907418156
H           43.19062826154054       32.25111630036897       10.25000746917052
C           42.45244917165147       29.60369331564163       10.88854671800268
H           41.42524632122658       29.98156573108577       10.81985505534620
H           43.03990610469868       30.32093701850746       11.47400413339890
H           42.41450229819394       28.66300802882240       11.47670425853147
C           50.11974485897363       29.42991739540425        5.85649187997429
H           50.76793695970940       28.60896678303876        6.16314126321859
H           50.46746934020995       30.33962580184608        6.34445130166530
H           50.20474376854001       29.55384389509278        4.78226640198407
N           48.34134805779319       28.91534516793569        7.53117512466714
H           48.95280278413709       28.97931416614181        8.32886884428090
C           48.71188558038563       29.14018700044075        6.23108893359970
C           47.01831601294155       28.64212072783467        7.53907673728108
H           46.45786196028883       28.39392311138278        8.41587197743154
N           46.52577685296140       28.68679016819084        6.32790456534594
C           47.56592448960890       28.99680825287736        5.49885629126128
H           47.43114056265885       29.09630410329491        4.44166680010255
C           40.58922160612176       29.04073597567008        6.79885002770275
H           39.92899346486475       29.89835640505009        6.68021301484101
H           41.27902705546955       29.25750270740332        7.60655456671136
H           39.99342781461856       28.17683450954971        7.08065139682994
C           41.33239311920654       28.79605515239789        5.49546251526101
H           41.94932259171460       29.65695326818271        5.24565995112737
H           40.63066522355583       28.59834897406114        4.68797193714001
S           42.44574179267080       27.33423773311794        5.61342688574736
C           42.19980855710138       26.58152897353106        3.96684879294089
H           42.49205169394447       27.26497713115688        3.17729847388919
H           41.15917846183547       26.28732534891206        3.86661733428546
H           42.83374590753191       25.70012913679066        3.93344809206190
87
 energy: -124.688115365778 gnorm: 0.051562078132 xtb: 6.7.1 (edcfbbe)
Fe          44.63056631776563       28.13711413392399        5.91062807579018
N           44.85614732650241       26.52921844808753        7.11119479240631
N           43.92846719116739       29.11433340946266        7.46357336994726
N           44.39854060145180       29.77963560388305        4.71781628941892
N           45.37963673928016       27.16217214135470        4.36415692763986
C           45.49706643756368       25.40206749718080        6.75799767288386
C           45.34417066484779       24.37002053569880        7.76677771077116
C           44.59572240818800       24.92208770893649        8.76026567917300
C           44.31377287961067       26.29131244465854        8.33398580854716
C           43.53796564625013       28.59459684679107        8.66144578860879
C           43.01052300987866       29.63647405526933        9.49765347451835
C           43.11080952982718       30.80302433335288        8.77468157517540
C           43.67339881078347       30.45177708187131        7.50063773166943
C           44.12607285262658       31.04153666887775        5.13833075919956
C           44.07527675845104       31.95365342204888        3.99580256004974
C           44.32155818657640       31.18097963245770        2.89202356042783
C           44.53731199948748       29.82846339627781        3.37010629492964
C           45.39880584365216       27.54138467586650        3.06107600613109
C           46.10025962026761       26.55619740420558        2.27220914297482
C           46.54744941957735       25.60210790506915        3.15295612524525
C           46.06364876895348       25.99476641517901        4.44661307362757
C           46.17814060611876       25.20168812091102        5.57014575521230
H           46.78782590828109       24.31615211718906        5.47650649433312
C           43.64643907115966       27.26290220253155        9.05746925824455
H           43.20502011280237       26.99981916928847       10.00914239821651
C           43.83774245900994       31.35932223041198        6.45541606896702
H           43.66246127154499       32.39971811253495        6.69572221241033
C           44.90859076357357       28.74735711168130        2.57670601444203
H           44.88539798696699       28.86284871190380        1.49663116917764
C           45.92574951501778       23.03250127235781        7.45686251640540
H           47.00176817706873       23.15412398461615        7.27867932970935