78
 energy: -116.058021724385 gnorm: 0.000089251187 xtb: 6.7.1 (edcfbbe)
Fe           7.91186869902186       -6.66933423500003        9.18694892101385
N            8.63610845928968       -8.54458430798616        9.29579038993860
N            9.49195137252628       -6.01054840285278       10.24975377519896
N            7.16962364732207       -4.81949200149054        9.13621716872245
N            6.32761452882662       -7.34614672034389        8.18520779547681
C            8.09646136195400       -9.66154216459321        8.73964676546116
C            8.93028860704420      -10.81423852519238        8.99532654360099
C            9.99251672886530      -10.36636312663196        9.71768065281423
C            9.79458617853953       -8.94474574546669        9.89076411126724
C           10.53539859020506       -6.75230017760812       10.71817729337262
C           11.49924268071266       -5.91701044320312       11.38518646807079
C           11.02275819782157       -4.63472775759466       11.29916545338142
C            9.76137653208530       -4.72301351769617       10.59079918062073
C            7.74407807005375       -3.69387248330322        9.64133311648194
C            6.92098441893973       -2.53840187086396        9.38653024728475
C            5.82320152047757       -2.99202166368825        8.70536011127150
C            6.00345180494300       -4.42485330409909        8.56803139992382
C            5.27663711630784       -6.61331648749935        7.73493095845413
C            4.32956991956238       -7.45194485883782        7.03181016880582
C            4.83830123678444       -8.71176910848235        7.06683147632551
C            6.08793569349023       -8.62437164937537        7.79169679076300
C            6.90693815751211       -9.70954103994667        8.03738638726350
H            6.59372088074111      -10.66859377706270        7.65433628392134
C           10.67776881610082       -8.12188217838058       10.56257445276592
H           11.56338408546923       -8.57974976563753       10.97594741650344
C            8.95764646086463       -3.63758760332619       10.30312004567140
H            9.30477533853433       -2.66538001990343       10.61753382739660
C            5.11576157551732       -5.25178776444487        7.90484509013865
H            4.22929114374213       -4.80079063336307        7.48532200154558
C           11.15842973902879      -11.12465407896567       10.25357605305848
H           12.09018664194998      -10.74267544750597        9.83542025464434
H           11.08003959914677      -12.18010461410149       10.00512236361970
H           11.21234207269808      -11.03136513240736       11.33865987061321
C            8.62063550028483      -12.19522244940466        8.52900931935475
H            8.55485386453499      -12.22575767467069        7.44125603886093
H            7.66616753550556      -12.53196494778816        8.93439363914986
H            9.39205365073084      -12.89313855937800        8.84519928033044
C           12.72264245770474       -6.40493891209835       12.07994555142370
H           13.54126718569474       -6.55023494234372       11.37294830895293
H           12.53283445729626       -7.35623491391438       12.57511467910225
H           13.04028309230419       -5.68081829576158       12.82753062850260
C           11.59284852212211       -3.41195079589169       11.81923762959474
H           10.87903306522675       -2.66460829852388       12.14601493209271
C           12.89137709098494       -3.14480592990119       11.91431418704259
H           13.64474343362606       -3.82731856348516       11.56171676194012
H           13.24595436015282       -2.21455937615458       12.32633216150670
C            7.21073184018696       -1.15711451860352        9.86078418119929
H            7.92342515506660       -0.65933270598113        9.20090407886508
H            7.63629716166221       -1.17572726656517       10.86297151780752
H            6.29461161193342       -0.57058541812123        9.88316355570245
C            4.67553010770843       -2.25568652026918        8.22341703468511
H            3.73289686254826       -2.78998959074738        8.24927306204841
C            4.69745433359286       -1.01068337755650        7.75844845124174
H            5.61104373573190       -0.44931532577850        7.66683506417095
H            3.79874275545315       -0.51621161285975        7.42867945791962
C            3.06249646380258       -6.95993955036209        6.42061685945277
H            3.26764412730973       -6.19601317741937        5.66999537949646
H            2.41749398538051       -6.52062399593199        7.18171232921429
H            2.52209493915277       -7.77320061640863        5.94242138809178
C            4.27974225792232       -9.97282861085397        6.50213342383438
H            3.33710288829648       -9.78496173772129        5.99402395614508
H            4.10293737106589      -10.70134746730327        7.29367038430896
H            4.97401801450959      -10.41352441296438        5.78619092773833
C           11.74074754910933       -6.42090618384671        5.14065865393137
H           12.12443102413684       -5.43706209330080        4.87074116001491
H           11.56215409541876       -6.98067927876602        4.22271232713852
H           12.49475154102308       -6.93983697591533        5.72402935510659
N            9.36016053047238       -5.70565716716422        5.44462511182159
H            9.25764406341486       -5.30202052181723        4.52799390388267
C           10.49282452792020       -6.29989727535525        5.93603646368837
C            8.41660710626144       -5.75842805410611        6.41152902162136
H            7.42544267906941       -5.36720819730119        6.30595022187682
N            8.88312198865095       -6.34981190441862        7.48470252040347
C           10.17300791442505       -6.69235606263738        7.20408703948586
H           10.78049889108583       -7.19461657843389        7.92764433530532
O            6.90741231320244       -7.09803811950719       11.20652201746958
H            7.54448738980559       -6.68772276945112       11.80148050400747
H            7.04351068248744       -8.05040864629737       11.25800035903008
