87
 energy: -128.376208409040 gnorm: 0.234791607807 xtb: 6.7.1 (edcfbbe)
Fe         -35.80000000000000      -26.71800000000000       67.75800000000000
N          -35.67900000000000      -26.01100000000000       65.84200000000000
N          -37.40799999999999      -25.50400000000000       68.11799999999999
N          -35.88900000000000      -27.38400000000000       69.69100000000000
N          -34.19100000000000      -28.01000000000000       67.37400000000000
C          -34.79099999999999      -26.42800000000000       64.87400000000000
C          -35.21299999999999      -25.87300000000000       63.60499999999999
C          -36.31700000000000      -25.14700000000000       63.81600000000000
C          -36.62600000000000      -25.21700000000000       65.22900000000000
C          -37.97800000000000      -24.64400000000000       67.19700000000000
C          -38.93100000000000      -23.79800000000000       67.88899999999998
C          -38.92300000000000      -24.15300000000000       69.18200000000000
C          -37.96900000000000      -25.23699999999999       69.35200000000000
C          -36.77999999999999      -26.95000000000000       70.65900000000001
C          -36.62400000000000      -27.80900000000000       71.82299999999999
C          -35.66899999999999      -28.70799999999999       71.54700000000000
C          -35.18399999999999      -28.45700000000000       70.20200000000000
C          -33.69600000000000      -28.93500000000000       68.28700000000001
C          -32.56200000000000      -29.61100000000000       67.69300000000000
C          -32.40500000000000      -28.99800000000000       66.29600000000001
C          -33.46200000000000      -28.02100000000000       66.18800000000000
C          -33.69600000000000      -27.23100000000000       65.08600000000000
H          -32.93800000000000      -27.24299999999999       64.30300000000000
C          -37.68600000000000      -24.60200000000000       65.85299999999999
H          -38.36100000000000      -24.02500000000000       65.22100000000000
C          -37.65899999999999      -25.89100000000000       70.52600000000000
H          -38.15200000000000      -25.54100000000000       71.43300000000001
C          -34.20000000000000      -29.17000000000000       69.54799999999999
H          -33.77300000000000      -30.01400000000000       70.09000000000000
C          -37.13700000000000      -24.36200000000000       62.76400000000000
H          -36.66999999999999      -24.48400000000000       61.76300000000000
H          -37.14900000000000      -23.28300000000000       63.02700000000000
H          -38.17499999999999      -24.75600000000000       62.72699999999999
C          -34.50400000000000      -26.10700000000000       62.25100000000000
H          -33.87000000000000      -27.01700000000000       62.31699999999999
H          -33.85900000000000      -25.23600000000000       62.01000000000000
H          -35.26100000000000      -26.25200000000000       61.45100000000000
C          -39.79300000000000      -22.69100000000000       67.23099999999999
H          -40.15600000000000      -23.04300000000000       66.24200000000000
H          -39.18100000000000      -21.77500000000000       67.08600000000000
H          -40.66900000000000      -22.46400000000000       67.87600000000000
C          -39.78600000000000      -23.53000000000000       70.30099999999999
H          -39.38500000000000      -22.75900000000000       70.97499999999999
C          -41.04800000000000      -23.94200000000000       70.44700000000000
H          -41.46500000000000      -24.71200000000000       69.78100000000001
H          -41.68700000000000      -23.51600000000000       71.23500000000000
C          -37.41700000000000      -27.70100000000000       73.14700000000001
H          -38.42900000000000      -27.29200000000000       72.94100000000000
H          -36.88800000000000      -27.01900000000000       73.84699999999998
H          -37.52200000000000      -28.70799999999999       73.60500000000000
C          -35.16499999999999      -29.82900000000000       72.48399999999999
H          -34.51300000000000      -29.60500000000000       73.34099999999998
C          -35.52600000000000      -31.09600000000000       72.25100000000000
H          -36.17700000000000      -31.34300000000000       71.39999999999999
H          -35.17600000000000      -31.90600000000000       72.90800000000000
C          -31.68500000000000      -30.71800000000000       68.31900000000000
H          -32.31800000000000      -31.59700000000000       68.56600000000000
H          -31.21300000000000      -30.34100000000000       69.25100000000000
H          -30.90100000000000      -31.03000000000000       67.59600000000000
C          -31.34800000000000      -29.34900000000000       65.22600000000000
H          -30.92100000000000      -30.35200000000000       65.44100000000000
H          -30.53000000000000      -28.59800000000000       65.24600000000000
H          -31.82200000000000      -29.36700000000000       64.22199999999999
C          -33.34300000000000      -22.71500000000000       70.70000000000000
H          -32.94500000000000      -21.80500000000000       70.20300000000000
H          -32.61300000000000      -23.05700000000000       71.46500000000000
H          -34.31200000000000      -22.46700000000000       71.18400000000000
N          -32.52100000000000      -24.29600000000000       68.91400000000000
H          -31.57000000000000      -23.99300000000000       68.96899999999999
C          -33.54800000000000      -23.79100000000000       69.68100000000000
C          -32.99400000000000      -25.22900000000000       68.10899999999998
H          -32.39300000000000      -25.79200000000000       67.39500000000000
N          -34.29099999999999      -25.34800000000000       68.32499999999999
C          -34.66200000000000      -24.46000000000000       69.30500000000001
H          -35.68800000000000      -24.38900000000000       69.64299999999999
C          -39.24700000000000      -31.22100000000000       67.63600000000000
H          -39.05400000000000      -32.02800000000000       66.89700000000001
H          -40.33499999999999      -30.99500000000000       67.64700000000001
H          -38.92100000000000      -31.56600000000000       68.63999999999999
N          -38.66500000000000      -29.34700000000000       66.04700000000000
H          -39.30700000000000      -29.63900000000000       65.33900000000000
C          -38.48000000000000      -29.99500000000000       67.24900000000000
C          -37.86700000000000      -28.29600000000000       65.98800000000000
H          -37.81100000000000      -27.60900000000000       65.14400000000001
N          -37.17199999999999      -28.23699999999999       67.10899999999999
C          -37.53800000000000      -29.28700000000000       67.91500000000001
H          -37.09100000000000      -29.43100000000000       68.89099999999999
87
 energy: -128.430264692441 gnorm: 0.100447568049 xtb: 6.7.1 (edcfbbe)
Fe         -35.79122785136038      -26.72764458394973       67.74842602633314
N          -35.69591412560646      -26.03420596932684       65.83768057016104
N          -37.38537054905591      -25.48208131352940       68.12239153212528
N          -35.89610449368360      -27.39426143185518       69.68263896891882
N          -34.20615713709379      -28.00933311836683       67.37319038629198
C          -34.79600276467835      -26.42439757026483       64.88085298898930
C          -35.19720129325930      -25.86985425173429       63.59839570246761
C          -36.32097749304305      -25.14229161854877       63.80861072429816
C          -36.62508792547577      -25.23413601356300       65.22467269261163
C          -37.97710525613613      -24.64489350629770       67.21151479924525
C          -38.94389749305801      -23.79764085522063       67.88706306795412
C          -38.92351760608084      -24.14383398497257       69.19946039344896
C          -37.95563934445089      -25.22266315703921       69.34416035300659
C          -36.76694573033473      -26.96161508908023       70.65448173913208
C          -36.61606430017883      -27.80128816609422       71.83443854037989
C          -35.65307153363283      -28.71622298502310       71.55338737789315
C          -35.19016145614087      -28.45579043579778       70.19585082626794
C          -33.68975844059832      -28.92979426430761       68.25156087437466
C          -32.55808535180667      -29.59715246845792       67.64653376302816
C          -32.40367698430083      -29.01520165486976       66.34495477349319
C          -33.45235807872751      -28.03166221344890       66.22485371583919
C          -33.69519358915726      -27.23950746131310       65.10245330573385
H          -32.95509327938969      -27.27453073417084       64.30646705478733
C          -37.68456781981241      -24.60614101252012       65.85650105726010
H          -38.34413344758556      -24.01335247350028       65.22933326975225
C          -37.65280918162583      -25.89629263414963       70.51992904211551
H          -38.16126872612755      -25.55862546477286       71.41971246769420
C          -34.19520074472346      -29.16451457332726       69.53324124635579
H          -33.76307432776657      -29.99703562439449       70.08363333694969
C          -37.12757609915167      -24.37281170260708       62.77896633046910
H          -36.67707186640578      -24.48183825826089       61.78696644921758
H          -37.15138855770942      -23.30630835105642       63.02844483112603
H          -38.15715885026852      -24.74671546870530       62.73311377800158
C          -34.50564469554699      -26.10768144807983       62.26983284608151
H          -33.87967995891680      -27.00336179034266       62.31685352397589
H          -33.87107365979629      -25.25131829602852       62.01401151136145
H          -35.24363503623186      -26.24672317450884       61.47162465141603
C          -39.78206031418976      -22.71122448278816       67.23698158251517
H          -40.14872209436276      -23.04030469439818       66.25882045126883
H          -39.18983899223390      -21.79936520837896       67.09075487463132
H          -40.64396836857810      -22.47120635723299       67.86891239386068
C          -39.77998429958737      -23.55684871432461       70.28819513680952
H          -39.36923340968565      -22.78697072926274       70.94273250698568
C          -41.03802542067913      -23.94522552802987       70.44314942366849
H          -41.46652321661128      -24.70156881345892       69.79551256930533
H          -41.67483774956854      -23.52436736083583       71.21696504950708
C          -37.40857560753385      -27.69734116313110       73.12536001360361
H          -38.41090837488543      -27.29744224985006       72.93966411117282
H          -36.89694764397884      -27.03206207306553       73.83155138536313
H          -37.51030152749276      -28.68547562615793       73.58929572649464
C          -35.17378450358784      -29.82305980898264       72.45356989882188
H          -34.53680189493060      -29.58114894940802       73.30590789416404
C          -35.52433468807796      -31.08491901425671       72.24323222657195
H          -36.16748010018725      -31.34887229232154       71.41179701939376
H          -35.18532404588869      -31.88769096932598       72.89296030457474
C          -31.70943675533444      -30.68558934697014       68.29038276632645
H          -32.31426406998562      -31.56570572159661       68.55202926334334
H          -31.23303780400444      -30.33580480242612       69.21723317922491
H          -30.91961243426046      -31.01529403409166       67.60698375730485
C          -31.37568186026808      -29.34776538875108       65.27026041747443
H          -30.93262068941813      -30.33418461801338       65.44603886113990
H          -30.55740632593659      -28.61315137630642       65.25604113112044
H          -31.82332120052293      -29.36169716809566       64.26675835279329
C          -33.33593740455935      -22.71135386779359       70.69937000524256
H          -32.94560868719437      -21.80737183297439       70.21843299673927
H          -32.62247907607241      -23.04220495682742       71.46243665241215
H          -34.28994116071417      -22.47236577150215       71.17713865910505
N          -32.51829784137608      -24.28442408635479       68.92322561174056
H          -31.56007738632871      -23.98543524277652       68.97386038971861
C          -33.54075704547569      -23.78164095882973       69.68790610306161
C          -33.01854298351317      -25.22845972286366       68.11392550215277
H          -32.42617563268985      -25.78843128205508       67.40729777295893
N          -34.31161206424697      -25.35368564157569       68.32379787329630
C          -34.65378952284516      -24.46001511454131       69.30073554285283
H          -35.66976862480450      -24.38646481693154       69.63984276049295
C          -39.24795171909983      -31.22167515178166       67.62990450999406
H          -39.06347113850195      -32.02609136599106       66.90840986150812
H          -40.32291603136734      -31.00825943954060       67.65038203213044
H          -38.93027892164953      -31.55824347787461       68.62022020911311
N          -38.67357930077465      -29.35969373768964       66.04870677532165
H          -39.31717858539142      -29.65012168953630       65.33373123504568
C          -38.48723984940639      -30.00070223741580       67.24761754805500
C          -37.85937544359406      -28.29616950700401       66.00518870834475
H          -37.80238251442984      -27.61634356470705       65.17048817574624
N          -37.16199356677031      -28.22248790521388       67.11766717315516
C          -37.53823979314692      -29.27791962217347       67.90344103719829
H          -37.09647726533805      -29.42642939509846       68.87097804861544
87
 energy: -128.446241210550 gnorm: 0.038065878229 xtb: 6.7.1 (edcfbbe)
Fe         -35.78160021403287      -26.73789341692275       67.73702963473296
N          -35.70607755433245      -26.05715395186495       65.83838708924222
N          -37.36218278028032      -25.46770111625904       68.12207359347744
N          -35.89679834154313      -27.40048447355316       69.66924301520659
N          -34.22152578585014      -28.00338128603963       67.37440948357528
C          -34.80461747139024      -26.43218719318472       64.88979877508190
C          -35.18417094585976      -25.87177506071608       63.60166356411423
C          -36.32088428463980      -25.14594324033718       63.81107818076235
C          -36.62230201632592      -25.25499308647107       65.22663229549832
C          -37.96319584483803      -24.64481608568973       67.22188460607050
C          -38.94752721591963      -23.80808037128245       67.88287656208369
C          -38.91881492791728      -24.15008231245895       69.20631730732831
C          -37.93253468524582      -25.21374216559467       69.33423831527004
C          -36.75190173375817      -26.96932349172462       70.64053238943264
C          -36.60662202277481      -27.79347226923057       71.82893239023002
C          -35.64389211421192      -28.72177094289867       71.54268952638938
C          -35.19725567839313      -28.45459496879372       70.18020449495026
C          -33.69615744006577      -28.92071155244881       68.22950099933577
C          -32.55932019891424      -29.57849035693272       67.61101461961920
C          -32.41032786134406      -29.02727551587089       66.38744864749734
C          -33.46052498597043      -28.03856747717498       66.24850344095999
C          -33.70639825088541      -27.25866160990439       65.11276640949255
H          -32.98282155791701      -27.32091286726214       64.30685271509428
C          -37.67399451486298      -24.60737191187035       65.86158810158787
H          -38.31727602139878      -23.99617680995951       65.24009429189447
C          -37.64252681627163      -25.90343416370088       70.50881153668402
H          -38.17533663866155      -25.58630116076697       71.39952088205666
C          -34.19321949261276      -29.15819799995786       69.51881109620007
H          -33.74659737276298      -29.97370043387054       70.07801970150020
C          -37.11647955140042      -24.38474630602744       62.79965745847409
H          -36.67525196225151      -24.48624857243645       61.81111283678725
H          -37.14794653662438      -23.32376621982839       63.04410840714529
H          -38.14369546871682      -24.74648134371302       62.75102095056948
C          -34.50274068290965      -26.10570081516047       62.29215978853828
H          -33.88233572293831      -26.99573684777880       62.32723620990471
H          -33.87226311566784      -25.25746903879281       62.02394361023273
H          -35.23510069605805      -26.23946778182096       61.49682036010763
C          -39.77090440701754      -22.73702539923005       67.24408568598042
H          -40.14064503548228      -23.05137691959206       66.27042374729372
H          -39.18426308923925      -21.82853952415108       67.09803398674926
H          -40.62333394339860      -22.48709021083795       67.87282788170481
C          -39.76466976156505      -23.58841009947329       70.26911778128279
H          -39.33534950154365      -22.82657669359587       70.91369977155921
C          -41.02667482587009      -23.95083866840899       70.43620180363327
H          -41.47279887314819      -24.70071152617091       69.80558998200091
H          -41.65747362428324      -23.52873404758784       71.20239464262397
C          -37.39192484523579      -27.69025514118371       73.09889030156920
H          -38.39005052283166      -27.29785743129873       72.92040182666072
H          -36.89439618146902      -27.03253780852994       73.81327031809896
H          -37.49045043383575      -28.67002316543575       73.56479920303453
C          -35.18328054993284      -29.80859675982146       72.41604158611416
H          -34.55945757589603      -29.54373731173298       73.26588666503714
C          -35.52218547266370      -31.07430555024696       72.22919806263580
H          -36.15808427704265      -31.36105978536811       71.40904674068985
H          -35.19083477729634      -31.86723110284694       72.88097401707607
C          -31.73349192499484      -30.65289624906354       68.26103452965168
H          -32.33782746088180      -31.52351237841945       68.52688411871097
H          -31.26487035440704      -30.30119053844046       69.18335577378254
H          -30.93976799114562      -30.99083857928895       67.59743294603466
C          -31.40158394932855      -29.34592969909441       65.31725276882587
H          -30.95129972781987      -30.32392736747634       65.47617789922946
H          -30.59166022196114      -28.61089365672564       65.29050375180256
H          -31.85426106591501      -29.35375637653993       64.32358048238015
C          -33.32966602862046      -22.70611706788881       70.70082913432067
H          -32.94201136476124      -21.80472987867106       70.22979208512000
H          -32.62414708726535      -23.03037169642327       71.46326840286430
H          -34.27616696218432      -22.47299334467511       71.17582287967771
N          -32.52037835290173      -24.27946651481578       68.92606994334416
H          -31.55679607560207      -23.98794389430095       68.96858719828471
C          -33.53627887260708      -23.77362984118089       69.69322971812147
C          -33.04693499551101      -25.22974381482381       68.11897644427206
H          -32.46439134451462      -25.78888442777760       67.41475250828729
N          -34.33490824245577      -25.35602868555155       68.33252524364590
C          -34.65125531922607      -24.45473682256230       69.30453906954232
H          -35.65858926117113      -24.37253622211129       69.65143089649840
C          -39.24731441765287      -31.22234964979937       67.62653306850409
H          -39.06838360632045      -32.02519752546967       66.91334066925738
H          -40.31625792453212      -31.01660035419978       67.65119424979335
H          -38.93414707021630      -31.55372152585591       68.61033386611723
N          -38.67696990160542      -29.36470794611626       66.04947923612191
H          -39.31919366863902      -29.65136195717977       65.32829098019842
C          -38.49071855028280      -30.00322700513813       67.24682650015237
C          -37.85306059220278      -28.29302509011220       66.02153244762219
H          -37.79432794285812      -27.61696187007618       65.19367518355750
N          -37.15656598634669      -28.21196440999658       67.12838641689052
C          -37.53967393564902      -29.27175417047289       67.89767398606402
H          -37.10410359711969      -29.43028007593899       68.86082031045130
87
 energy: -128.450921067577 gnorm: 0.016377662863 xtb: 6.7.1 (edcfbbe)
Fe         -35.77773980864285      -26.74135011363389       67.73176826105083
N          -35.71061779689342      -26.07459201982448       65.84031066953609
N          -37.33921226682309      -25.46290243079396       68.11674456679881
N          -35.89594984660330      -27.40163683778393       69.65277870766387
N          -34.23862472269315      -28.00268236010306       67.37216239865005
C          -34.81238042260441      -26.44486667059185       64.89157169532095
C          -35.18096796601542      -25.87719137898600       63.60814265480479
C          -36.31635693258490      -25.15178590669393       63.81883502043976
C          -36.61840716044711      -25.26482103957591       65.23037751950176
C          -37.94603881140566      -24.64569406420871       67.21983163092276
C          -38.93913130363578      -23.82324784332673       67.87787183053346
C          -38.91070677141440      -24.16985774628971       69.19856637023756
C          -37.91571641716927      -25.21917019690492       69.32431614301943
C          -36.74477340895711      -26.96912858165399       70.62443977182207
C          -36.59846621745136      -27.78512709099886       71.81227452718507
C          -35.64328292323631      -28.71800069421655       71.52324253081740
C          -35.20157778714317      -28.45226279265965       70.16535789742377
C          -33.71374302824819      -28.91539133691622       68.23046975110869
C          -32.57685983820842      -29.57659935224724       67.61858252264228
C          -32.42142248783144      -29.01698200659139       66.38709782570716
C          -33.47882290927453      -28.03645300491232       66.24716766726249
C          -33.72130030366976      -27.27601642517826       65.10777078697896
H          -33.01367509349762      -27.37220440847993       64.29079263720074
C          -37.66000936481338      -24.60316868692686       65.86218667797412
H          -38.28717832649632      -23.97083839592152       65.24581717189345
C          -37.63855400887724      -25.91132979408563       70.49637196380310
H          -38.19462969703532      -25.61444781331332       71.37954975674870
C          -34.19548690262059      -29.15443091496610       69.51521813179257
H          -33.73048545027397      -29.95401652023717       70.08121100992503
C          -37.11284921617757      -24.38785930195568       62.81603791125171
H          -36.67337313151415      -24.48752374025385       61.82656988588359
H          -37.14265182234778      -23.32829846650186       63.06743238967670
H          -38.14077946074574      -24.74913595075117       62.77300870236800
C          -34.49340427426390      -26.10539442532103       62.30408489496700
H          -33.87416571095670      -26.99689002913593       62.33715270931943
H          -33.86146219616858      -25.25691303946239       62.03953579065295
H          -35.22652266055263      -26.23393749055724       61.50859223361543
C          -39.76460940948886      -22.75660091206037       67.24431040072936
H          -40.13967095258246      -23.07037567738026       66.27227949924189
H          -39.17335855776724      -21.85102343803438       67.09772868154762
H          -40.61060734049787      -22.50650787136053       67.88163324226127
C          -39.74880314922624      -23.61791174696424       70.26418264057531
H          -39.29945289016346      -22.86841312658838       70.90905696197542
C          -41.01581947367447      -23.96153867773516       70.43558876787294
H          -41.48026474192469      -24.70188121087849       69.80485125165580
H          -41.63874597289467      -23.52695196053936       71.20004084195561
C          -37.37921218402350      -27.67957878613155       73.07945841209279
H          -38.37861230218466      -27.29170070976356       72.89741848939691
H          -36.88334546600446      -27.01859818435257       73.79210450888598
H          -37.46933252500872      -28.66091571171672       73.54373742242980
C          -35.18505625827097      -29.80051874477930       72.39141279080326
H          -34.57156278975920      -29.51809557115423       73.24226440066241
C          -35.51410402679395      -31.07016488245538       72.21224204895924
H          -36.14315043037353      -31.37202099767417       71.39073031100153
H          -35.18656716107979      -31.85361322490574       72.87570109654607
C          -31.75246929816884      -30.64160127812301       68.26222078700907
H          -32.36639899890370      -31.50443709000719       68.52155319257666
H          -31.29053309855786      -30.27337698713577       69.17880732967512
H          -30.96044301603662      -30.97265625397301       67.59449130268786
C          -31.41276934130812      -29.33791478062121       65.33243676456335
H          -30.96489676112774      -30.31376942928046       65.50411575859613
H          -30.61208201786339      -28.59589673503498       65.31492729250365
H          -31.87811768292966      -29.34903175442336       64.34769542267169
C          -33.31886048629622      -22.69738871720246       70.70482125780570
H          -32.93078567466281      -21.79429089104699       70.23631809880264
H          -32.61297184796749      -23.02090751094512       71.46789074010638
H          -34.26417577204295      -22.46391976086420       71.18272980837719
N          -32.52921764064489      -24.27954895373973       68.92293571649627
H          -31.56241615193008      -23.99652278862316       68.95557691506477
C          -33.53520599454298      -23.76518494661020       69.69854276606196
C          -33.07344981371198      -25.22886144911718       68.12309466456213
H          -32.50397754268283      -25.79440512087634       67.41434840974051
N          -34.35890892372878      -25.34629523874595       68.34803726805956
C          -34.65782704033111      -24.44043475589501       69.32156455814494
H          -35.65972864404722      -24.34701555626546       69.68100521510982
C          -39.24789677671621      -31.22413944598361       67.62341749860347
H          -39.06976177023449      -32.02856388261939       66.91116087315142
H          -40.31790669962603      -31.02184231327931       67.64966018276927
H          -38.93463781453529      -31.55453741781121       68.60779072965741
N          -38.67573078298896      -29.36085940735179       66.05075164588932
H          -39.31566602929021      -29.64390212117301       65.32591212437562
C          -38.49168252701408      -30.00359563678220       67.24661933291314
C          -37.85044211530752      -28.28823580490459       66.03184438121690
H          -37.78878883323002      -27.60814107818922       65.20834963862994
N          -37.15561659122109      -28.21158113848496       67.13891494160212
C          -37.54230789594673      -29.27410511123244       67.90166714394388
H          -37.11072433739027      -29.44147633722161       68.86481385353824
87
 energy: -128.453647360104 gnorm: 0.011945779758 xtb: 6.7.1 (edcfbbe)
Fe         -35.78080214963885      -26.74028549508292       67.73099748486834
N          -35.70993327852374      -26.08967399086985       65.84647791654510
N          -37.32050675249365      -25.46771702213543       68.10660049424270
N          -35.89518183119102      -27.40157250580690       69.63241408153525
N          -34.26043765552859      -27.98947784861433       67.37459983780239
C          -34.82066116015911      -26.46193845989651       64.89227119219369
C          -35.17803910070047      -25.88555350322073       63.61454991399209
C          -36.30744735063095      -25.15534522608477       63.82843340039235
C          -36.60852708325867      -25.27041481324271       65.23630070666933
C          -37.92650548246550      -24.64735830747490       67.21473297788896
C          -38.93050481070128      -23.84240539678610       67.87015198844219
C          -38.90575165535650      -24.19738034437335       69.18643598534511
C          -37.90394473656764      -25.23329102484029       69.30974617421799
C          -36.73997506665321      -26.96936206612001       70.60531314958897
C          -36.59064758560091      -27.77646914499827       71.79264897122138
C          -35.64270715485780      -28.71349357258551       71.50202734685307
C          -35.20590587434720      -28.44932252649752       70.14905119357337
C          -33.73393862792346      -28.90208834338809       68.23195457682904
C          -32.59723421119315      -29.56339760158371       67.62633590674605
C          -32.44475580149762      -29.01106027695858       66.38961670069477
C          -33.50473372772007      -28.03592476011119       66.24737853516849
C          -33.74222081776498      -27.30519915896442       65.09755810720522
H          -33.04977720975538      -27.43567254903540       64.27464680439651
C          -37.63898935923348      -24.59174979183034       65.86195620884665
H          -38.24958653695305      -23.94142584093492       65.25007898197114
C          -37.64173104600267      -25.92470935708651       70.48059162370771
H          -38.21497813905213      -25.64229101721920       71.35470916228839
C          -34.19497337909517      -29.14888679311451       69.51253967629833
H          -33.71594731637578      -29.93663262959648       70.07982828501355
C          -37.10832255490780      -24.38537483253190       62.83489633368084
H          -36.67614621486587      -24.48250923182305       61.84152458639617