78
 energy: -115.968946845695 gnorm: 0.256591886083 xtb: 6.7.1 (edcfbbe)
Fe         -12.33600000000000        4.35700000000000       13.13300000000000
N          -13.54800000000000        2.85400000000000       12.61100000000000
N          -10.89300000000000        2.98600000000000       13.64400000000000
N          -11.11500000000000        5.84100000000000       13.89300000000000
N          -13.84000000000000        5.77100000000000       12.84200000000000
C          -14.83300000000000        3.00500000000000       12.13000000000000
C          -15.32500000000000        1.68600000000000       11.79100000000000
C          -14.37700000000000        0.78400000000000       12.06200000000000
C          -13.23900000000000        1.50400000000000       12.57600000000000
C          -10.98200000000000        1.61800000000000       13.45800000000000
C           -9.73400000000000        1.00900000000000       13.87800000000000
C           -8.92500000000000        1.98500000000000       14.30900000000000
C           -9.64600000000000        3.24100000000000       14.17100000000000
C           -9.83200000000000        5.67400000000000       14.38000000000000
C           -9.30200000000000        6.97500000000000       14.73900000000000
C          -10.25700000000000        7.88800000000000       14.47800000000000
C          -11.40600000000000        7.18900000000000       13.93600000000000
C          -13.69600000000000        7.13400000000000       13.04100000000000
C          -14.90600000000000        7.79900000000000       12.61400000000000
C          -15.82800000000000        6.69200000000000       12.12600000000000
C          -15.08200000000000        5.46200000000000       12.30200000000000
C          -15.52400000000000        4.19200000000000       11.98800000000000
H          -16.53300000000000        4.11800000000000       11.58200000000000
C          -12.05900000000000        0.93300000000000       12.96700000000000
H          -11.97000000000000       -0.15000000000000       12.88100000000000
C           -9.16100000000000        4.48100000000000       14.50100000000000
H           -8.14600000000000        4.52400000000000       14.89700000000000
C          -12.58500000000000        7.77800000000000       13.54500000000000
H          -12.64800000000000        8.86200000000000       13.64300000000000
C          -14.44000000000000       -0.74700000000000       11.86400000000000
H          -15.43000000000000       -1.02600000000000       11.44300000000000
H          -14.30700000000000       -1.25800000000000       12.84200000000000
H          -13.64500000000000       -1.06700000000000       11.15700000000000
C          -16.72700000000000        1.38700000000000       11.23600000000000
H          -17.08500000000000        2.25700000000000       10.64500000000000
H          -17.43200000000000        1.20700000000000       12.07500000000000
H          -16.68700000000000        0.49500000000000       10.57600000000000
C           -9.43800000000000       -0.50900000000000       13.82300000000000
H           -8.82700000000000       -0.73500000000000       12.92300000000000
H          -10.39200000000000       -1.07500000000000       13.76300000000000
H           -8.87200000000000       -0.81400000000000       14.72900000000000
C           -7.48300000000000        1.85400000000000       14.86400000000000
H           -7.10400000000000        2.61600000000000       15.56100000000000
C           -6.65500000000000        0.85200000000000       14.54100000000000
H           -6.97900000000000        0.06100000000000       13.84800000000000
H           -5.64100000000000        0.80700000000000       14.96400000000000
C           -7.88000000000000        7.19600000000000       15.31300000000000
H           -7.19500000000000        6.41500000000000       14.91900000000000
H           -7.90700000000000        7.12500000000000       16.42100000000000
H           -7.50200000000000        8.19400000000000       15.00500000000000
C          -10.20900000000000        9.41400000000000       14.67300000000000
H          -10.74300000000000       10.09700000000000       13.99700000000000
C           -9.49700000000000        9.91600000000000       15.69400000000000
H           -8.95700000000000        9.24700000000000       16.38000000000000
H           -9.44500000000000       11.00300000000000       15.85700000000000
C          -15.18400000000000        9.31700000000000       12.66400000000000
H          -14.43100000000000        9.85200000000000       12.04700000000000
H          -15.11200000000000        9.67700000000000       13.71200000000000
H          -16.19700000000000        9.52700000000000       12.25900000000000
C          -17.24400000000000        6.87400000000000       11.54200000000000
H          -17.31000000000000        7.85800000000000       11.03000000000000
H          -17.99400000000000        6.84300000000000       12.36100000000000
H          -17.45200000000000        6.06900000000000       10.80500000000000
C          -10.07400000000000        6.41100000000000        8.45200000000000
H          -10.69400000000000        7.22000000000000        8.01000000000000
H           -9.75400000000000        5.71900000000000        7.64400000000000
H           -9.18400000000000        6.86400000000000        8.93800000000000
N          -12.04600000000000        5.00700000000000        9.14800000000000
H          -12.44500000000000        4.97100000000000        8.23200000000000
C          -10.87800000000000        5.66400000000000        9.46700000000000
C          -12.54200000000000        4.44300000000000       10.23600000000000
H          -13.46500000000000        3.86500000000000       10.26600000000000
N          -11.73300000000000        4.70500000000000       11.24900000000000
C          -10.67600000000000        5.45500000000000       10.79200000000000
H           -9.87900000000000        5.77000000000000       11.45400000000000
O          -13.09200000000000        3.82700000000000       15.01300000000000
H          -12.59400000000000        3.05800000000000       15.29100000000000
H          -13.74200000000000        4.22600000000000       15.47000000000000
78
 energy: -116.024021689537 gnorm: 0.105148243946 xtb: 6.7.1 (edcfbbe)
Fe         -12.32403128958472        4.35388706281083       13.15008063626768
N          -13.53958850150011        2.86072361668932       12.58564521211957
N          -10.87419521597808        2.97903712775980       13.63140110946576
N          -11.11577805463850        5.84359057709670       13.88967182060039
N          -13.82534539895401        5.75671450210900       12.83939237443914
C          -14.82654495720579        3.00512724604814       12.12786108547215
C          -15.34555413461842        1.69024156216148       11.78472843202717
C          -14.38251289055401        0.77930151126263       12.05763407471739
C          -13.24761296675213        1.51780399262063       12.56640428727263
C          -10.96032570042220        1.62157625169351       13.45846902272026
C           -9.72193315109290        0.99469444467015       13.87887708396008
C           -8.89869045356201        1.98527011952240       14.31794574387241
C           -9.63971952510825        3.23211915270293       14.16531330500411
C           -9.84197135986359        5.68854492887328       14.37453742643878
C           -9.29665790762057        6.98340217558697       14.74204403257092
C          -10.25964064865799        7.90883568064761       14.47199234267586
C          -11.40316899260103        7.18345813130947       13.93081168956298
C          -13.71844583266249        7.11153223101030       13.02393088427068
C          -14.93490324495341        7.76521037731586       12.60050105453544
C          -15.79848816894748        6.72601308334261       12.13571753365877
C          -15.06367143124485        5.49009847394744       12.30847910556369
C          -15.51427283436718        4.20516319968276       11.99309780833761
H          -16.52155794959332        4.12990002795452       11.59233851970425
C          -12.05797461377793        0.94221147846874       12.96521479290416
H          -11.97723988922704       -0.13606462604449       12.87880976850704
C           -9.16422697526774        4.48585761924881       14.49801201024070
H           -8.15620071934992        4.52787221659031       14.89618917473653
C          -12.59618002349694        7.76422835340850       13.53623821092788
H          -12.65955359967459        8.84392563880413       13.63779453726870
C          -14.43882893128696       -0.72466043907696       11.86732012189557
H          -15.40922389351955       -1.01878914066021       11.45432998462808
H          -14.30506457315429       -1.24322717108711       12.82372945332586
H          -13.65603049267448       -1.05654890773499       11.17501112665430
C          -16.72163559037993        1.39789719806480       11.23685380800126
H          -17.08710338732645        2.24528040474814       10.65012295664880
H          -17.42284290248269        1.21099425476278       12.05826579950452
H          -16.69217488865033        0.51506990556332       10.58992945807769
C           -9.44447914642511       -0.49368139744361       13.82400144365844
H           -8.84460430992111       -0.73139000666602       12.93685414213853
H          -10.37506428433005       -1.06574712927941       13.76892717333402
H           -8.88690974937641       -0.80571494360534       14.71368562591137
C           -7.50523923841709        1.85178662765237       14.85066413763510
H           -7.14424192928609        2.61608540997187       15.53897088045172
C           -6.67237829307418        0.86009884955052       14.54100846450588
H           -6.96016904098505        0.07642001143264       13.85295065409305
H           -5.66924505767166        0.81219707851580       14.95629373916874
C           -7.89946097044229        7.19143297673001       15.30053071581274
H           -7.21117212898675        6.42803443842054       14.92209294656999
H           -7.90918905506925        7.12508821973650       16.39582833200535
H           -7.51504177999679        8.17483046631251       15.00963353515776
C          -10.19865415986985        9.38579501411175       14.68362081191005
H          -10.73743289497650       10.04806832461617       14.00618478051855
C           -9.49954550475210        9.90958130840027       15.68791916986225
H           -8.97113230811250        9.27127268638333       16.38307910475850
H           -9.44749657994253       10.98239111288646       15.85068281477848
C          -15.18578160480877        9.26697115256557       12.65632108918130
H          -14.44687570677500        9.82080842486767       12.05856217160852
H          -15.11680254557628        9.64869131412103       13.68480413172784
H          -16.17983469384061        9.51286198653911       12.26862542179789
C          -17.19957521836186        6.87904412864196       11.56028948356336
H          -17.30107538582369        7.84111097598830       11.04445197312245
H          -17.96548944854652        6.84176214855523       12.34785046625290
H          -17.43042086802377        6.08866303302039       10.83320705267828
C          -10.07604547313980        6.41051710261529        8.44970679915746
H          -10.67986835026361        7.21239516151722        8.00878786910541
H           -9.75094532024777        5.73641439528841        7.64901586873608
H           -9.19851906410437        6.85412665443392        8.92677721036676
N          -12.03774426287872        5.01575823325057        9.13458799599903
H          -12.44244547168337        4.97982783492112        8.21576884939933
C          -10.87349023517395        5.66339470383658        9.45909803532434
C          -12.53006236131558        4.44677926344534       10.24253593537636
H          -13.44360514648549        3.87681084319867       10.27297361117707
N          -11.73493117049099        4.69467694379804       11.26344247150775
C          -10.69095674721132        5.44605808814476       10.79267513326258
H           -9.90022801459035        5.76285736254021       11.44816423341607
O          -13.07002468900727        3.83987397807390       15.03701357482603
H          -12.60873871452192        3.05133930383747       15.32360989463398
H          -13.77519198474176        4.23241565719882       15.51710646692979
78
 energy: -116.041766086751 gnorm: 0.040246979502 xtb: 6.7.1 (edcfbbe)
Fe         -12.31467841067864        4.35658088795952       13.15963470261865
N          -13.53586902625965        2.86972537262377       12.57716201334507
N          -10.86142965412291        2.97735537569609       13.61828650706451
N          -11.11625587842192        5.84180965587776       13.88171134190532
N          -13.81023360888442        5.74302015565926       12.83793106965433
C          -14.81701169844670        3.01029001696785       12.12539101433431
C          -15.35713856443498        1.70152796357113       11.78130707298550
C          -14.38403364600974        0.78632636114129       12.05464036188433
C          -13.25052171881931        1.53716999859620       12.55526651627813
C          -10.94511324064135        1.62952290078118       13.45028431064039
C           -9.71833332230640        0.98841878665474       13.87076396179835
C           -8.88456980972077        1.98792035676719       14.31485803721135
C           -9.63697915452516        3.22806829117597       14.15427056661721
C           -9.85195608692459        5.69385107964074       14.36542254692868
C           -9.29819022281720        6.98001075564197       14.74371594341201
C          -10.26675698200864        7.91405654969796       14.47016746913546
C          -11.40162875912586        7.17253927817428       13.92220210303613
C          -13.72403684408707        7.08894596300927       13.01382393275175
C          -14.95079225872408        7.73088668305414       12.58743371660869
C          -15.76851782135183        6.74802102199269       12.14702597643915
C          -15.04228534177302        5.50115506754288       12.31332852917868
C          -15.50242712368538        4.21586786267779       11.99525427278159
H          -16.51063710827101        4.14346796357274       11.60543980913718
C          -12.05682298503017        0.95747916606328       12.95566520006147
H          -11.98712193719137       -0.11804720065102       12.87385986673908
C           -9.16832585947825        4.48867770945831       14.49087322129343
H           -8.16741222757043        4.53187883047786       14.89596689396035
C          -12.60222770565260        7.74823550773772       13.52764521120038
H          -12.67113988824881        8.82375149899507       13.63128932814942
C          -14.43601576968242       -0.69686698835103       11.87218216029139
H          -15.39613777156945       -1.00154969630731       11.46374304614553
H          -14.29870925127463       -1.21749104579360       12.81897821455366
H          -13.65665653645260       -1.03486489627800       11.18956979555080
C          -16.71664224383885        1.41429616645894       11.23983480938962
H          -17.09068083023690        2.24737398698341       10.65353784316870
H          -17.41952571204893        1.22167393528776       12.05006322172203
H          -16.69285967485915        0.53376071173158       10.60152340227430
C           -9.45211699820726       -0.47751465836880       13.82511112953606
H           -8.86098355421164       -0.72811614675931       12.94355596075562
H          -10.37307972557115       -1.05040827250633       13.77783136642773
H           -8.89512068704242       -0.79232819551927       14.70560287286865
C           -7.53815058193072        1.85662928911901       14.83347827858832
H           -7.19579575716619        2.62869653228414       15.51395742660070
C           -6.69168388142995        0.87256346411525       14.53823219212663
H           -6.94293093381507        0.08833990495252       13.85012824912406
H           -5.69941719987928        0.82606287573037       14.95802886740422
C           -7.92165264943285        7.18644341631156       15.28655672263051
H           -7.23294372460214        6.43282020673294       14.91223995607951
H           -7.91970268784742        7.12133455288369       16.37596682913024
H           -7.53823687896054        8.16546238955980       15.00654702102524
C          -10.19700491232294        9.34689997715708       14.69099974578134
H          -10.74285859869248        9.98879910353826       14.00804539066738
C           -9.50564192364080        9.90073156048779       15.68290429518194
H           -8.98185512371810        9.29389963533563       16.39720845090858
H           -9.45421496770684       10.96629113685621       15.83333683834201
C          -15.18860112843614        9.21442459222781       12.64804811339513
H          -14.45042905567903        9.76494686272317       12.05888101575797
H          -15.11757259241722        9.59274855440784       13.67064939721097
H          -16.17432613556259        9.47550072937871       12.27002567966945
C          -17.15446109792151        6.88277879285769       11.57883373212364
H          -17.27251906140942        7.83533285945514       11.06376076050294
H          -17.91939120651351        6.83743841677707       12.35810423971939
H          -17.38253732991382        6.09400579774648       10.86120732176121
C          -10.07311334153999        6.41141706409305        8.44894580929657
H          -10.67020044513897        7.20819460131898        8.00869080011629
H           -9.74565081720102        5.74799781373666        7.65056013503685
H           -9.20234031050214        6.84934041823473        8.92197737684874
N          -12.03053746614843        5.02184627586830        9.12274301551154
H          -12.44060916135904        4.98680760532122        8.20385483720685
C          -10.86778267011724        5.66276056300402        9.45351480276812
C          -12.51971583963696        4.44956014252818       10.24287501030712
H          -13.42754205380165        3.88580732764184       10.27367795405552
N          -11.73727952105454        4.69030489278597       11.26879092900286
C          -10.70064710089032        5.43897217707944       10.79153022349711
H           -9.91383763760132        5.76000586844132       11.44207770062849
O          -13.01625542270084        3.89635460374868       15.09940493656011
H          -12.65880687343461        3.03740339253018       15.37401082998401
H          -13.81177826966652        4.21059784189368       15.55104979561331
78
 energy: -116.046163697306 gnorm: 0.062890795533 xtb: 6.7.1 (edcfbbe)
Fe         -12.31304239443120        4.35778644744286       13.17233855977268
N          -13.53598077717264        2.87878586156086       12.57857898830799
N          -10.85694550907871        2.98130811928146       13.59615660231405
N          -11.11255272096818        5.83430402950844       13.86564077225091
N          -13.79627944029572        5.73040204329018       12.83656543256122
C          -14.81408777665002        3.01519520510287       12.12625788303125
C          -15.35939682364262        1.71353790946962       11.77954622756107
C          -14.38433388527597        0.80007744931119       12.05110402961793
C          -13.25085288828514        1.55004141592396       12.54797718586822
C          -10.94351015038592        1.63548014126519       13.43088648251059
C           -9.72364004149949        0.99058848968421       13.85105809840096
C           -8.88823681367903        1.99073407249524       14.29362721176444
C           -9.63656739743938        3.22914158248166       14.13410052304008
C           -9.85306732948555        5.68652516772740       14.35348149629510
C           -9.30280828345410        6.96610097482310       14.74262597764776
C          -10.27211760328440        7.90009633062562       14.47409911551996
C          -11.39819370328469        7.16022342194947       13.91474437728615
C          -13.70716064927474        7.07366252688081       13.01221589384879
C          -14.93382008193567        7.71795098022739       12.59009365111361
C          -15.75510344966317        6.73233004651081       12.14533654738835
C          -15.02700849090472        5.48834823109595       12.31437753866353
C          -15.49893496631396        4.21613722698872       11.99755545287723
H          -16.50863766490626        4.15134183269284       11.61461300026241
C          -12.05872260138131        0.96718206124993       12.94169861606145
H          -11.99544214359402       -0.10757171314895       12.86060556750506
C           -9.16755761586104        4.48556061230781       14.47833701447231
H           -8.17207146657647        4.53004645899319       14.89460079182254
C          -12.59604748153082        7.73687257366859       13.52314240496964
H          -12.67388136981025        8.81016449915264       13.62897919623047
C          -14.43078385694342       -0.67884029172592       11.87618207617239
H          -15.38985472324667       -0.98820469595289       11.46989120703188
H          -14.28938634017404       -1.19182273738411       12.82642235892811
H          -13.64773434532790       -1.01471119477213       11.19709989826267
C          -16.71951042687155        1.43240213229650       11.24096163118438
H          -17.09632162236076        2.26396138384723       10.65345591973775
H          -17.42360176764274        1.24027941871007       12.05063726605387
H          -16.69811177312599        0.55051314657457       10.60449719023680
C           -9.46291709165752       -0.47311796582266       13.82257041322691
H           -8.87870737587379       -0.73729511891013       12.94003550890801
H          -10.38648155904182       -1.04345427025991       13.79076201066946
H           -8.89961180958085       -0.77697680865478       14.70300199834969
C           -7.55431010869303        1.86718303318795       14.82150762729438
H           -7.23079810628214        2.64967755670404       15.49870200878593
C           -6.69751909960923        0.88689454743534       14.54138311216100
H           -6.92430360936525        0.10370418258902       13.84152617441338
H           -5.71290227816363        0.84967426338676       14.97546521905633
C           -7.93102971527016        7.17918792902503       15.27770318462647
H           -7.24084622494853        6.43171251572346       14.89479238908768
H           -7.92484382386896        7.11069624291817       16.36653997015547
H           -7.56113650973485        8.16394761826033       15.00009488975346
C          -10.20536285383208        9.32437814063482       14.69570597782622
H          -10.75942791179130        9.95026623975323       14.00580167006814
C           -9.51625611215491        9.89924674651211       15.67876306935733
H           -8.99692535470568        9.31313522587148       16.41612096545185
H           -9.47010043772776       10.96679980390263       15.80771633789465
C          -15.18124822245711        9.18873737162190       12.64829330887588
H          -14.44229749552361        9.72923184709225       12.05581190694575
H          -15.11213442973593        9.55266075625538       13.67345079477800
H          -16.16908933138572        9.43719898836300       12.27059050383005
C          -17.13346600501571        6.87206488401394       11.58647832973290
H          -17.24693013045425        7.82794514279228       11.07905503623582
H          -17.88546956665892        6.82343178341493       12.37532613666465
H          -17.35111920524565        6.08301970040564       10.87049865856496
C          -10.06626608973727        6.41164074541959        8.45186057522205
H          -10.66124465732199        7.20929857032242        8.01014260642522
H           -9.73527741345996        5.75303246917978        7.65064396126637
H           -9.19598540864353        6.84883938418710        8.92596672635262
N          -12.02573639763004        5.02285110297408        9.11842583494783
H          -12.43581521336766        4.99064773232907        8.19902848370381
C          -10.86305952918386        5.66129756721144        9.45437975606047
C          -12.51742680246332        4.45034486284571       10.23950996228691
H          -13.42515682394551        3.88833625698989       10.26784047143921
N          -11.74102920024003        4.68887023956882       11.26996429586817
C          -10.70357132801659        5.43609412068813       10.79357903516199
H           -9.91897177620843        5.76030204162148       11.44400579766774
O          -12.94990040999476        3.97742942575830       15.19258717488887
H          -12.73060971069593        3.02156437744767       15.41506407190552
H          -13.85240849455399        4.18956958708408       15.57281185751502
78
 energy: -116.049651672246 gnorm: 0.034818078866 xtb: 6.7.1 (edcfbbe)
Fe         -12.31449946239308        4.35703437529433       13.18321793233254
N          -13.54059725900213        2.88827371093196       12.58622475067986
N          -10.85926178200625        2.98669905125632       13.57373715149202
N          -11.11222136474081        5.82180611257720       13.84774800698209
N          -13.77999203444200        5.71292218769207       12.83874279809245
C          -14.81458227329653        3.02032821307043       12.12796429708702
C          -15.36093496798275        1.72696110369096       11.77668621492711
C          -14.38537578170330        0.81671376860341       12.04544895487172
C          -13.25265593015414        1.56233691284667       12.54152454870414
C          -10.94730276362554        1.64140128472216       13.40788320934745
C           -9.73345303229031        0.99497993312193       13.82656043873833
C           -8.89890801736155        1.99383487500734       14.26672464855289
C           -9.64062788242453        3.23084031464711       14.11141900318026
C           -9.85626302614092        5.67360790704721       14.34092334717207
C           -9.31201121390376        6.94593291313922       14.74239425930021
C          -10.28075345527433        7.87823399429047       14.48119061125912
C          -11.39730505952978        7.14405364835972       13.90879283304349
C          -13.68479271853882        7.05483744069474       13.01363847482190
C          -14.90818932832436        7.70315258873091       12.59424186780362
C          -15.73972792180464        6.70701142007229       12.14311225236044
C          -15.00967936541645        5.46814486743770       12.31597561807775
C          -15.49819080948081        4.21493540028021       11.99946158303363
H          -16.50901809976181        4.16180101109650       11.62207843952905
C          -12.06298063770470        0.97621262545914       12.92475807819587
H          -12.00467587561473       -0.09779241434963       12.84152853402303
C           -9.16852653697744        4.47969943177772       14.46423016756701
H           -8.17835303962679        4.52649662064675       14.89253544148914
C          -12.58918570829606        7.72398334023796       13.52022827808292
H          -12.67817538674615        8.79520721891260       13.62682449794668
C          -14.42440719234183       -0.66116529388602       11.87821579215009
H          -15.38365216306442       -0.97533682617442       11.47337303932342
H          -14.27875466641516       -1.16358115779605       12.83516226329996
H          -13.63539143995221       -0.99297463371505       11.20230666935233
C          -16.72464421068122        1.45305323036155       11.23969829383494
H          -17.10151670908890        2.28629233468800       10.65058512896172
H          -17.43026642799715        1.26387042662115       12.05100002797990
H          -16.70534602955978        0.56893033442317       10.60382584225763
C           -9.47587910512437       -0.47013149312876       13.81830844351932
H           -8.90009591207538       -0.75023843964516       12.93310920483495
H          -10.40470858277741       -1.03708045775686       13.80684072366028
H           -8.90293240136556       -0.75829509641645       14.70003804966091
C           -7.57059069853922        1.88042241683632       14.80847563059833
H           -7.27039200063416        2.67270041038879       15.48608801067844
C           -6.70195412460930        0.90533784231680       14.54339828422750
H           -6.90669982383286        0.11948426277057       13.83522558863266
H           -5.72674830100690        0.87825313322278       14.99913692276385
C           -7.94153138866076        7.16958337938454       15.27037042738233
H           -7.24806692486212        6.42967032819547       14.87504618490647
H           -7.93059274612824        7.09603582736145       16.35957283710959
H           -7.58964702224988        8.16323984670611       14.99440182714747
C          -10.21858028440450        9.30081849712880       14.70149414172552
H          -10.77986998774529        9.91000068263210       14.00235449632144
C           -9.53234367225327        9.89698491121131       15.67604346809805
H           -9.01190853379124        9.33349508847444       16.43532380334732
H           -9.49343877057627       10.96875910661143       15.77834006303069
C          -15.17087137044289        9.16208204471220       12.64897479405305
H          -14.43179772167763        9.69371803804058       12.05208888187880
H          -15.10540161800246        9.51060792924578       13.67796580525177
H          -16.16308495398944        9.39271297487832       12.26974058531528
C          -17.11152837792591        6.85771651140433       11.59370384250356
H          -17.21736022983122        7.81972561059054       11.09574189187528
H          -17.84941591856220        6.80599580190915       12.39465131441234
H          -17.31854377761743        6.06937365720289       10.87692409467592
C          -10.05530031563944        6.41334414822660        8.45623142507477
H          -10.64936645131939        7.21318354571661        8.01297859334770
H           -9.72036605524684        5.75833770903680        7.65118336828311
H           -9.18453869240982        6.85041097916958        8.93356066278241