87
 energy: -128.241133140755 gnorm: 0.286018837199 xtb: 6.7.1 (edcfbbe)
Fe          29.02700000000000       25.21800000000000       13.17400000000000
N           27.61900000000000       25.85300000000000       11.87300000000000
N           30.20200000000000       26.75300000000000       12.63500000000000
N           30.41200000000000       24.64500000000000       14.51400000000000
N           27.79900000000000       23.75700000000000       13.77600000000000
C           26.35400000000000       25.33400000000000       11.73400000000000
C           25.56800000000000       26.21400000000000       10.88000000000000
C           26.35300000000000       27.23800000000000       10.51700000000000
C           27.65800000000000       27.00700000000000       11.10600000000000
C           29.96200000000000       27.66000000000000       11.62500000000000
C           31.15400000000000       28.43700000000000       11.39900000000000
C           32.09100000000000       28.02900000000000       12.26100000000000
C           31.50200000000000       26.98300000000000       13.05500000000000
C           31.65800000000000       25.19100000000000       14.69000000000000
C           32.34100000000000       24.46700000000000       15.76000000000000
C           31.50900000000000       23.49600000000000       16.16600000000000
C           30.29600000000000       23.58100000000000       15.38500000000000
C           28.07800000000000       22.78000000000000       14.71300000000000
C           27.00200000000000       21.81700000000000       14.74900000000000
C           26.06700000000000       22.23200000000000       13.89100000000000
C           26.54900000000000       23.43500000000000       13.26200000000000
C           25.87300000000000       24.17200000000000       12.30300000000000
H           24.89800000000000       23.81100000000000       11.97700000000000
C           28.77200000000000       27.79300000000000       10.93500000000000
H           28.71200000000000       28.58900000000000       10.19200000000000
C           32.17100000000000       26.28600000000000       14.04300000000000
H           33.16700000000000       26.62700000000000       14.32500000000000
C           29.21300000000000       22.74100000000000       15.49200000000000
H           29.25700000000000       21.97300000000000       16.26500000000000
C           24.08599999999999       25.95600000000000       10.52900000000000
H           23.72000000000000       25.86000000000000       11.57300000000000
H           24.22700000000000       24.94000000000000       10.10200000000000
H           23.33400000000000       26.51700000000000        9.93400000000000
C           25.97900000000000       28.41700000000000        9.58700000000000
H           26.79100000000000       28.26500000000000        8.84500000000000
H           26.28300000000000       29.21700000000000       10.29500000000000
H           25.05300000000000       28.71600000000000        9.05100000000000
C           24.71800000000000       21.56300000000000       13.52300000000000
H           23.89300000000000       21.58500000000000       12.78000000000000
H           24.29600000000000       21.74299999999999       14.53500000000000
H           25.20800000000000       20.56600000000000       13.48800000000000
C           26.97400000000000       20.56200000000000       15.64800000000000
H           25.93200000000000       20.38900000000000       15.80500000000000
C           28.04500000000000       19.79600000000000       15.86000000000000
H           29.05300000000000       20.16900000000000       15.62700000000000
H           27.93300000000000       18.78200000000000       16.27100000000000
C           31.72600000000000       22.41600000000000       17.24600000000000
H           31.54900000000000       21.53000000000000       16.60000000000000
H           30.80100000000000       22.63300000000000       17.82100000000000
H           32.56200000000000       22.19300000000000       17.94200000000000
C           33.77800000000000       24.82300000000000       16.18700000000000
H           34.28000000000000       25.29600000000000       15.34300000000000
C           34.21200000000000       24.81500000000000       17.43100000000000
H           33.63600000000000       24.31000000000000       18.22000000000000
H           35.15600000000000       25.31300000000000       17.69600000000000
C           33.53900000000000       28.54900000000000       12.43200000000000
H           34.52000000000000       28.28400000000000       12.88100000000000
H           33.21700000000000       29.53600000000000       12.82700000000000
H           33.65000000000000       28.60000000000000       11.32800000000000
C           31.26800000000000       29.49900000000000       10.27200000000000
H           32.27400000000000       29.12700000000000        9.98200000000000
H           31.38600000000000       30.29500000000000       11.03800000000000
H           30.76300000000000       29.91000000000000        9.37200000000000
C           28.31500000000000       28.56200000000000       17.55200000000000
H           27.87800000000000       28.10200000000000       18.46400000000000
H           27.85100000000000       29.55900000000000       17.39300000000000
H           29.41100000000000       28.67200000000000       17.69400000000000
N           26.78800000000000       27.33500000000000       15.92400000000000
H           25.93500000000000       27.62700000000000       16.35500000000000
C           28.04300000000000       27.68200000000000       16.36800000000000
C           26.89200000000000       26.56700000000000       14.85500000000000
H           26.04900000000000       26.14400000000000       14.31000000000000
N           28.17300000000000       26.41700000000000       14.58400000000000
C           28.92800000000000       27.11000000000000       15.51400000000000
H           30.01000000000000       27.12700000000000       15.47500000000000
C           32.66400000000000       22.78500000000000        9.68700000000000
H           32.32900000000000       22.49200000000000        8.66900000000000
H           33.25800000000000       21.95400000000000       10.12400000000000
H           33.29000000000000       23.70000000000000        9.61100000000000
N           30.52000000000000       22.08200000000000       10.79400000000000
H           30.56100000000000       21.15000000000000       10.43300000000000
C           31.46000000000000       23.06200000000000       10.55300000000000
C           29.57100000000000       22.58100000000000       11.57300000000000
H           28.69700000000000       22.02800000000000       11.91400000000000
N           29.87700000000000       23.83599999999999       11.84800000000000
C           31.06800000000000       24.18000000000000       11.20000000000000
H           31.49900000000000       25.17000000000000       11.27000000000000
87
 energy: -128.354334335890 gnorm: 0.159383617882 xtb: 6.7.1 (edcfbbe)
Fe          29.01416625743225       25.21759690599720       13.18000470502541
N           27.60545937355266       25.86219757627769       11.87194578807533
N           30.20075996554661       26.73601737732396       12.63059775428473
N           30.41940714587943       24.63756256628066       14.51083492664133
N           27.80028502485660       23.75358265869325       13.77445972721492
C           26.34887244705492       25.34527076714205       11.72588162398613
C           25.55372551055909       26.21485540022960       10.86942448234091
C           26.34257848266061       27.23582150727808       10.49897765067034
C           27.64353925217312       27.00445132796423       11.10784214446604
C           29.95683423775212       27.63780686554414       11.62907482431568
C           31.13643156305847       28.41513810614983       11.38214212777478
C           32.08562434616893       28.00816866440739       12.26644222263229
C           31.48665089127467       26.97042105996843       13.05245543763151
C           31.65589595896347       25.18477386580116       14.70179907079421
C           32.36562651740897       24.46905315793731       15.75605398071460
C           31.52830367526287       23.49490944719319       16.17645644357798
C           30.31098656694282       23.59243029255936       15.39010994581135
C           28.08121299419811       22.78827120586354       14.70646363096597
C           27.00761980387805       21.82191169705618       14.75860288726919
C           26.06864911324957       22.24532841541943       13.86623506856268
C           26.56494365290057       23.44323555260774       13.25619452381164
C           25.88048486718904       24.17809211054541       12.30124065724402
H           24.90570865834968       23.81495374696201       11.98811422681949
C           28.76616874334447       27.78858323949045       10.93899888338316
H           28.71430695809686       28.58625846546391       10.20233238683531
C           32.16165964708203       26.28307384300426       14.04383825631184
H           33.15520569519281       26.62760288238145       14.31459579343003
C           29.21900260884245       22.75008532621289       15.49353134394000
H           29.25738030656191       21.98676502760387       16.26264997317558
C           24.09773205603398       25.92103530250146       10.55656290968498
H           23.67948603959612       25.83775304072480       11.56645608477219
H           24.18321250480989       24.92652203589236       10.10299853724090
H           23.40775438280388       26.52973820600962        9.94808344199504
C           26.02816875987227       28.42330332513513        9.60072952131032
H           26.79443790903686       28.30547234897733        8.82606270233260
H           26.28874329986549       29.25532696970263       10.26498771838229
H           25.07109253024634       28.65515755969945        9.10071425638460
C           24.74367629841853       21.53604720484913       13.56913432886080
H           23.96924505775595       21.63858401070195       12.78590766090501
H           24.25604881853177       21.69841156815188       14.53964876438932
H           25.15316200871948       20.52079837580544       13.50153765979503
C           26.97208483685475       20.57288157864839       15.59777306922378
H           25.93602843989504       20.36511024099257       15.81493350163105
C           28.03062140983192       19.80583362568129       15.85071307565012
H           29.03362080621446       20.14574525072757       15.61264344274539
H           27.93082021303223       18.81103643630201       16.28608231035690
C           31.68765951253699       22.41007729901658       17.22863937315973
H           31.54110469511544       21.50249958303159       16.63013050982063
H           30.80030726610256       22.59458681243499       17.84631303947502
H           32.55253987876912       22.24365074479947       17.89056372336771
C           33.74576659869599       24.84587307418236       16.18297317211813
H           34.28817115364867       25.29180971323183       15.35469219514676
C           34.20420556150399       24.81423163106455       17.42561187868733
H           33.64095578000364       24.32806970207144       18.21543249246154
H           35.14998837384380       25.28508699941689       17.69128369643984
C           33.50229045993125       28.58042880225080       12.39496621704694
H           34.43470380947583       28.23886068614588       12.88503098333658
H           33.25770103842655       29.56783196996644       12.80867870237664
H           33.70533543033847       28.65111462128701       11.31891387846373
C           31.31605810553731       29.50085703256099       10.31283397898888
H           32.30257168804992       29.18192178161967        9.95196594594144
H           31.42021386320560       30.34629677801264       11.00474355749870
H           30.73706768265915       29.84052499752407        9.43306979574768
C           28.30850921966501       28.56160057065433       17.55373439583741
H           27.88218473558022       28.11222444594608       18.45974020024767
H           27.85819091066243       29.55100901332526       17.40188760144908
H           29.39027319902428       28.67136002924928       17.69034314544675
N           26.78863254871880       27.34536870797446       15.93950887356464
H           25.92879405416803       27.63485779635985       16.36837519263790
C           28.04350270112565       27.69119463107906       16.37315990623089
C           26.90864388662290       26.56815917148275       14.85534221366090
H           26.07244443021032       26.14861284218665       14.31443043879296
N           28.18246761726539       26.40894015810040       14.57469579299722
C           28.91392859121873       27.10520066459457       15.50612458338524
H           29.98949984222166       27.12281724113021       15.47145258453300
C           32.66243938489339       22.78305395742748        9.68536723088494
H           32.33853731410969       22.49365234688219        8.67731424118662
H           33.25579931060336       21.96543698486956       10.11453899842128
H           33.28106513060730       23.68415502739740        9.61362204584191
N           30.53046842487762       22.08096240510932       10.78631469945708
H           30.56539194392030       21.14334866444801       10.42789283132128
C           31.46886973182591       23.05338671892100       10.54324509272558
C           29.57936635528949       22.60235230205329       11.57610093979213
H           28.71301607246030       22.05130699124114       11.91470210098766
N           29.86969040555520       23.85639597272416       11.84932201617283
C           31.05471696495943       24.16475529330904       11.20407854316410
H           31.48650068961811       25.14814969505553       11.27259371781690
87
 energy: -128.418319125395 gnorm: 0.063244571722 xtb: 6.7.1 (edcfbbe)
Fe          29.00572017694097       25.22138466691109       13.18625710123887
N           27.59235137045436       25.87149222659668       11.87334462995437
N           30.20395589836611       26.72609375911203       12.62209428437419
N           30.42594266693203       24.63296982089661       14.51267478248811
N           27.80165757879723       23.75013006825784       13.77148530193762
C           26.34389110306478       25.35591376293986       11.72080147371116
C           25.53909756658213       26.21555224563530       10.86061307842754
C           26.33420077553696       27.23685492023786       10.48338229193887
C           27.63199252105323       27.00039070036532       11.11108301179809
C           29.95837627621134       27.61916387062433       11.62387889088260
C           31.12692576081155       28.40717227215115       11.36479615843733
C           32.08553836030554       28.00073070066986       12.26708078457114
C           31.47941195139556       26.96087458755277       13.04223549602507
C           31.65540103612141       25.17643869335967       14.70968640539968
C           32.38060536705298       24.47078816466603       15.75947897118268
C           31.53552886171508       23.49233259640651       16.19203894567821
C           30.32218625033623       23.60127670674500       15.39224766208435
C           28.08564472162028       22.79428283542914       14.69620500535342
C           27.01397268266379       21.82242839589885       14.76231967738762
C           26.06765938334188       22.25030111529402       13.84814896982787
C           26.57831074779438       23.44505683234440       13.25235806800687
C           25.88696064211648       24.18399676938524       12.30077598545325
H           24.91282679351247       23.81909664291440       12.00114030460347
C           28.76115648372098       27.78276588108498       10.93960750420510
H           28.71484240606283       28.58384607561260       10.21306475441690
C           32.15562521863375       26.27699519254931       14.04002677312345
H           33.14419189888449       26.62752675758621       14.30386212760250
C           29.22383942841910       22.75832108524559       15.49214515627884
H           29.25514978174824       21.99900634408950       16.25857068909849
C           24.11002896343079       25.88882486827339       10.57995337085525
H           23.63915866048512       25.81439731218384       11.55903546875110
H           24.13695712559759       24.90966861061506       10.10419015260783
H           23.48806372658851       26.55088344326885        9.95904730627685
C           26.07469008239374       28.42562118961203        9.61375947506807
H           26.80133523208588       28.34822843096239        8.80694576676961
H           26.29662876059699       29.29026557836193       10.23668198776299
H           25.08520104329212       28.58498973031194        9.15410220352760
C           24.77422677801959       21.51294270873689       13.61534208703542
H           24.06028522411186       21.70506950894691       12.78910008415502
H           24.22249519120288       21.65516051375087       14.54618312510717
H           25.10423681038477       20.47975038082228       13.51733787488200
C           26.97071248215933       20.59913661982992       15.55593015517760
H           25.94734117122301       20.33415595844648       15.81955974591584
C           28.01363164521752       19.82085044291256       15.84364930497996
H           29.01772172542590       20.12250261951980       15.59236718254084
H           27.91873788245391       18.84374314223684       16.30083922515339
C           31.65300799425388       22.40563701096761       17.21185429498772
H           31.53148098136112       21.47505465081071       16.65850788104311
H           30.79878433151339       22.55623489586740       17.87110638585573
H           32.55147756596202       22.30326735300720       17.83549385575524
C           33.71350762804049       24.85549485242184       16.17712742757102
H           34.29586958719738       25.29747125225940       15.37419235020061
C           34.19693441589580       24.80708960587873       17.41611925295265
H           33.63994104828395       24.34851539291092       18.21480327145796
H           35.14479403540001       25.25534618514662       17.67949513984813
C           33.46151025907493       28.61034010732273       12.35938029319973
H           34.33417926008808       28.17854607582617       12.89265897128520
H           33.29099585921284       29.59895072963279       12.78948738992265
H           33.75043567674766       28.69879379511745       11.31160332412123
C           31.36126510471752       29.49903691739452       10.35572744033952
H           32.32943067630189       29.23340362444994        9.92939078319800
H           31.45356698413273       30.39143502792306       10.97573917205706
H           30.70003697329248       29.75566830156251        9.50270647640562
C           28.30455281190147       28.56147430108486       17.55430212885413
H           27.88328641018762       28.11877886499456       18.45596602551524
H           27.86200105694506       29.54643138135533       17.40894442807266
H           29.37705015963243       28.67188072614038       17.68864938513712
N           26.78951411369674       27.35281342692844       15.95032175598800
H           25.92397211385426       27.63887322023894       16.37544734717685
C           28.04584132934111       27.69791262926149       16.37520701919333
C           26.92327933921371       26.56769480331260       14.85648708990714
H           26.09195129348863       26.15240561789714       14.31903559922446
N           28.19104363868404       26.39922988813480       14.56854382039295
C           28.90267827662678       27.09938149981676       15.49845376647586
H           29.97411857441309       27.12143000372162       15.47093985211220
C           32.66136865509593       22.78307994088249        9.68489491516890
H           32.34627173149858       22.49449063873829        8.68231829540706
H           33.25571478479566       21.97323837413697       10.10768088793164
H           33.27550667077531       23.67527980853992        9.61605980862872
N           30.53527215807555       22.08145801372186       10.78269615110148
H           30.56335523629584       21.13945649949112       10.42859605380451
C           31.47451541775310       23.04780160707737       10.53605873099340
C           29.58449227879548       22.62266904156572       11.57816157958375
H           28.72593469240670       22.07214606392706       11.91556284286126
N           29.86781677702358       23.87383693836953       11.85004322874274
C           31.04121954956041       24.15392555978610       11.20567891197750
H           31.48060833359690       25.12965062302275       11.27112786349372
87
 energy: -128.443568512703 gnorm: 0.049092458374 xtb: 6.7.1 (edcfbbe)
Fe          29.00327845390789       25.22527153825297       13.18879680033684
N           27.58837826964564       25.87372414017128       11.88042971485024
N           30.20922950218663       26.71699963985247       12.60699246375366
N           30.42786528155709       24.63138995232085       14.50884891345314
N           27.80464637224449       23.74943873418772       13.76715392561876
C           26.34392995658487       25.35735228457255       11.72494629933185
C           25.53905007783591       26.20885604097821       10.85980830128064
C           26.33953320250529       27.23205796964537       10.47986853869231
C           27.63175983643937       26.99431471206108       11.11638874460771
C           29.96213814945729       27.60912144500505       11.61156658058109
C           31.12712454014084       28.40898930665149       11.35786112578829
C           32.08358529918912       28.00306202851494       12.26049122548087
C           31.48080362810056       26.95351929804009       13.02923413089692
C           31.65405356664335       25.17204620258553       14.70619239727221
C           32.37487939910237       24.46870025682648       15.75959236842118
C           31.52416917468131       23.48998880833584       16.19571777183745
C           30.32054752307929       23.60733657136735       15.39008652000289
C           28.09264566825379       22.79894396946352       14.69015091564819
C           27.02334113458802       21.82611152930863       14.76274484690709
C           26.06983742394522       22.24925680367723       13.85259835329329
C           26.58299807469469       23.44185425055730       13.25192254357273
C           25.89004154709943       24.18622492711827       12.30455371368907
H           24.91391776575547       23.82382656719779       12.01636442975035
C           28.75904602715469       27.77659130732390       10.93879873044341
H           28.71129565835485       28.58317517964000       10.22178482059526
C           32.15229653591187       26.27097466567545       14.03198885279266
H           33.13792259758297       26.62592899897603       14.29234559104820
C           29.22459055591174       22.76627862276415       15.49148244304064
H           29.25069520684106       22.01172712068315       16.26036658666317
C           24.11683120033699       25.87178009348943       10.58914529462781
H           23.59762643435782       25.79404617039699       11.54730580752052
H           24.08854274300414       24.89452502699950       10.10155332169958
H           23.55949910902292       26.58116308938130        9.96037898384849
C           26.10211232546805       28.42340486981355        9.62132643510001
H           26.80665698034729       28.38993224884594        8.78749562069452
H           26.30417914593481       29.32067487268781       10.20965544620006
H           25.08952165702568       28.51797092400605        9.19955866822834
C           24.79507878111194       21.50360169553538       13.64210487599961
H           24.14308876049339       21.77059727646111       12.78663929484047
H           24.19228256059434       21.61501873852705       14.54950505690373
H           25.05631221087731       20.44698183730670       13.53112617997639
C           26.97029553753331       20.60764683601997       15.53282880113674
H           25.96095863476832       20.30540372336598       15.81438948547609
C           28.00273910582631       19.82256471261917       15.83295128994811
H           29.01015503836984       20.09279975269835       15.55657140697626
H           27.89803191047731       18.87079323776683       16.33473506918235
C           31.63420287113064       22.40382053204185       17.20414071700242
H           31.52400120280587       21.44743203025164       16.68846627296207
H           30.79981049227067       22.51598376884586       17.90140719036565
H           32.56452205551582       22.36267257460729       17.78653405964317
C           33.69688057433179       24.86462461686628       16.18067334723093
H           34.30436177768455       25.30791032596344       15.39620606675754
C           34.18799759172276       24.80666534004041       17.41567769146128
H           33.62789316105838       24.36898814924072       18.22379199523405
H           35.15604061696315       25.21399614825693       17.66724383820956
C           33.43440183595424       28.62632279665856       12.34139839170503
H           34.24191032549084       28.11773897004403       12.90745333603597
H           33.32237527031831       29.62620677372649       12.77198787994381
H           33.79443105589385       28.74176578984471       11.31246146811901
C           31.38135084538938       29.49936753198118       10.37963402777878
H           32.34574180920728       29.28741636926192        9.90490469707722
H           31.48252656703655       30.43136655905007       10.94484400432527
H           30.65657171047641       29.68209076755483        9.56182635221278
C           28.30229553464304       28.56349683982777       17.55491971793369
H           27.88037629221690       28.12148786777897       18.45645059804881
H           27.86111793470863       29.54956942248268       17.41464285194185
H           29.37358629428820       28.67488120334723       17.69031410982671
N           26.79064559253602       27.35567782236003       15.95308197253646
H           25.92298231753563       27.63951999161308       16.37683834421101
C           28.04797758805752       27.70182120125116       16.37443586540963
C           26.92966884041742       26.56632337152221       14.85933798240231
H           26.10139816295117       26.15193637206034       14.32158696807961
N           28.19579196208962       26.39427195500473       14.56900256117178
C           28.90093316050553       27.09800654903471       15.49720227134605
H           29.97087785809565       27.12361367304302       15.47480638293721
C           32.66177674799297       22.78202898579469        9.68368160441615
H           32.35330884559755       22.49320804565846        8.67913036217332
H           33.26040129960652       21.97439217011287       10.10418560838044
H           33.27458398499783       23.67480900830966        9.61814785035362
N           30.53198082991747       22.08359850968496       10.78377530525137
H           30.55509874852000       21.13899499999882       10.43503513002411
C           31.47483913104470       23.04571878154183       10.53274254520577
C           29.58410353334809       22.63566787397587       11.57847565481418
H           28.72892439371349       22.08879078384055       11.92044361818753
N           29.86910471850212       23.88642746707218       11.84413651581604
C           31.03965212022085       24.15271282728053       11.20143008094895
H           31.48904178029744       25.12170725549135       11.26319607450966
87
 energy: -128.452755895217 gnorm: 0.037742612423 xtb: 6.7.1 (edcfbbe)
Fe          29.00445443986974       25.22695453446597       13.18712349270803
N           27.59118135079136       25.86942299993445       11.89027741313956
N           30.21693025753920       26.70869502446368       12.58866789724155
N           30.42578723062602       24.63194130862020       14.50147070989397
N           27.80714995112952       23.74697880542946       13.76206160311263
C           26.34686559274009       25.35376333028729       11.73381023901127
C           25.54572019962571       26.19811220103145       10.86293638191034
C           26.35115998102366       27.22238637758199       10.48169411178832
C           27.63705234304861       26.98544778402809       11.12259263955214
C           29.96742707520471       27.60511511488900       11.59736070589256
C           31.13104858348852       28.41681600539998       11.35415521861474
C           32.08244169517980       28.01086570359525       12.25258747007579
C           31.48745529497492       26.94700406344587       13.01430245804748
C           31.65096768552855       25.17168185558081       14.70122469970871
C           32.36071900400049       24.47223758841739       15.76390068903308
C           31.50662909973815       23.49363700884109       16.19817532362294
C           30.31365410921018       23.61325640241369       15.38759022267105
C           28.09912443988836       22.79832204865867       14.68540309869362
C           27.03339976770345       21.82492494321498       14.76056694747847
C           26.07262495800835       22.24217910813004       13.86350652536722
C           26.58120559063203       23.43667943701978       13.25568430601068
C           25.88894522915793       24.18670217642204       12.31431344144673
H           24.90803186176179       23.83188924229775       12.03594879602744
C           28.75961463684502       27.77058329504823       10.93741515681201
H           28.70322585987485       28.58295660934013       10.22854462719839
C           32.15209602846934       26.26480286604635       14.02040870450104
H           33.13664813606778       26.62147537207776       14.27961967945224
C           29.22313866125253       22.77078597062388       15.49173354572492
H           29.24580001567040       22.02142199439323       16.26537680380122
C           24.12183891498359       25.87093294333511       10.58433614576952
H           23.56889537860766       25.79373079880676       11.52608167410496