78
 energy: -115.953263533289 gnorm: 0.271525624542 xtb: 6.7.1 (edcfbbe)
Fe           5.07100000000000        5.75500000000000        8.39400000000000
N            4.96700000000000        7.56700000000000        7.45700000000000
N            4.42800000000000        4.78500000000000        6.68200000000000
N            5.16900000000000        3.89200000000000        9.34700000000000
N            5.70200000000000        6.71800000000000       10.17900000000000
C            5.30100000000000        8.78200000000000        8.00900000000000
C            5.18000000000000        9.76700000000000        6.96400000000000
C            4.80600000000000        9.14900000000000        5.84300000000000
C            4.65500000000000        7.74200000000000        6.12400000000000
C            4.18600000000000        5.41100000000000        5.47900000000000
C            3.82400000000000        4.38800000000000        4.52100000000000
C            3.83800000000000        3.20800000000000        5.14700000000000
C            4.22100000000000        3.43100000000000        6.52500000000000
C            4.67600000000000        2.71100000000000        8.83000000000000
C            4.56500000000000        1.78400000000000        9.93400000000000
C            4.98100000000000        2.40100000000000       11.04800000000000
C            5.37500000000000        3.74300000000000       10.70100000000000
C            5.90000000000000        6.05000000000000       11.37700000000000
C            6.14200000000000        7.02800000000000       12.40300000000000
C            6.08200000000000        8.38500000000000       11.70300000000000
C            5.80400000000000        8.09500000000000       10.31900000000000
C            5.66100000000000        9.02700000000000        9.31400000000000
H            5.85300000000000       10.06600000000000        9.58100000000000
C            4.28100000000000        6.76300000000000        5.22700000000000
H            4.03600000000000        7.09200000000000        4.21700000000000
C            4.35700000000000        2.47100000000000        7.50900000000000
H            4.19800000000000        1.43300000000000        7.21600000000000
C            5.85900000000000        4.69100000000000       11.57400000000000
H            6.25100000000000        4.32400000000000       12.52200000000000
C            4.55700000000000        9.80000000000000        4.46900000000000
H            4.90800000000000       10.85400000000000        4.48900000000000
H            3.47000000000000        9.78700000000000        4.23900000000000
H            5.11800000000000        9.24800000000000        3.68500000000000
C            5.47800000000000       11.26800000000000        7.15000000000000
H            6.54800000000000       11.46400000000000        6.92400000000000
H            5.27100000000000       11.56400000000000        8.20100000000000
H            4.84800000000000       11.86500000000000        6.45600000000000
C            3.46900000000000        4.65000000000000        3.04300000000000
H            4.01900000000000        5.54600000000000        2.68300000000000
H            2.37800000000000        4.83400000000000        2.94600000000000
H            3.76300000000000        3.77500000000000        2.42500000000000
C            3.51000000000000        1.83000000000000        4.53200000000000
H            4.17900000000000        0.97100000000000        4.68800000000000
C            2.40600000000000        1.65900000000000        3.79900000000000
H            1.71600000000000        2.49800000000000        3.62400000000000
H            2.17300000000000        0.67700000000000        3.36100000000000
C            4.04800000000000        0.33700000000000        9.82000000000000
H            4.89000000000000       -0.37100000000000        9.97300000000000
H            3.61700000000000        0.17100000000000        8.81000000000000
H            3.27600000000000        0.15200000000000       10.59700000000000
C            5.04500000000000        1.83800000000000       12.48200000000000
H            5.23100000000000        2.51400000000000       13.33000000000000
C            4.88100000000000        0.54200000000000       12.74000000000000
H            4.69300000000000       -0.17000000000000       11.92300000000000
H            4.93200000000000        0.16800000000000       13.77300000000000
C            6.41200000000000        6.76500000000000       13.89400000000000
H            7.32600000000000        6.14300000000000       14.00100000000000
H            5.55200000000000        6.22200000000000       14.34100000000000
H            6.56800000000000        7.72900000000000       14.42300000000000
C            6.25100000000000        9.76900000000000       12.35700000000000
H            7.32400000000000       10.05800000000000       12.34100000000000
H            5.90400000000000        9.73100000000000       13.41200000000000
H            5.66500000000000       10.52500000000000       11.79200000000000
O            3.21900000000000        5.94300000000000        9.05500000000000
H            2.98200000000000        5.09100000000000        9.42000000000000
H            2.70100000000000        6.66500000000000        9.02500000000000
C           10.49100000000000        4.17000000000000        7.40900000000000
H           11.23400000000000        4.75800000000000        7.98900000000000
H           10.84300000000000        4.08100000000000        6.35900000000000
H           10.39600000000000        3.16100000000000        7.86500000000000
N            9.00200000000000        6.14300000000000        6.94700000000000
H            9.72500000000000        6.68600000000000        6.51900000000000
C            9.16800000000000        4.86600000000000        7.44100000000000
C            7.74600000000000        6.52000000000000        7.13200000000000
H            7.33800000000000        7.48000000000000        6.81900000000000
N            7.10100000000000        5.54500000000000        7.74700000000000
C            7.96700000000000        4.49800000000000        7.95200000000000
H            7.64600000000000        3.58800000000000        8.44300000000000
78
 energy: -116.014440496343 gnorm: 0.111999630187 xtb: 6.7.1 (edcfbbe)
Fe           5.11673474909626        5.74458418889693        8.37917250890447
N            4.96646535998059        7.55354800115786        7.46314766437923
N            4.42752059326759        4.78744023510036        6.68776257947111
N            5.12734890099092        3.91394321293604        9.35835938551363
N            5.68355091122218        6.70862665102086       10.16018980206991
C            5.29480795651252        8.76960365613582        8.00568131443301
C            5.18380285728916        9.78059349741548        6.97066925726615
C            4.80069311646432        9.15552076756502        5.83292759690421
C            4.65690640542705        7.74599621297775        6.14058832969463
C            4.18624016649526        5.39717942054627        5.48664131272223
C            3.81634840770251        4.38749614761783        4.50942183625631
C            3.84196620922320        3.18627767758505        5.14117348145363
C            4.23556083831687        3.44061633964319        6.51932729256440
C            4.67651037943772        2.72071816242432        8.85009233770498
C            4.57276978564663        1.76556033886209        9.93582534304552
C            5.00014174635244        2.38864965466652       11.07161275191012
C            5.36985897572877        3.74284267347732       10.69686235414588
C            5.90871538237630        6.08560057298071       11.36129295693050
C            6.15503776158483        7.07376617184819       12.38294686843473
C            6.08361862886119        8.34597440156709       11.72853764905582
C            5.80149577938965        8.06390820761584       10.34065120192285
C            5.65924576331483        9.00709993810194        9.32288400680894
H            5.85257482731875       10.04399760432810        9.58617564735352
C            4.28316326982051        6.75914677815199        5.23916212543112
H            4.04186450339855        7.08950959924767        4.23254327311544
C            4.36190274056319        2.48323743484894        7.51493413844441
H            4.18760498074115        1.45097468584113        7.22243012739167
C            5.85888234979017        4.70806204186565       11.56730930726697
H            6.22077958628172        4.34332067575020       12.52502727541215
C            4.55913700312094        9.79241244676375        4.48070142239912
H            4.90186929264763       10.83250684875703        4.48696402191292
H            3.48929546448546        9.78204906539063        4.24026139629236
H            5.10484136905078        9.25433001751953        3.69779007317649
C            5.47688025423432       11.25496547952661        7.15079621743897
H            6.53176732316434       11.46136461746445        6.92971802404368
H            5.27240545201704       11.56265160720542        8.18064458691186
H            4.85896572078421       11.85438397841092        6.47365836224265
C            3.47516721868050        4.65201846346680        3.05783468196100
H            4.01121056680577        5.53275366226783        2.68859823917265
H            2.39906448715701        4.83244817084143        2.94725989733996
H            3.75249684893624        3.78960541386894        2.44138550048661
C            3.50452185870550        1.85258395840562        4.54228446957031
H            4.17664371054505        1.00972695411491        4.70690516854008
C            2.41447896220942        1.66763920052213        3.80524498809762
H            1.71979704815957        2.47992153695924        3.62572165735111
H            2.17864903479492        0.69949569447837        3.37022831091603
C            4.05003023357569        0.35110853293207        9.80623985893449
H            4.87343475070694       -0.36044449677227        9.95255397404996
H            3.61797707114222        0.17683946012036        8.81803048636592
H            3.28142877168706        0.16063517320998       10.56583799060340
C            5.04638257140971        1.83752899197440       12.45899358764976
H            5.22795992652946        2.52404419428173       13.28592760418065
C            4.88443946992289        0.54850354729332       12.74390522396894
H            4.71140826102835       -0.17736832000486       11.96721693701916
H            4.93258736535134        0.18049317333438       13.76322754566866
C            6.40908899973390        6.78322971580003       13.85369606949221
H            7.30626537376361        6.16118253315636       13.98609736974890
H            5.56961734675698        6.24154935245434       14.31489955417846
H            6.56346432578364        7.71414034622117       14.40896445961424
C            6.24997744702286        9.72544313198336       12.34838520528647
H            7.30356002131520       10.04148389914041       12.33913733141012
H            5.91049269185782        9.72588889491645       13.39062034379774
H            5.67617558066349       10.48849291766792       11.80418429478044
O            3.22000602884231        5.92266603250678        9.05121999944136
H            2.95144360263751        5.08708202810020        9.43451235709120
H            2.66766996899775        6.68394254728077        9.03268009279469
C           10.49346836286815        4.17197872058385        7.40841982674355
H           11.23362902158819        4.74490424877692        7.97955655459129
H           10.84630517441930        4.07535693569026        6.37491269848295
H           10.39893929178171        3.17769785865712        7.85359113659373
N            9.01851734358907        6.13599917100234        6.94216659488138
H            9.74193480507978        6.68372222519743        6.51143173762125
C            9.17937455827838        4.86788409808842        7.44353032249507
C            7.74725458365094        6.50924164808681        7.13782953046909
H            7.34266729182677        7.45881140331109        6.82932676501119
N            7.09089699655389        5.54733876044905        7.74504583482318
C            7.96350359237611        4.51378064565211        7.94688074362268
H            7.64479462116532        3.60919056276798        8.43263122472687
78
 energy: -116.033957569343 gnorm: 0.041937830413 xtb: 6.7.1 (edcfbbe)
Fe           5.14167751140749        5.73432994916062        8.37844238312674
N            4.98255830986381        7.53521755319332        7.46730899153901
N            4.45607685702325        4.79055559697596        6.68993265270630
N            5.11138736443742        3.93222421440103        9.36452557295756
N            5.68588891825147        6.69531417055439       10.13849552767705
C            5.29571643555837        8.75128187469612        8.00425085922353
C            5.18601442362295        9.78104491287371        6.98157110502576
C            4.79731175179075        9.15293493437019        5.83367209084292
C            4.66553976676640        7.74315497809488        6.15768000047007
C            4.19759745496944        5.38905459889837        5.49679160840623
C            3.81085548654354        4.39376028234927        4.51092882050244
C            3.84644465986607        3.17934326461808        5.14567946591717
C            4.25722002490512        3.45440008043849        6.51933419510820
C            4.67575571315078        2.73807616932064        8.86479740069231
C            4.58431358042062        1.76002681148002        9.92896336684382
C            5.01960598440596        2.38259880560374       11.08077410707721
C            5.36159370688029        3.74816213716748       10.69139741396404
C            5.91197767880257        6.10287054858841       11.34083050298280
C            6.16505645423371        7.10766209390080       12.35683140767063
C            6.09055130012236        8.30653065018182       11.74070527322393
C            5.80201922728636        8.03466435625538       10.34400770944356
C            5.65820749382959        8.98501330217101        9.32766151513955
H            5.84893372272128       10.01845861146605        9.59220304698595
C            4.29034744211636        6.75600177072941        5.25267574455111
H            4.04749039816447        7.08857213020742        4.25110197946325
C            4.36235008645266        2.50123728988791        7.52378485852265
H            4.17024042424822        1.47477746902021        7.23378358742802
C            5.84433039538816        4.72293970655234       11.56264290707483
H            6.17036604769028        4.36753403353713       12.53403251538038
C            4.55971832896846        9.77832768758363        4.49715856740633
H            4.89752026003024       10.81160990475391        4.49392859229837
H            3.49939926257639        9.76876905451457        4.24580991769283
H            5.09654321703672        9.24783746853591        3.71313285279044
C            5.47430323363292       11.23657486727733        7.15698034099606
H            6.52114218810506       11.45213575516605        6.93743867127266
H            5.27192306664105       11.55662996189895        8.17448617653161
H            4.86349259254761       11.83671093775997        6.48645141477097
C            3.47907281200826        4.65550248545248        3.07881269893624
H            4.01175302434261        5.52463742485524        2.70186883279569
H            2.41139206975137        4.83816344840517        2.95516200510921
H            3.74272903961911        3.79582276727891        2.46504301526865
C            3.50549254898766        1.88462305778779        4.56362760191521
H            4.17875222069349        1.05347431497043        4.74744782478885
C            2.42699581832525        1.68137774389891        3.81547403214479
H            1.72069555022487        2.47021229517709        3.62694427554536
H            2.19472969736314        0.72099740221360        3.38275585690415
C            4.05713706822234        0.37043169741692        9.78762219982576
H            4.86179569543271       -0.35365526252331        9.92858823130699
H            3.62019456386112        0.19893405254800        8.81041478915093
H            3.28981199589328        0.17682920914858       10.53799851460428
C            5.06051579221169        1.84295573265653       12.42387971669113
H            5.22950426425727        2.54640620831117       13.23149697333039
C            4.89734466707794        0.55914240116392       12.74624835532978
H            4.73385314740879       -0.19521312298104       12.00706581660763
H            4.93088058058050        0.21124930780382       13.76463901148698
C            6.40917625119842        6.80327692498539       13.80938451611073
H            7.29541380335463        6.17870437278298       13.94565084877476
H            5.57275764875127        6.26319421519080       14.26147377398316
H            6.56013047151952        7.71650487254199       14.38055484114000
C            6.24874411770088        9.67839392434820       12.33871476781676
H            7.29277304550476       10.00304140183529       12.32737469414372
H            5.91359997577694        9.69771961889261       13.37469876052782
H            5.67596379317800       10.43266044144559       11.79736569638594
O            3.19025773620641        5.90649620454212        9.03419608080818
H            2.88611875873774        5.10152012735001        9.46303616257743
H            2.63043182684288        6.68485565730592        9.05373674867617
C           10.49209540386182        4.17083001176922        7.40980543357944
H           11.23481194375595        4.73357751872602        7.97336809848310
H           10.84578310111167        4.07008215345117        6.38519406383726
H           10.39786242686679        3.18421842045848        7.84756103698494
N            9.02857515827757        6.13135068658691        6.93937616618076
H            9.75176967647900        6.68091768361424        6.50510766098244
C            9.18307674995482        4.86975900690907        7.44787423672660
C            7.74681625510895        6.50353534882281        7.14238743647246
H            7.34801968412693        7.44690260589464        6.83599518490200
N            7.07803073369871        5.55592753730099        7.75140460793054
C            7.95557120862247        4.52910094224417        7.94497279716820
H            7.64209890264411        3.62620122523269        8.42648349035925
78
 energy: -116.041268532617 gnorm: 0.028660486944 xtb: 6.7.1 (edcfbbe)
Fe           5.14012558800907        5.73189053153109        8.38230277699124
N            4.99137003393627        7.52436080495775        7.47029505784300
N            4.48387074856396        4.79928990553603        6.69322042024581
N            5.10553252264976        3.94438907431677        9.36488338634921
N            5.68201859012717        6.68239869567824       10.12476894718688
C            5.29936781494722        8.73920869833353        8.00337484586744
C            5.18533928637312        9.77260819196871        6.98948438283441
C            4.79694778852018        9.14538310418438        5.84121059653373
C            4.67454836774463        7.73797732963057        6.16497282701750
C            4.21506589709361        5.39413499092807        5.50351659133932
C            3.81243311113702        4.40663608014663        4.52266458131608
C            3.84891639448737        3.19315557134112        5.15912146786344
C            4.27584940172520        3.46855409095832        6.52434740352658
C            4.67888482581285        2.75093354647088        8.86270239060185
C            4.59679605000427        1.76265020887523        9.91108096699075
C            5.03284669887497        2.37824793268080       11.06793879802393
C            5.35787720286167        3.74880983218473       10.68554545452430
C            5.91061698246197        6.09007332960380       11.32434723417005
C            6.17522031072420        7.09322589633950       12.34035582123783
C            6.09135895006139        8.29849298085473       11.72171964431434
C            5.80219234989677        8.02024973104512       10.32595060336503
C            5.66044816691468        8.97303359512642        9.32308539741598
H            5.84623118364041       10.00327341802007        9.59505763590808
C            4.30211031905415        6.75771372762842        5.25750707630790
H            4.05184303002300        7.09211040895787        4.26040065169938
C            4.36470140306282        2.51568877422589        7.52572746078611
H            4.14675414928387        1.49447423954375        7.23985215197270
C            5.82856025366692        4.72094418083309       11.56130422707619
H            6.11115608907557        4.38010545886004       12.55238540264027
C            4.55734477959076        9.76293614622837        4.50595359791038
H            4.89321763864271       10.79655654713665        4.49954421499940
H            3.49748129748626        9.74832841084451        4.25265655950803
H            5.09465190705090        9.22944212902193        3.72427375892685
C            5.47216370398941       11.22472089907841        7.16793423862324
H            6.51914845251537       11.44148292154582        6.94950556239114
H            5.26810714477343       11.54827652099361        8.18412685501486
H            4.86135578588972       11.82274378143336        6.49577226393361
C            3.47897225827469        4.66490158897147        3.09477526746104
H            4.02123318443526        5.52560287271931        2.71184220433783
H            2.41326198706609        4.85746654988610        2.96939215455907
H            3.73074279518628        3.79606615749021        2.48854717130335
C            3.50690745272108        1.90340587639720        4.59115579227347
H            4.17932821516372        1.07822212376030        4.80108413387954
C            2.43971787696268        1.69042182697755        3.82854703974836
H            1.72714922499642        2.47090279092457        3.62579029997611
H            2.21851830383665        0.72852954193290        3.39763104918061
C            4.05877184523986        0.38333202325311        9.75385032716323
H            4.85294747915978       -0.35416509294459        9.88433141042977
H            3.61689701239700        0.23036379466498        8.77537249524407
H            3.28832096825871        0.19315254544210       10.50171439650982
C            5.07230519512727        1.85039644177443       12.40668778730715
H            5.23716769155449        2.57699504848518       13.19446248615859
C            4.91565930857775        0.57359209142074       12.76842423554767
H            4.78147795277777       -0.22132652347602       12.05938346347172
H            4.94144768912558        0.26295185955966       13.79918324988429
C            6.41629367817162        6.80113194404890       13.78469172563304
H            7.30185349652447        6.17906197356942       13.91326915452530
H            5.57051640241354        6.26725214417092       14.22010042485963
H            6.56281346589568        7.71867674959914       14.34815937559612
C            6.24878281466549        9.65787467544232       12.32325181428779
H            7.29338448711066        9.97335014592110       12.30677015304744
H            5.91624626525707        9.66580538659462       13.35905193796266
H            5.66756604821488       10.39976011279497       11.78019527085118
O            3.13720579232260        5.88929176282887        8.99702187080264
H            2.82685579906427        5.12344157128512        9.50534007299064
H            2.59757376033168        6.68671267133987        9.08354370859632
C           10.48781892186518        4.16468796472692        7.41137294900078
H           11.23736237158682        4.72209672165747        7.97172076914352
H           10.84053309602652        4.06101417622746        6.38666482891595
H           10.39062684047973        3.17819708106481        7.84817867511900
N            9.03256118033808        6.12987813900626        6.93912149684364
H            9.75604775264495        6.67547194783394        6.49938885761671
C            9.18174680074180        4.86991775717608        7.45255560882304
C            7.75117080551561        6.50720398861817        7.14654218222548
H            7.35679287465933        7.45084650393771        6.83906014833421
N            7.07616506421134        5.56638843391950        7.76041980572908
C            7.95218480866155        4.53815333071496        7.95180697424774
H            7.63861681176313        3.63547161323794        8.43170597715566
78
 energy: -116.045567728084 gnorm: 0.048948957903 xtb: 6.7.1 (edcfbbe)
Fe           5.13560737616789        5.73098221894210        8.38076207191334
N            4.99921115384557        7.51417181315730        7.47328139299074
N            4.52074033259580        4.81316004591213        6.69697410254227
N            5.10224398613424        3.96023398694006        9.36158930902864
N            5.66365356871878        6.66421464693379       10.10231242933814
C            5.30118786125635        8.72884147090755        8.00286365332833
C            5.18403200198027        9.76321127710629        6.99763588000053
C            4.79803602063011        9.13752801632114        5.84995753047075
C            4.68388135491879        7.73334176387944        6.17034321219503
C            4.23773947411552        5.40436017553059        5.50958791749312
C            3.81603746566239        4.42402168670653        4.53805716084874
C            3.85227957539533        3.21343134819681        5.17640285948039
C            4.29673013432353        3.48733132275014        6.53112178964922
C            4.68385437069179        2.76606990065326        8.85597200975358
C            4.61438626445133        1.76845016454547        9.88905096135748
C            5.04704136858131        2.37713252489356       11.04849019533686
C            5.35342302213543        3.75168049467963       10.67795226428700
C            5.89980017512595        6.07369552620131       11.30123207739470
C            6.17796453404508        7.07381005560317       12.31404586409608
C            6.09646028330830        8.28311303764928       11.69099510607365
C            5.79687497714688        8.00159343881487       10.30029003515916
C            5.65998121455713        8.96292018664578        9.31835296075485
H            5.84515851323223        9.98841032377704        9.60150612825166
C            4.31612850581802        6.76295571030260        5.25801654491502
H            4.05719986748139        7.09870667917187        4.26522684269407
C            4.36518061887089        2.53244847503320        7.52588498117098
H            4.11962131529412        1.51847994524627        7.24252039503049
C            5.80148011653284        4.71982463352377       11.56240273247152
H            6.04517254139701        4.40032898128161       12.56857105849070
C            4.55400640123894        9.74494959703864        4.51226063972786
H            4.88540532401862       10.78063600770841        4.49986306710865
H            3.49308458877591        9.72106264726026        4.25999932670767
H            5.09429162353916        9.20555346354707        3.73518766233959
C            5.46889167219440       11.21426414889922        7.18261123601185
H            6.51798116770901       11.43047042049176        6.96936198168318
H            5.25977729104165       11.53641563169371        8.19934400071473
H            4.85922052356638       11.81102152788809        6.50684821781568
C            3.47760365218527        4.67894657319609        3.11196404807816
H            4.03638940098981        5.52676415788749        2.72030810765705
H            2.41424312859317        4.89084847843724        2.98983388457381
H            3.71039575130269        3.79709437363735        2.51442981836141
C            3.51004796359379        1.91970098260843        4.62534350682368
H            4.17611294151511        1.09847590058752        4.87296692513135
C            2.45899036196693        1.69739189576695        3.84270580607904
H            1.74843541951001        2.47405555465812        3.61230607927332
H            2.24633562719564        0.72784401249361        3.42520479670053
C            4.06999379836563        0.39379436208614        9.72822007096413
H            4.85403361966871       -0.35552868727342        9.84597829196942
H            3.61615073368321        0.25961348294827        8.74949338762691
H            3.30715313998467        0.20504885978582       10.48449945673628
C            5.09062266988531        1.85767054617611       12.38789085761552
H            5.23776978621208        2.60211443611361       13.16254343022784
C            4.94630853427041        0.58932445688274       12.77461833823209
H            4.80411180418136       -0.22781640047303       12.09112613083014
H            4.95671000598843        0.31652375408869       13.81884816568486
C            6.42304021414650        6.79247522567522       13.75381842167995
H            7.30852405894877        6.17280264272867       13.88166191253175
H            5.57322119659085        6.26455489319394       14.18532487713613
H            6.56936102626564        7.71527403568733       14.30921530357614
C            6.25294375639183        9.63363763678566       12.29858630599299
H            7.29677622065059        9.94878482981835       12.27850817770764
H            5.92484668288799        9.62957114119656       13.33637303243939
H            5.66248819114427       10.37009969075525       11.76132015667104
O            3.05223381955721        5.85901708159586        8.92393095617933
H            2.76105474144369        5.16185601978776        9.56475057081183
H            2.56089867355219        6.68857875063257        9.15271274452477
C           10.48116020010235        4.15317107071272        7.41404184449198