72
 energy: -105.980505060948 gnorm: 0.000155169106 xtb: 6.7.1 (edcfbbe)
Fe          10.15132407491217       18.72921626314982        4.50517952403472
N            8.15452011746579       18.67338024165572        4.54878436975846
N           10.21830064391650       16.98450801839274        5.51137132988073
N           12.15854057237645       18.80105078218998        4.50886916043654
N           10.08630188866452       20.50217121754047        3.59997142760723
C            7.30104125514193       19.62617191587934        4.09247915072452
C            5.92693106698396       19.22048646968419        4.29052030288346
C            5.97154611925716       17.99700862602763        4.88134994162616
C            7.37283691824900       17.67716609807791        5.04573879966030
C            9.15776911167799       16.21382320024485        5.88326184069834
C            9.60236844074419       15.02585135000905        6.56271317627967
C           10.97087034202042       15.08852224629891        6.59321844926773
C           11.33108133814092       16.32159682685012        5.92445433983158
C           13.01049356831640       17.86673920930545        5.01546840354595
C           14.38035539029926       18.23311847952650        4.76208221423740
C           14.34092704223725       19.41896316647545        4.07835762286074
C           12.93779559129335       19.74719335242539        3.92635543555079
C           11.14450168973133       21.24879800425857        3.19145360669287
C           10.69593262579773       22.48512171013705        2.58725887182635
C            9.33845253503880       22.46793798721990        2.64870369690603
C            8.97736545126201       21.21905889659087        3.28374167264229
C            7.67384015281978       20.82147330344424        3.50756301456637
H            6.88719628013946       21.49364615725096        3.20218432854546
C            7.82849270012969       16.52366625637168        5.65199121978671
H            7.08762699385938       15.81584699208286        5.98932636446897
C           12.63243719516830       16.72247275192528        5.69422278996213
H           13.41945553023371       16.07884830272275        6.05436516483235
C           12.47435584096252       20.89993426424675        3.32188001138196
H           13.20775695006698       21.58862439892011        2.93257626347539
C            4.85197597665286       17.11346856539840        5.31173216431303
H            3.89207351514057       17.55289856443634        5.05254682174148
H            4.87823819089098       16.96060080208373        6.39092847884385
H            4.92447353169459       16.13807326012772        4.83005450279345
C            4.74587589410651       20.03900173075276        3.89787922384208
H            4.75382209943395       20.23756216498892        2.82568433978389
H            4.75580708090368       20.99630901509462        4.41894320532456
H            3.82017482808309       19.52497933095230        4.14409261915552
C            8.70935302316250       13.99884686622906        7.16527004669517
H            8.37128638420945       13.28666063395747        6.41082021428220
H            7.82974675207066       14.46369302391797        7.60808028828170
H            9.24138798800939       13.45093959475919        7.94022890914818
C           11.91682291479557       14.16415619745765        7.17915405774847
H           12.81038066480265       14.61203174231513        7.59858365633334
C           11.77229957447696       12.84435105244702        7.22961883905642
H           10.93000774298569       12.34275982002582        6.78620401309691
H           12.51252142397362       12.21458272125940        7.69432287307729
C           15.56720146235945       17.41145183414979        5.12410022727986
H           15.36090701972598       16.35255995359281        4.97649852894479
H           15.84134711257736       17.56067086154930        6.16996473799836
H           16.41600357989130       17.69069708780166        4.50357136814456
C           15.43208106428402       20.21595911653549        3.56163766029786
H           15.23198946025185       20.73454201220513        2.63137817391238
C           16.62169879411682       20.35653280039227        4.13645774641773
H           16.85849835982983       19.90240440792942        5.08288778408547
H           17.39606307135778       20.95658259441449        3.68834144175140
C           11.60502087744731       23.52667098704704        2.03258164528857
H           12.21684278790241       23.11404318879929        1.22996090628870
H           12.27302462832722       23.90326550489373        2.80730597972569
H           11.03654779762097       24.36317796721482        1.63397057407246
C            8.35682009829645       23.48560147768823        2.17976513371642
H            7.69557170548022       23.06211740496708        1.42314273371544
H            8.86610704256067       24.34327442859853        1.74765683613266
H            7.74227101937863       23.83357905619944        3.00994388135346
O           10.22127858527846       19.71992005943501        6.51916955572326
H           11.15897821501115       19.93189018522960        6.59233289739045
H           10.05551989120184       18.96332254655065        7.09346890881930
C            9.18089930472602       18.41415136680411        1.26045337744108
H            8.27780060114643       18.78709042984522        1.73149784426379
H            8.95185490183674       17.74521878032004        0.43660115859691
H            9.78344436207057       19.24611050845710        0.91128768449405
S           10.19149763541042       17.52104837027160        2.49330519016033
H            9.24606560964826       16.62380549400719        2.79613127649376
