72
 energy: -105.868747755318 gnorm: 0.267826730262 xtb: 6.7.1 (edcfbbe)
Fe          10.14400000000000       18.59300000000000        4.19400000000000
N            8.09500000000000       18.66200000000000        4.54400000000000
N           10.17500000000000       16.90200000000000        5.46900000000000
N           12.23300000000000       18.78200000000000        4.47500000000000
N           10.15800000000000       20.60000000000000        3.52300000000000
C            7.28600000000000       19.58800000000000        3.95900000000000
C            5.92400000000000       19.15800000000000        4.17000000000000
C            5.93600000000000       18.01000000000000        4.90200000000000
C            7.31900000000000       17.70100000000000        5.16400000000000
C            9.10100000000000       16.17700000000000        5.91700000000000
C            9.62800000000000       14.96900000000000        6.55500000000000
C           10.98300000000000       15.04500000000000        6.43200000000000
C           11.33100000000000       16.24400000000000        5.73400000000000
C           13.04600000000000       17.82600000000000        4.94800000000000
C           14.42600000000000       18.27300000000000        4.82400000000000
C           14.39200000000000       19.50500000000000        4.28900000000000
C           13.01700000000000       19.84200000000000        4.06200000000000
C           11.27000000000000       21.38500000000000        3.28000000000000
C           10.83900000000000       22.64200000000000        2.73100000000000
C            9.32400000000000       22.52400000000000        2.64700000000000
C            8.98100000000000       21.22300000000000        3.16700000000000
C            7.70300000000000       20.70100000000000        3.27300000000000
H            6.92500000000000       21.24700000000000        2.74100000000000
C            7.79800000000000       16.59100000000000        5.86000000000000
H            7.06600000000000       15.99800000000000        6.40900000000000
C           12.58900000000000       16.62500000000000        5.43100000000000
H           13.35500000000000       15.86800000000000        5.59400000000000
C           12.57400000000000       21.03000000000000        3.52200000000000
H           13.33700000000000       21.76300000000000        3.26000000000000
C            4.78200000000000       17.16100000000000        5.45000000000000
H            3.82300000000000       17.51400000000000        5.01500000000000
H            4.73400000000000       17.26100000000000        6.55500000000000
H            4.93400000000000       16.09600000000000        5.17100000000000
C            4.70800000000000       19.90900000000000        3.58200000000000
H            4.68600000000000       19.77300000000000        2.48000000000000
H            4.79000000000000       20.99300000000000        3.81000000000000
H            3.77000000000000       19.50000000000000        4.01400000000000
C            8.75000000000000       13.89800000000000        7.23600000000000
H            8.31300000000000       13.23000000000000        6.46300000000000
H            7.92500000000000       14.38900000000000        7.79500000000000
H            9.37000000000000       13.29000000000000        7.92900000000000
C           12.08600000000000       14.10000000000000        6.87900000000000
H           13.06600000000000       14.46600000000000        7.21700000000000
C           11.83400000000000       12.78600000000000        6.85200000000000
H           10.85600000000000       12.41200000000000        6.51500000000000
H           12.60200000000000       12.06400000000000        7.16600000000000
C           15.70200000000000       17.46600000000000        5.18700000000000
H           15.42600000000000       16.41000000000000        5.39500000000000
H           16.17500000000000       17.90000000000000        6.09400000000000
H           16.41700000000000       17.49100000000000        4.33700000000000
C           15.51300000000000       20.48500000000000        3.89200000000000
H           15.29600000000000       21.30000000000000        3.18600000000000
C           16.76100000000000       20.39500000000000        4.37000000000000
H           17.03100000000000       19.59800000000000        5.07900000000000
H           17.53100000000000       21.11700000000000        4.06000000000000
C           11.71700000000000       23.83300000000000        2.33100000000000
H           12.43500000000000       23.51700000000000        1.54400000000000
H           12.28700000000000       24.19300000000000        3.21400000000000
H           11.08000000000000       24.65100000000000        1.93100000000000
C            8.39200000000000       23.64699999999999        2.16600000000000
H            8.39200000000000       23.67800000000000        1.05500000000000
H            8.75100000000000       24.62400000000000        2.55400000000000
H            7.35700000000000       23.45400000000000        2.52100000000000
O           10.37500000000000       19.75800000000000        6.70500000000000
H           11.30600000000000       19.72600000000000        6.92600000000000
H            9.72600000000000       20.09600000000000        7.21000000000000
C            8.63200000000000       17.89600000000000        1.21300000000000
H            7.73600000000000       17.99200000000000        1.86300000000000
H            8.38700000000000       17.18800000000000        0.39300000000000
H            8.84900000000000       18.89500000000000        0.77800000000000
S           10.06200000000000       17.29800000000000        2.14800000000000
H            9.42200000000000       16.27500000000000        2.69600000000000
72
 energy: -105.937732703873 gnorm: 0.116646764959 xtb: 6.7.1 (edcfbbe)
Fe          10.15840308848033       18.66116595768733        4.34523555511182
N            8.11064821126392       18.64854592734636        4.53360956663744
N           10.17368789357110       16.90189399276986        5.43756064642054
N           12.23563724313424       18.79503067421370        4.45504329585193
N           10.15433543365834       20.57545917587366        3.51826900959302
C            7.29236298209493       19.56988203447742        3.94742651794512
C            5.91374707861487       19.16155788379931        4.16205551876971
C            5.93359224539604       18.01978381187877        4.91083968512685
C            7.32754352469991       17.70612898872363        5.14995568231993
C            9.12115178344924       16.18418136833360        5.92857041387955
C            9.63177788527702       14.96923113259222        6.56567738617239
C           10.99273958272781       15.02745822809442        6.44125193951701
C           11.32164896332898       16.24035716429360        5.72979307467160
C           13.05989782631423       17.83328225415105        4.92196593272369
C           14.44557614586250       18.27217855538757        4.81261310109966
C           14.40950044512877       19.52516965485432        4.27393088472876
C           13.01515558588914       19.84640814079908        4.05034110602252
C           11.23233215612417       21.38551754843958        3.27281177056080
C           10.78749519726362       22.64123367925032        2.72763443595353
C            9.36207024019579       22.53836635318964        2.64606232429834
C            9.00976392260849       21.23040797366640        3.15314687451734
C            7.71543991553112       20.70529142302936        3.26732270311028
H            6.93206683552691       21.26230097811271        2.76105115338560
C            7.80256757231560       16.59614217240895        5.85201563560263
H            7.06798208692472       15.99852478569306        6.38464709998317
C           12.60643061308375       16.62350977808970        5.42563023862626
H           13.36735383488668       15.87520664138386        5.61415327598939
C           12.55535842286913       21.03494889142606        3.51607022710449
H           13.31395251925805       21.76642720247019        3.25858035329222
C            4.79274444468431       17.17793452607746        5.43999177574489
H            3.83701867532893       17.51019473538086        5.02133452772991
H            4.73770871663518       17.25953248852606        6.53299679254754
H            4.93451123070092       16.12175871322362        5.17655428111726
C            4.71926740753893       19.89946848697969        3.58956217733029
H            4.68728412177377       19.77456221990110        2.49941427991956
H            4.78844244575161       20.97090579906206        3.80983500692765
H            3.78653210809940       19.50976192042571        4.00929179608579
C            8.76435883797873       13.91567862287168        7.22727927713935
H            8.32314786043280       13.24776215537894        6.47424259986324
H            7.94432711401309       14.38415450196232        7.78413107941833
H            9.35967582171417       13.30808370757929        7.91800376299238
C           12.05168845121154       14.08781206520947        6.88475096830936
H           13.02216889075175       14.47128297657171        7.20394618956022
C           11.83114735651592       12.77900048113264        6.85737366274439
H           10.87834744861149       12.39652965113620        6.51517863302753
H           12.59145304595601       12.06701701036704        7.16068894103498
C           15.68051547889407       17.46864799434629        5.18445483184517
H           15.42579048987080       16.42428495153841        5.39116243290741
H           16.15993713196099       17.88804298582741        6.07826097305873
H           16.39799038802100       17.49340145954064        4.35498285734314
C           15.51094445408480       20.46310888510347        3.90442384225347
H           15.28056370381348       21.26649503708310        3.20428599793334
C           16.75422555068252       20.38780279756921        4.37050675366570
H           17.04036316050193       19.61787219605450        5.07339838644792
H           17.51536356618717       21.10124739506899        4.06618798165300
C           11.68277252266677       23.80515616737491        2.33811852262178
H           12.40822560942365       23.51326580536123        1.56339663634214
H           12.26193412142757       24.17583966566308        3.19741656498681
H           11.08698958992294       24.63404479538651        1.94079846626675
C            8.41805661928328       23.62690958048421        2.17308966610934
H            8.39318992334755       23.67538085548331        1.07513656135776
H            8.74543636130240       24.60389813605240        2.54775960143270
H            7.39054725411158       23.45235185452447        2.51896095163735
O           10.38333306178224       19.73389428077616        6.65164236619594
H           11.30081020891901       19.72272195109887        6.91674092819191
H            9.71554638114463       20.09618699696986        7.20676524302949
C            8.61871409410841       17.89781249144913        1.21072736651064
H            7.74414039391780       17.99474522180883        1.86090501112132
H            8.39676945982964       17.19419354415187        0.39973212703048
H            8.85337745956701       18.87969153106959        0.78780766455911
S           10.05235874857624       17.32962715291151        2.17451469213180
H            9.42406105347478       16.27534383308064        2.69398241285847
72
 energy: -105.961588227969 gnorm: 0.042315434314 xtb: 6.7.1 (edcfbbe)
Fe          10.16818191107086       18.71568226470056        4.46568271255484
N            8.13670847098648       18.65067726923014        4.53895473522414
N           10.18252086902348       16.92651979252832        5.42860228673622
N           12.22415176420599       18.81128693183342        4.45078346405090
N           10.14804291220641       20.55451652299093        3.54110687609549
C            7.31024619976493       19.55773394404356        3.94048133765755
C            5.92114244279026       19.16346070543563        4.15187572744923
C            5.94650384148272       18.02840937800243        4.91355339509584
C            7.34756878225104       17.71724448965400        5.14136830675632
C            9.14305150124252       16.20360221065638        5.93275799835439
C            9.63468214299091       14.98620705304340        6.56664334613396
C           11.00121044546698       15.02316480652782        6.43733234371959
C           11.31952598531763       16.24948329037333        5.72503239465402
C           13.06106963002362       17.84014776016481        4.90087649269808
C           14.44649856744406       18.26988700280006        4.79660447772557
C           14.41230084669745       19.53811003351520        4.25914651562554
C           13.00367436852631       19.84733786381567        4.04178052550461
C           11.20168136690600       21.37541885453718        3.27777143559114
C           10.73980865033995       22.63137996790108        2.72788513995309
C            9.39437248527376       22.54133091069507        2.64949573005607
C            9.02910973990704       21.22644762134950        3.15417651171950
C            7.72909564657563       20.70803831814225        3.26901754447875
H            6.94061298973786       21.28115087481398        2.79371718441696
C            7.81307430615786       16.60356798053827        5.83794531080647
H            7.07521344049340       15.99501562279839        6.34692213513474
C           12.62073668644305       16.62723392607387        5.42176487843751
H           13.38008144515162       15.89062316755318        5.64145781250443
C           12.53452567947362       21.03698574793444        3.51152813642251
H           13.28431653888900       21.77195898269141        3.25356065759964
C            4.81174609628292       17.19853199751061        5.43061183407133
H            3.85874871859338       17.52106702840597        5.01977562667467
H            4.74869069686986       17.26581308535014        6.51777503618987
H            4.94669006224174       16.14764024202664        5.17425686393691
C            4.73905535542440       19.89022807807065        3.59739071104069
H            4.69516685309358       19.77547279662232        2.51314957221772
H            4.79586729018076       20.95508415218978        3.81571431263639
H            3.80977260094708       19.50956461957438        4.01226795676906
C            8.77986626559565       13.94465911908203        7.21744465893301
H            8.33924420208414       13.27495978367387        6.47499298873168
H            7.96007850699052       14.39608347136968        7.77371323746835
H            9.36282312558054       13.33604162510420        7.90586319812305
C           12.01469637633681       14.08008101520148        6.87465126484130
H           12.97090536298407       14.48177714607826        7.19469191297173
C           11.82481965777296       12.76723629747688        6.85806461819806
H           10.89215561657460       12.36486200985663        6.51218957930484
H           12.58250418015492       12.06796883468051        7.16379831952901
C           15.65259202129938       17.47439041828871        5.17496789927972
H           15.40794583863785       16.43697004258055        5.38100961591314
H           16.13425525614705       17.88223983065681        6.06506130907159
H           16.38098755977588       17.49767608465204        4.36389667027744
C           15.49674096186341       20.43566477398711        3.91641261757220
H           15.25427817254979       21.23178013689363        3.22131043641677
C           16.74480367745221       20.37662170781769        4.37228323734602
H           17.05494863390717       19.63097843524578        5.07633436258103
H           17.49648464220092       21.08601030998724        4.06640233589428
C           11.64379047245586       23.77430690582737        2.34580128811780
H           12.36887221302956       23.48328022453337        1.58070563855432
H           12.22360122800846       24.14105413087302        3.19767596513897
H           11.07267321181307       24.61110932807680        1.95027831656101
C            8.44202668822019       23.60352057990461        2.18020605454463
H            8.41326226588301       23.65841852227574        1.08976721271106
H            8.75219326832369       24.58152255042318        2.54674533135501
H            7.42379767040802       23.43113215267540        2.52660473036549
O           10.37836784100461       19.70717922355277        6.57166100593623
H           11.28101255040874       19.71692463350713        6.90023275454328
H            9.72306203091390       20.07567162682960        7.17111543917308
C            8.60853190168237       17.90606899511075        1.21451560402294
H            7.74719402875526       18.00120204839279        1.86378726200555
H            8.41132006855656       17.19756311695772        0.41456908471512
H            8.85839715822218       18.87402081140704        0.79549671722527
S           10.05263452871823       17.35071502810404        2.18706842475100
H            9.43568548521502       16.28328378482139        2.70491358113206
72
 energy: -105.968193969731 gnorm: 0.021063738501 xtb: 6.7.1 (edcfbbe)
Fe          10.17583689311670       18.73235392794309        4.49448021954216
N            8.15851264174001       18.66514357683327        4.54808499401553
N           10.20079492080689       16.95235403817032        5.43653468607122
N           12.21458503509570       18.81497027202263        4.45493731925143
N           10.13817100563978       20.54852100899113        3.56865820075819
C            7.32503663270743       19.56039385279079        3.94615928133954
C            5.94017817307353       19.16449079997595        4.14933347718354
C            5.96887357718823       18.03420840726206        4.91155065287968
C            7.36874734387265       17.72987227329945        5.14139908884928
C            9.15905356022239       16.22801160665795        5.93240523720975
C            9.63712525538038       15.00796671435693        6.55407150103956
C           11.00191602856295       15.02602249671998        6.42127673863806
C           11.32952894676769       16.25960548830418        5.72630145796768
C           13.05644376263353       17.84157375032573        4.89636734261675
C           14.43446624030068       18.26572707963409        4.78347115399137
C           14.40223314464417       19.53497557271595        4.25095250241874
C           12.99368611259014       19.84533823258007        4.04173984430882
C           11.19268041079631       21.36187704724138        3.29614132575153
C           10.73530800548500       22.61456302039985        2.73510753204863
C            9.38094464994696       22.52833734338296        2.65387114378949
C            9.02205872485327       21.21821716947835        3.17246235383504
C            7.72840120736023       20.71402928860597        3.28312522701417
H            6.93734024646666       21.30373595380774        2.83390818302559
C            7.82819884725445       16.61463854852033        5.82830834229868
H            7.08501643697335       15.98220381951956        6.29960477400457
C           12.63141369275339       16.63182332796474        5.42750873314555
H           13.39626866495908       15.90847969363234        5.67428056786785
C           12.52301699922844       21.03522910605970        3.51643041989620
H           13.26162434629943       21.77605569433906        3.24738198540554
C            4.83327581440729       17.21237608937107        5.42482632005848
H            3.88443077709954       17.54305797899213        5.01107462625447
H            4.76961234815426       17.27858220144644        6.51165914559503
H            4.96690590527988       16.16303936420273        5.16470243470690
C            4.75768315540953       19.88801679234865        3.60130989488090
H            4.70898240172490       19.77870601501477        2.51665164739476
H            4.81133167355529       20.95144053641013        3.82729578408963
H            3.83321194053600       19.50091732305744        4.02109954622772
C            8.78505321762916       13.97558266044906        7.20899211549573
H            8.34820866537958       13.30530284413698        6.46579321702599
H            7.96757882726517       14.42993503616212        7.76538142339012
H            9.37521929745373       13.37348088720879        7.89661695082354
C           11.99110230475991       14.06767375059649        6.86599637985098
H           12.93823927700073       14.47860053754323        7.19411571030605
C           11.81388943548360       12.75118429335467        6.86037793398956
H           10.89730169419697       12.32363883369103        6.49402206519309
H           12.57758769198478       12.06451450156310        7.17963683766091
C           15.63178517083874       17.46915727432174        5.16548628644548
H           15.38005803753954       16.43168143275431        5.36300650135090
H           16.10079995942591       17.87475769322607        6.06311776413122
H           16.36865952125583       17.49970003734997        4.36241667744719
C           15.48761725437437       20.42279810829376        3.91749772516820
H           15.23754702234559       21.21588679108963        3.22371614626993
C           16.73854877242044       20.36986107142196        4.37001587505304
H           17.06372242413554       19.63867877914664        5.08535525028748
H           17.48230296891630       21.08189265212413        4.05570366787423
C           11.62670807637279       23.75150103172767        2.35123390725242
H           12.34171257186810       23.44481798749249        1.58697170669355
H           12.19626781868230       24.10797004084392        3.21080552955730
H           11.04883970636689       24.58324113663481        1.95742263929844
C            8.43965639411931       23.58682016893829        2.18036125139660
H            8.41647081575925       23.63172204633040        1.09082357777494
H            8.75727791937635       24.56224967683508        2.54593818519114
H            7.42879914231831       23.40773272585509        2.53553749978622
O           10.36991571757344       19.70836814247158        6.49861275555446
H           11.25794056354846       19.70250054524633        6.87432334170904
H            9.71503093728519       20.04464271648991        7.12043123921124
C            8.61035593290827       17.91483337848405        1.22570835180372
H            7.74919256527033       18.01158164695820        1.87526140941050
H            8.42420627110637       17.19816648487518        0.43072973519096
H            8.86418089442412       18.87987923850413        0.80335977426380
S           10.06153117597589       17.37031600309635        2.19807086802773
H            9.45579643175410       16.30147443240511        2.72568601474193
72
 energy: -105.971187841595 gnorm: 0.025792531796 xtb: 6.7.1 (edcfbbe)
Fe          10.18308203241427       18.71672019324740        4.45689421862534
N            8.18617714395248       18.68095686569014        4.54938294005565
N           10.22576750331260       16.98059636290918        5.43713485172543
N           12.19818627892740       18.81300223783296        4.45443062946955
N           10.12502991253920       20.52986026260579        3.59393833016288
C            7.34158794244965       19.56782043223204        3.95533829998245
C            5.96316035583501       19.16846139254023        4.15034978167308
C            5.99666401950032       18.04047582350935        4.90975805138058
C            7.39550661535610       17.74380884612543        5.13735544176970
C            9.17965503070585       16.25670077961487        5.92650539594864
C            9.64043430354752       15.03364407214750        6.53631634844198
C           11.00327328168619       15.02941811575603        6.40203169619599
C           11.34378707638700       16.26922641785618        5.72745687573970
C           13.04770132435193       17.84258843323511        4.89408319012632
C           14.41780021971339       18.26229521444742        4.77207088748554
C           14.38662749098756       19.53126883379628        4.24392187203878
C           12.97902351888436       19.84046839031330        4.04179939736877
C           11.17786272905509       21.34111045329117        3.31753491375621
C           10.72487082350642       22.58972354996045        2.74666729148132
C            9.37127607724509       22.50789024617746        2.66480119407998
C            9.01470980246275       21.20669171323833        3.19638884035097
C            7.72404703773885       20.72760050992662        3.30471801651392
H            6.93272397692106       21.33169688908130        2.88043623370237
C            7.84844761338182       16.62540626488841        5.81119833140954
H            7.10403872639702       15.97219029264796        6.24826309004587
C           12.64465365735649       16.63651334538401        5.43945449327148
H           13.41543484460592       15.92941307834585        5.71111321670376
C           12.50740208983249       21.03096306164952        3.52242308424026
H           13.23242485336358       21.78062543086922        3.24373711878296
C            4.86087496523504       17.22326516925212        5.41950455651484
H            3.91673167836910       17.56579957824714        5.00434872891324
H            4.79770467373152       17.28744522625714        6.50616769730425
H            4.98819937102345       16.17509935510532        5.15332709084902
C            4.77954668051032       19.88947328586383        3.60700361496105
H            4.72907762388543       19.78755312459760        2.52191894916654
H            4.82883021789811       20.95115407957995        3.84264194626627
H            3.85946747854179       19.49298985626231        4.02823176786076
C            8.78732813517063       14.01133020505074        7.19741853743341
H            8.35082236896574       13.33716499418137        6.45853053001781
H            7.97364667273886       14.47277749937091        7.75276896870172
H            9.38444813926956       13.41700179757467        7.88586272037874
C           11.96916068711083       14.05281681870383        6.85166838387362
H           12.90736309111970       14.46674470721035        7.19917356548993
C           11.80108497798459       12.73525174225193        6.85242118978697
H           10.89771942629734       12.28192690558894        6.48088271616319
H           12.56388080345732       12.06310753950069        7.20755166088091
C           15.61002111491345       17.46263569598835        5.15434883620764
H           15.35372832693509       16.42248035738152        5.33298782670543
H           16.06313905163547       17.85793226460439        6.06497799436434
H           16.35807380452898       17.50538281788213        4.36261914417371
C           15.47448615056983       20.41345063492111        3.91472531148332
H           15.22185972621590       21.20146338602959        3.21692353434925
C           16.72527466454153       20.36657719701046        4.36874802257468
H           17.06636644799644       19.64340718062804        5.08617902734684
H           17.46264704180511       21.07913639949772        4.04152477018922
C           11.60811714951430       23.72112531789158        2.35758781562886
H           12.31646941226547       23.40867732264212        1.59231251579424
H           12.17452874731934       24.07509448540042        3.21798544764949
H           11.02551195725297       24.54940084690843        1.96479058913966
C            8.43745415893929       23.56170287146295        2.18143944240554
H            8.41602328444115       23.59653803065752        1.09223239443423
H            8.75789875831079       24.53890940222958        2.53969958520438
H            7.42907758098543       23.38471248248354        2.53973922883347
O           10.35823360896054       19.77482477421173        6.44542266067883
H           11.22260443710185       19.68826118297119        6.87934103979549
H            9.70337667220705       20.01607697173803        7.12705833231743
C            8.61811247697355       17.92322506697151        1.23680210907566
H            7.76349821369198       18.02433352402824        1.89524306306407
H            8.42774646959016       17.20231706605774        0.44881195994436
H            8.87241601079970       18.88656406173458        0.81075853456623
S           10.08356244280050       17.37525297806233        2.18719085566331
H            9.48452901597976       16.32147828668798        2.74862330131865
72
 energy: -105.972209762247 gnorm: 0.017482631389 xtb: 6.7.1 (edcfbbe)
Fe          10.18425610353563       18.74209064862070        4.49037232180409
N            8.19052878113217       18.68803453092365        4.54317934881360
N           10.24243231645160       16.98517193849276        5.43642679773751
N           12.19488164343107       18.80493084611177        4.45091968398100
N           10.11794728588374       20.51975203356167        3.58792182744861
C            7.34249128513938       19.57588615459995        3.95981833510385
C            5.97060877677568       19.17193254579021        4.15522045155184
C            6.00729899406158       18.03940382636763        4.90630584024907
C            7.40423321664216       17.74374986439276        5.12858971667977
C            9.18848246436083       16.26288150469432        5.91337143186965
C            9.64218067350787       15.04112361622323        6.52142315015876
C           11.00415448863403       15.02686215891996        6.39033678964997
C           11.35629033164150       16.26527095824168        5.72598470165344
C           13.04520885548571       17.83760592251883        4.89436617714213
C           14.41119504090343       18.25900199240165        4.76669514159745
C           14.37930179209275       19.52504742649285        4.23904705931077
C           12.97548605100396       19.83369882188015        4.03679355290518
C           11.17486895471453       21.32754137837239        3.31820975128247
C           10.72440510590086       22.57690466416870        2.75077544172758