78
 energy: -116.057577455319 gnorm: 0.000096267366 xtb: 6.7.1 (edcfbbe)
Fe          14.55487499344546       54.52304290870327       19.04167666479612
N           13.15134177960492       55.85272919195057       18.47950002426881
N           14.14236396119448       53.41927420341560       17.40752457257332
N           16.00806390339600       53.25513666880859       19.53474830826568
N           14.95974198999104       55.63328387021996       20.64290791343686
C           12.76476807445675       56.96538615885608       19.15865137086055
C           11.72067170441282       57.66350100425780       18.44390912051486
C           11.48196161864904       56.94423496397320       17.31370513729231
C           12.37656637660259       55.80995106868991       17.35859525384379
C           13.20771544007229       53.68416603183756       16.45155430676449
C           13.14506203195706       52.61604976036951       15.49151510117947
C           14.04078883360514       51.66662954275924       15.90840246271889
C           14.67089769272735       52.20573170253140       17.09587315863368
C           16.37570839107951       52.13131766261714       18.86039080143685
C           17.50372216458156       51.49726502914498       19.49634830483597
C           17.80596187553549       52.26105731124188       20.59161863597181
C           16.85546931900865       53.35766014830892       20.58748608577591
C           15.90552782499925       55.38547406543927       21.58472021486322
C           15.86541617373315       56.38783282828168       22.62856359836201
C           14.87050190216868       57.24920910374803       22.29012364069393
C           14.31894008973939       56.76184366738236       21.04335036194832
C           13.29485427830214       57.39096430020018       20.36235153988472
H           12.88311353425795       58.28878811109362       20.79713448101194
C           12.40315970328812       54.81177417359162       16.40386387205996
H           11.72286951618320       54.90032318445503       15.57050224197106
C           15.74528333264252       51.62261215122481       17.73941415737487
H           16.12741428284897       50.70336862378151       17.32427501694513
C           16.80233553704418       54.33488481291432       21.56423930819316
H           17.51367995150783       54.27326260319493       22.37373921203247
C           10.51060438569164       57.20623794946260       16.21377109854781
H            9.96768520929653       58.13146414036140       16.39007635497478
H            9.78690237563011       56.39398637130743       16.13721755985620
H           11.02664094099814       57.28874014071496       15.25685398186800
C           11.08050981956751       58.92505250386593       18.91215869466564
H           11.82390355404964       59.71539178319971       19.01862144499420
H           10.60567224144913       58.77596338588674       19.88211882598564
H           10.32291258540208       59.26010380816840       18.20787047614927
C           12.22378138115782       52.56975668757451       14.32133075981600
H           12.34682251355581       53.45651475032860       13.69885580867221
H           11.18416431711077       52.53148750012186       14.64964191177781
H           12.42004566040977       51.68912367803112       13.71501544206153
C           14.29714533983175       50.38370543205880       15.28750882173630
H           14.26134073065306       50.37764196567949       14.20312410159712
C           14.52222712847915       49.24391556386238       15.93119580267867
H           14.51512798309504       49.18427578219885       17.00634737078653
H           14.69952834482453       48.32280430404374       15.40099041807360
C           18.20822202770381       50.28975718343449       18.98447622733131
H           18.25421559971410       50.30267601831098       17.89664157691193
H           17.69109933886903       49.37825378881872       19.28928542605681
H           19.22272895858599       50.25592852727041       19.37653406282841
C           18.85971344412600       52.08881475787459       21.56678892439585
H           19.27754791064267       53.00440596427457       21.96900618775371
C           19.33240535735699       50.92286182940535       21.99562619158801
H           18.92472374151307       49.98299515874035       21.66660761170768
H           20.13244086601867       50.86979888667291       22.71542658399010
C           16.77355143165527       56.40785173547240       23.80988384058908
H           17.81183123154863       56.50343217973209       23.49152804307134
H           16.67941056572848       55.48504461837102       24.38283521208247
H           16.53871602245705       57.24341500747634       24.46472231352340
C           14.39345435805016       58.46911904479503       23.00096679668520
H           14.94648216589720       58.61945583917419       23.92485914472092
H           13.33439405749680       58.38175277498498       23.24468858267307
H           14.52481350115927       59.35263154222663       22.37573762990217
O           15.99752560349388       55.72080240842347       17.72031063500389
H           15.42506368246951       56.46356507452661       17.49890302567341
H           16.02382522723577       55.14420784299961       16.94893508614609
C           11.88286597392319       51.51094898365056       22.89385918581178
H           11.64077974237778       50.47705040835579       22.64802045872300
H           11.01935056202657       51.95451837890887       23.38938338741211
H           12.72135646044877       51.51736158341652       23.58307115727455
N           11.36841404540982       52.44068161420365       20.62620861827535
H           10.43115404564861       52.07636506268637       20.57749468917756
C           12.23924511402333       52.27409930124258       21.67106763920142
C           11.99794266617276       53.17499344023214       19.68152386516136
H           11.55507818143914       53.46087981835539       18.75002709188162
N           13.21308561018200       53.48312850853858       20.06442752004202
C           13.37805856254690       52.93008831050312       21.30041020363289
H           14.29871315583717       53.04019380705695       21.83535933801630
