78
 energy: -116.058080198120 gnorm: 0.000020131714 xtb: 6.7.1 (edcfbbe)
Fe          35.42577706403398        4.23032983696190       10.27806193866412
N           37.30021188903613        3.90487796095494        9.68708475003321
N           35.11904333240283        5.42295223450672        8.71030624127980
N           33.55292570665367        4.59532870691935       10.92742871681519
N           35.74253439863658        3.07243510649140       11.89517341700180
C           38.24057745737981        3.14623238655808       10.30822434059693
C           39.48223765272830        3.15673282188332        9.56448273697594
C           39.26546981016133        3.93869606525526        8.47443192508387
C           37.89542548083209        4.39648708466354        8.56932318605730
C           36.00319858295863        5.70287440303833        7.71728357423643
C           35.42335315348693        6.60002516097470        6.74924723851503
C           34.15388785185991        6.86822825818577        7.18540281190866
C           33.98566749859190        6.10800202940525        8.41069268720888
C           32.62223968010817        5.38651141924674       10.32306125148341
C           31.38752023612324        5.38123604719810       11.06248931370421
C           31.58623947110963        4.55517812395390       12.13816824692703
C           32.94593486498425        4.06767548598357       12.02265032201495
C           34.84050868520978        2.75182581860225       12.86294673366743
C           35.42887427042550        1.85576462126418       13.83218570723396
C           36.70860253098937        1.63712181033615       13.42400372465839
C           36.88408183527292        2.40191620995440       12.21096368874270
C           38.05861135118074        2.43861261921620       11.48224886780839
H           38.89477307658065        1.86777020063027       11.85654274273520
C           37.29950783710736        5.22524887602058        7.64139823852088
H           37.89917002944540        5.54216285774976        6.80188651659518
C           32.82479872334931        6.10898751093862        9.15931044106743
H           32.00669762475814        6.71986613931823        8.80946295172412
C           33.54037608490138        3.21492754547608       12.93452314822615
H           32.94296593133715        2.88161271419314       13.76898610488607
C           40.19877660320480        4.30116216802432        7.37080249756607
H           41.17011013699637        3.83452382766168        7.51565434004621
H           40.33973390172066        5.38126413362018        7.32986204332473
H           39.80120824146486        3.97535484703797        6.40925678993876
C           40.71672793425611        2.43074104309087        9.97793725768313
H           40.53061245920156        1.35804720477137       10.04182505567966
H           41.05270239311930        2.77388324798476       10.95660757031150
H           41.51960328317529        2.59609154348335        9.26384061753581
C           36.09046882063647        7.06160208986283        5.50099977407438
H           36.68146739826472        6.25969762000701        5.06099897659879
H           36.75795571847960        7.90033872760364        5.70485529901753
H           35.34538397420005        7.38384788510542        4.77632827486284
C           33.13463104961346        7.69741588822120        6.58134964914120
H           32.11324215955131        7.36005881524452        6.71699944011581
C           33.35519369385485        8.81606968245872        5.89827478291336
H           34.34227176839531        9.22538719078027        5.77349590198505
H           32.54630905071710        9.37863928704595        5.46215448779691
C           30.14239639842887        6.09044009580881       10.65817391427703
H           30.00985329544167        6.05208491474029        9.57793342620242
H           30.17709124276768        7.13983478792638       10.95587163407199
H           29.27888073856298        5.62744703822531       11.13139380609863
C           30.66433740555684        4.18498329950509       13.18906823163761
H           30.77151441604416        3.17650154390064       13.57180100073884
C           29.72995131707578        4.97457493477861       13.70862474933925
H           29.60953078156848        5.99889952728746       13.40180950921166
H           29.06613142077286        4.62766388970700       14.48312545402156
C           34.71260995309957        1.31639880568883       15.02252971255875
H           33.83996332456174        0.73935376916988       14.71545237507002
H           34.37090701942444        2.12783568149053       15.66565608988308
H           35.36319905499043        0.66892236725788       15.60532455959459
C           37.76922118433323        0.79659074040429       14.04870813995954
H           38.09259323358341        0.01257921269178       13.36323894198976
H           37.40427222922006        0.32606321582435       14.95831948083906
H           38.63938677403993        1.40282083919881       14.30156696374908
O           36.07154662502236        5.99804610091916       11.58802951219436
H           35.21198721017248        6.36585836996589       11.82046120960541
H           36.39183809520755        5.51729009532040       12.35903127451293
C           32.53709814584828        0.69690976694089        7.07751798757348
H           32.04640362638343       -0.14249472245066        7.57008115922698
H           32.99960384701551        0.33121662010448        6.16081350500426
H           31.78533632960125        1.43535022338618        6.81734058826186
N           34.62258406466089        0.61448195280393        8.46153680173272
H           34.82872795495830       -0.35340525659276        8.27638583569065
C           33.55081420754033        1.31298894901174        7.97045925124862
C           35.34298479973670        1.45870653842930        9.23396126312803
H           36.23978737450614        1.18395713003794        9.74989409655080
N           34.79274702470352        2.64828109159630        9.26170834061272
C           33.67745864165762        2.57340439275107        8.47998341673950
H           33.04463156501016        3.42466882628123        8.33798344567140
