72
 energy: -105.980104298974 gnorm: 0.000053445769 xtb: 6.7.1 (edcfbbe)
Fe           6.48709162276909       30.59280849351529        9.20758565343895
N            7.35747383362142       28.94547870147203        9.90165020113900
N            7.92491026451464       31.71336532190099       10.07144062877323
N            5.55307223379255       32.27428481279982        8.61204566445343
N            5.04815636922064       29.50263890506595        8.37901477002032
C            6.95943522887771       27.66685868189538        9.68821863360933
C            7.82374817601553       26.73775419989931       10.38447026380641
C            8.74805272332409       27.49150934288165       11.03535384605253
C            8.44488443544365       28.86990237042943       10.71408028816033
C            8.97263879153691       31.26432654529528       10.81891480358342
C            9.81509850431912       32.35664445296851       11.22653683188241
C            9.25390090649250       33.49339838679995       10.70473777883497
C            8.07119902131496       33.06397549391155        9.98825743707327
C            6.00358292499940       33.55309324159817        8.75396225947673
C            5.06301226021504       34.48688804039018        8.19693457002964
C            4.00831230979412       33.74557921675536        7.73459366611878
C            4.35604196339467       32.36103474666282        7.97459564799658
C            3.97132676861294       29.95731193157927        7.68820147812560
C            3.20102711523354       28.85262999169949        7.15623234871424
C            3.84262109400674       27.72015195445624        7.54466035305672
C            4.99292748668685       28.14901371084667        8.31212563329892
C            5.87851180935356       27.28142974297729        8.91918030446408
H            5.69861701445629       26.22368561246909        8.80599529857074
C            9.20297873354049       29.93869881921028       11.14726129992405
H           10.04881871745180       29.72383749317397       11.78141246174051
C            7.18490449630727       33.92618833891541        9.37131999043729
H            7.41427504522895       34.97991316997454        9.39776627520423
C            3.62680476805276       31.28224173456505        7.51084255665356
H            2.73867217351319       31.49656334416785        6.93840736866050
C            9.87523232908375       27.06098874773751       11.90926832083696
H            9.88190685483377       25.98027803382572       12.02588503975535
H            9.78666535646943       27.51210830223949       12.89751240011429
H           10.83155993943915       27.36535040102108       11.48235793777114
C            7.66116455288142       25.25743017142704       10.35484811478105
H            7.72330907897188       24.88497001953523        9.33212126248478
H            6.69027056191354       24.97247332661456       10.76010059038916
H            8.43479361364427       24.77126820570375       10.94393394139769
C           11.08098733020562       32.21991159856831       11.99736688528551
H           11.62088242631501       31.32267658137001       11.69827264079717
H           10.87919662020152       32.15075359175063       13.06753121400389
H           11.71836627882709       33.08451094193084       11.82355608418647
C            9.70820581605747       34.86366560105142       10.79394902107805
H            9.50596969198129       35.48110582395278        9.92625648784951
C           10.32952304689429       35.40194096815821       11.83788289332599
H           10.51317730363978       34.84994284665846       12.74307042616805
H           10.65378696853516       36.42918069741448       11.83134464928538
C            5.22412762793158       35.96720011004213        8.20178281471392
H            6.14982123393366       36.25411268771803        7.70210217826643
H            5.26116006321251       36.34766505931213        9.22324394265347
H            4.39102548610567       36.44338846302719        7.69144956186684
C            2.78953480902747       34.24616613156087        7.13256436941472
H            2.91220907406615       35.10890541209780        6.48709353055055
C            1.57006439559703       33.76483743904586        7.34348406661793
H            1.38690532443240       32.94367163394750        8.01584274348379
H            0.70492376528683       34.19342276055546        6.86575452119202
C            1.95832886209236       29.00914726653798        6.35026224598623
H            2.15675865065345       29.59475699740761        5.45268378264984
H            1.18974492648440       29.52460796891199        6.92655188065451
H            1.56818488479818       28.04014771195214        6.04942339996432
C            3.49311600782340       26.29629993077157        7.28156508181392
H            4.30733986071067       25.79260075468024        6.76055123324801
H            2.59792463270121       26.22511691992394        6.66898417145510
H            3.31150847187223       25.76789081954263        8.21766683781547
O            5.30703847488113       30.81168305389082       11.10146963625895
H            4.55990896754491       31.33868555972709       10.79560572027709
H            5.88098201300827       31.39875218883210       11.60684305030636
C            9.33205850024508       29.86474553784412        7.50462482125084
H            9.99809912418930       30.11770487213940        6.68541495324757
H            9.19032172496627       28.79026477437941        7.55498645632795
H            9.71423723246540       30.22931896375081        8.45186729364482
S            7.68655115482070       30.59246691937890        7.18597083399167
H            8.10503016915706       31.86167740580619        7.24015464953848
