78
 energy: -115.940168004787 gnorm: 0.294132566842 xtb: 6.7.1 (edcfbbe)
Fe           9.75900000000000        2.31700000000000       25.93400000000000
N            8.85400000000000        2.36500000000000       27.88200000000000
N            9.67000000000000        4.18100000000000       25.83800000000000
N           10.26600000000000        2.14100000000000       24.02800000000000
N            9.50700000000000        0.31500000000000       26.14400000000000
C            8.46500000000000        1.35400000000000       28.68000000000000
C            7.88800000000000        1.87300000000000       29.91000000000000
C            7.93800000000000        3.19300000000000       29.82000000000000
C            8.54400000000000        3.53000000000000       28.52800000000000
C            9.28700000000000        5.11100000000000       26.79100000000000
C            9.39400000000000        6.44600000000000       26.21500000000000
C            9.89900000000000        6.34600000000000       24.98699999999999
C           10.05400000000000        4.94000000000000       24.73100000000000
C           10.64800000000000        3.17400000000000       23.22200000000000
C           11.36300000000000        2.66700000000000       22.08900000000000
C           11.18700000000000        1.34800000000000       22.12000000000000
C           10.58400000000000        1.00800000000000       23.38800000000000
C            9.74800000000000       -0.54700000000000       25.07400000000000
C            9.27900000000000       -1.87600000000000       25.37400000000000
C            8.73900000000000       -1.80400000000000       26.76200000000000
C            8.92600000000000       -0.42700000000000       27.15600000000000
C            8.54800000000000        0.04000000000000       28.38300000000000
H            8.30200000000000       -0.68400000000000       29.16000000000000
C            8.80300000000000        4.79800000000000       28.03300000000000
H            8.60000000000000        5.63400000000000       28.70200000000000
C           10.55600000000000        4.46200000000000       23.55900000000000
H           10.91300000000000        5.19400000000000       22.83400000000000
C           10.34100000000000       -0.23100000000000       23.87300000000000
H           10.64700000000000       -1.06800000000000       23.24600000000000
C            7.38500000000000        4.12800000000000       30.89399999999999
H            7.90800000000000        3.93900000000000       31.85600000000000
H            6.29900000000000        3.94000000000000       31.03200000000000
H            7.55300000000000        5.18500000000000       30.59400000000000
C            7.27100000000000        1.03400000000000       31.04400000000000
H            7.88400000000000        0.12200000000000       31.20600000000000
H            6.23900000000000        0.73000000000000       30.76700000000000
H            7.25300000000000        1.62800000000000       31.98300000000000
C            9.10600000000000        7.77900000000000       26.94200000000000
H           10.06400000000000        8.24000000000000       27.26400000000000
H            8.47800000000000        7.58900000000000       27.83900000000000
H            8.58300000000000        8.47700000000000       26.25300000000000
C           10.26200000000000        7.48400000000000       23.97700000000000
H           10.27700000000000        7.24300000000000       22.90400000000000
C           10.56600000000000        8.76600000000000       24.31000000000000
H           10.57200000000000        9.08300000000000       25.36300000000000
H           10.81000000000000        9.50300000000000       23.53000000000000
C           11.81400000000000        3.57400000000000       20.90800000000000
H           12.00600000000000        4.60200000000000       21.28200000000000
H           11.01400000000000        3.61400000000000       20.13900000000000
H           12.74900000000000        3.17300000000000       20.46200000000000
C           11.66800000000000        0.30800000000000       21.10100000000000
H           11.67900000000000       -0.76200000000000       21.35400000000000
C           12.08900000000000        0.69000000000000       19.86900000000000
H           12.58500000000000       -0.02900000000000       19.20000000000000
H           11.94000000000000        1.72400000000000       19.52400000000000
C            9.26300000000000       -3.16700000000000       24.51900000000000
H           10.20800000000000       -3.72900000000000       24.67800000000000
H            9.17700000000000       -2.90400000000000       23.44300000000000
H            8.40800000000000       -3.80800000000000       24.82200000000000
C            8.03700000000000       -2.99100000000000       27.48900000000000
H            8.66800000000000       -3.90200000000000       27.40600000000000
H            7.05200000000000       -3.19100000000000       27.01599999999999
H            7.90000000000000       -2.74500000000000       28.56400000000000
O            7.16900000000000        2.32800000000000       25.27000000000000
H            6.68500000000000        2.34900000000000       26.09600000000000
H            6.81600000000000        2.31500000000000       24.45400000000000
C           15.46300000000000        2.78600000000000       26.44600000000000
H           16.05200000000000        1.87100000000000       26.22200000000000
H           15.92000000000000        3.30400000000000       27.31600000000000
H           15.47900000000000        3.45200000000000       25.55700000000000
N           13.71800000000000        1.58100000000000       27.81000000000000
H           14.36600000000000        1.17800000000000       28.45600000000000
C           14.05900000000000        2.40700000000000       26.76599999999999
C           12.40300000000000        1.41700000000000       27.80900000000000
H           11.85900000000000        0.81800000000000       28.53900000000000
N           11.88700000000000        2.09000000000000       26.79400000000000
C           12.89300000000000        2.73000000000000       26.13800000000000
H           12.69400000000000        3.36000000000000       25.28100000000000
78
 energy: -116.010061435537 gnorm: 0.123825856129 xtb: 6.7.1 (edcfbbe)
Fe           9.68338448013366        2.30097651054048       25.95167511103352
N            8.84821190788272        2.38070921538784       27.88569577778423
N            9.67817930978156        4.20517563155383       25.82568065922109
N           10.28841381241070        2.14142074901740       24.04462737625138
N            9.48828247789841        0.29334292534641       26.12102095797594
C            8.47138254749610        1.35742689079099       28.68732334378394
C            7.88742244313884        1.86553885452097       29.91575930780850
C            7.93460322095670        3.21105053800152       29.82605522016868
C            8.55136256094237        3.53697491692544       28.54119173333192
C            9.28370126511051        5.12338716199383       26.77778635512428
C            9.40880498782329        6.47250433327732       26.23687542790416
C            9.90668994134573        6.37782135154456       24.97898615673028
C           10.05588360821854        4.96315305022815       24.73251906800057
C           10.68282972345816        3.16385035033517       23.23339254135396
C           11.32810615990808        2.66709523647287       22.04527062641294
C           11.20178602258651        1.31370142489606       22.09896525766969
C           10.59399273892548        0.99937475126827       23.38559592251156
C            9.73499918588695       -0.57747215271929       25.08417322607345
C            9.26469300956160       -1.89806771144527       25.40789328361842
C            8.75095470444388       -1.82492253159973       26.72263891690067
C            8.93335410893171       -0.45505660554988       27.13020166262245
C            8.55653567818978        0.02503013821230       28.37376476319954
H            8.28845919428279       -0.68974144730278       29.14338369342527
C            8.80124924891600        4.80511884358745       28.03566260899938
H            8.59060114856817        5.63585229521161       28.69954521896471
C           10.56587520494498        4.48120431499442       23.55801230204076
H           10.90891465670354        5.20556666669118       22.83274353758232
C           10.33787880498327       -0.25660793034989       23.87490892950523
H           10.63347261829641       -1.08471618704161       23.24495754776800
C            7.39233286358228        4.13681394157190       30.88299843177202
H            7.90002572759667        3.94772208846127       31.83814321492465
H            6.32015719425041        3.95091211013303       31.02672682542627
H            7.54643323719519        5.18148725908229       30.60209599330876
C            7.28343616389358        1.03810895241283       31.03045984046274
H            7.87567959584556        0.13311814975556       31.20459464476313
H            6.26002017449012        0.73680677429049       30.77081203611632
H            7.25277681697321        1.61711535166485       31.96082268730592
C            9.10251970789603        7.76792552110038       26.95161592012958
H           10.04474821408651        8.23095794464866       27.27007091896990
H            8.47980366237414        7.59452087023645       27.83268136653965
H            8.58916730912959        8.45804457692303       26.27019093716589
C           10.25214372047079        7.47627391958306       24.00213017789180
H           10.26821981568985        7.22226838073523       22.94003711128064
C           10.55680320197838        8.74028203384846       24.31561042351470
H           10.58041849154702        9.08049383753982       25.34272492995837
H           10.80152677428056        9.47261139635844       23.54743594336485
C           11.81074019107712        3.56977007245508       20.92112922037523
H           12.00248913177706        4.58586885607935       21.28063129123887
H           11.03077191831563        3.61689944054776       20.15098926656620
H           12.73790320229451        3.18752745156943       20.48025883596408
C           11.67408686734508        0.32352670309930       21.09913922829416
H           11.69140702175052       -0.73094632171214       21.37143149121537
C           12.08144053491099        0.67874302002229       19.87605752675750
H           12.55705360034155       -0.03041503997917       19.20581294909565
H           11.95318000098080        1.68926292507576       19.51770708711851
C            9.26450660701169       -3.14384674828220       24.53718528110309
H           10.19288513719487       -3.71481346921933       24.67874925501055
H            9.17710960515276       -2.90049328899885       23.47024298074707
H            8.42475926701506       -3.78988378830313       24.81727220166228
C            8.05928753636730       -2.96465664205325       27.46996849230344
H            8.66119954347846       -3.87995146096515       27.40331112294010
H            7.07759089736696       -3.17774155185788       27.02345559541556
H            7.90699621518261       -2.73907645153236       28.53356728942704
O            7.21530774004860        2.33129664542556       25.29517072932248
H            6.69154121786736        2.34772354255998       26.09363906640602
H            6.81734138454016        2.31379082347046       24.44321399655477
C           15.46444103746567        2.78335127800324       26.44884380005264
H           16.05364405748091        1.88538774803565       26.22435254548174
H           15.92296203812367        3.29979178888835       27.30104916285710
H           15.48137288462750        3.44160142595507       25.57495200722821
N           13.71998315477283        1.58658714644732       27.80285585603245
H           14.36947122165551        1.17942677802044       28.45475746016862
C           14.06076777518112        2.40818234582021       26.76084464708452
C           12.38696322304239        1.42619919223813       27.79087246416573
H           11.85318213283897        0.83099657794422       28.51515917491537
N           11.85512963006595        2.10155360749393       26.79062767039987
C           12.88326950588615        2.72211248459962       26.14204356981567
H           12.69397827583387        3.35007021601694       25.29025079761806
78
 energy: -116.032179440275 gnorm: 0.039813385805 xtb: 6.7.1 (edcfbbe)
Fe           9.63021253616965        2.28340582477086       25.96880022373186
N            8.84644151232487        2.39230484150089       27.87648880900579
N            9.67460925461400        4.23088579778581       25.81568646123954
N           10.31505002611345        2.13648877202444       24.06005656927998
N            9.46213327836997        0.27671739303878       26.09660566273030
C            8.47612155058736        1.36156645943130       28.68212689866823
C            7.89788935603688        1.86276184421484       29.91091515360129
C            7.94153019765844        3.22355505584872       29.82367002582121
C            8.55697442997154        3.54170483169105       28.54339263174128
C            9.28089587155026        5.13467166357763       26.76952187797364
C            9.42132860933991        6.49003495426664       26.26010566602805
C            9.91283213089081        6.39960319503860       24.98238065534047
C           10.05683907354910        4.97882369139664       24.73653712862525
C           10.71214109469392        3.15325955348115       23.24904518357736
C           11.29733106059767        2.66592480144392       22.02356793535148
C           11.21378539349503        1.29104465221800       22.09154941496161
C           10.60833950070931        0.99020368272698       23.38875122377268
C            9.71858931880403       -0.59619614382140       25.08224189433962
C            9.25507956553349       -1.91810736397434       25.43277449935410
C            8.76265247632682       -1.84286554072397       26.69106672512923
C            8.92590922575789       -0.47010486663467       27.10667457181143
C            8.55494945457649        0.01933418597263       28.35446187968028
H            8.26761099978717       -0.68993812598092       29.11728185256901
C            8.79784056967864        4.81267039436127       28.03539928013381
H            8.57568323150823        5.64029247997168       28.69428615300446
C           10.57349832464393        4.49124938451820       23.55913852475812
H           10.90193102002450        5.21134717876829       22.82921827154557
C           10.33205306762392       -0.27699639195994       23.87244025557325
H           10.61072417084536       -1.10326958481935       23.23754329330959
C            7.40392731935156        4.14572129809029       30.86745366481157
H            7.89977161036289        3.96032089755160       31.82153311429406
H            6.33846593393778        3.96422883772647       31.01617594112578
H            7.54561081328253        5.18588900707820       30.60117917656628
C            7.30037914449545        1.04606940153925       31.01198368734705
H            7.87748182378945        0.14265656663970       31.19517344607805
H            6.28045440214283        0.74543848420024       30.76396875515847
H            7.25997844106032        1.61611760569684       31.93814272742768
C            9.10059078836786        7.75691467975211       26.96808462036508
H           10.02694788064507        8.23104172257196       27.29322855198205
H            8.47423020072897        7.59265541178615       27.83641512867918
H            8.59286499078763        8.44131780648817       26.28879842246660
C           10.24233570086844        7.45453688871392       24.03660559818691
H           10.25152517968450        7.18306274363965       22.98421512984903
C           10.54724410165802        8.71577380371563       24.32767470494098
H           10.59261395476723        9.08363740019881       25.33506426033967
H           10.78827126705094        9.43792356766294       23.56071065808467
C           11.79926497386073        3.55924250727693       20.93711577084269
H           11.99135407009661        4.56626863853271       21.29668652996922
H           11.04671534796982        3.62412072804590       20.14852163187288
H           12.72692390972029        3.18866982332265       20.50617534506695
C           11.67456864735822        0.34043542368292       21.10945972058935
H           11.71110071443831       -0.70118128183730       21.40779915741213
C           12.07461520311189        0.66356571287513       19.88056473793967
H           12.51466597977810       -0.05307329285972       19.20739274554255
H           11.97244325806165        1.65825783886362       19.49955136035585
C            9.26597840615343       -3.12960169060385       24.55467615386380
H           10.18866176476062       -3.69906828038480       24.68466749844681
H            9.17745532405550       -2.87876417162525       23.49881107056243
H            8.43412509862007       -3.78026023206231       24.81785678481865
C            8.08382209759838       -2.94603967920664       27.44992999102213
H            8.66861496743688       -3.86424038918481       27.39595387134942
H            7.10212427194965       -3.15856905836775       27.01828340428026
H            7.92842791911489       -2.71139979192473       28.50139002373721
O            7.28367681616492        2.34081511111413       25.31503002543553
H            6.70421648929416        2.34335233564798       26.08001679073492
H            6.84493989506638        2.30902393074336       24.46239420235448
C           15.46054779880168        2.78113096201176       26.44914323841932
H           16.05199170356794        1.89373446756410       26.22657599682771
H           15.92000647723830        3.29538419618387       27.29209055073223
H           15.48196886645169        3.43667682362150       25.58546567264284
N           13.71201546755792        1.58995033109689       27.79513605148515
H           14.35942468170525        1.17844082319969       28.45054759955129
C           14.05468930802257        2.40973832757489       26.75331292003536
C           12.36735806471857        1.43861903064990       27.77513702682469
H           11.83863096064021        0.84377801027760       28.49221897955631
N           11.83069431261762        2.11329659592153       26.78612325845813
C           12.87120013458130        2.72146120412078       26.14315046661746
H           12.69310721472234        3.34555630254354       25.29168511229113
78
 energy: -116.038679084752 gnorm: 0.023296614738 xtb: 6.7.1 (edcfbbe)
Fe           9.61304258932257        2.27353570730363       25.97511383781382
N            8.84890926074731        2.40011988807118       27.86444210635661
N            9.67128150309288        4.24163528697822       25.82413531544298
N           10.33126479228193        2.12784245657660       24.07032335037438
N            9.44117990035215        0.27185857705902       26.07506513959041
C            8.47698550916136        1.36809631843241       28.66856963986802
C            7.91099284414923        1.86794364009672       29.89971211222054
C            7.95299010563428        3.23066546273665       29.81656437693292
C            8.56054309297932        3.54676901717657       28.53881483302738
C            9.28071361432363        5.14061727198585       26.77804115981465
C            9.43109164590249        6.49419348877994       26.28618340636222
C            9.92051449284303        6.40242879045261       25.00638606021390
C           10.05940576246380        4.98213861022039       24.75028369244605
C           10.71942279375676        3.14969157780906       23.26348556013880
C           11.28186770273813        2.66806562749724       22.02873021292198
C           11.21580070205466        1.29036061755256       22.09485971172973
C           10.61825055174009        0.98425166625318       23.39188880001405
C            9.71006776665322       -0.60079344032021       25.06569862924094
C            9.25965578364896       -1.92761392494499       25.42288055451786
C            8.76551962749011       -1.84672214439441       26.68566740467275
C            8.91167214846938       -0.46756287622708       27.09107528441730
C            8.54288281930335        0.02505476312169       28.33341816065835
H            8.23479548331724       -0.68462551503418       29.08822155803706
C            8.79246955950344        4.81977974561554       28.03917014888690
H            8.55574861327759        5.64671326775167       28.69370941250963
C           10.57547117753603        4.49180869270059       23.57106769258959
H           10.89172826724488        5.21242471796108       22.83467927054679
C           10.32725128881714       -0.28687359701215       23.86122405559328
H           10.58362993091957       -1.11633571885734       23.21834633473451
C            7.41740499832942        4.15960335982834       30.85359486459128
H            7.91046190971868        3.97911180187677       31.80965565706671
H            6.35138632256378        3.98119595035800       31.00072245577702
H            7.55635560378129        5.20078862788130       30.58669494775474
C            7.31755763278410        1.05078258385043       30.99727487292765
H            7.89303402032965        0.14637564037910       31.18103414164202
H            6.29760076951836        0.75197135609268       30.74775357385066
H            7.27573368468729        1.62295538802254       31.92133035482935
C            9.09441206652783        7.75392061507269       26.99742495662296
H           10.00933045233687        8.23899596879597       27.34053706973113
H            8.45468706405334        7.58368460025198       27.85618441790913
H            8.59067134462771        8.43563119151902       26.31262271633921
C           10.23517621154507        7.44260351269602       24.05983254015839
H           10.23385640179601        7.15068335683928       23.01430949501918
C           10.54204448289047        8.70808731787064       24.33478354534698
H           10.61102993552333        9.08972700501967       25.33680301709887
H           10.77384383055357        9.41607167288519       23.55578551723577
C           11.79667984283230        3.56045837543394       20.95337701280199
H           11.97931515562004        4.56462992455166       21.32464272829950
H           11.06650827050503        3.63123652287595       20.14220763395443
H           12.73561653099812        3.19184640443157       20.54455485273946
C           11.68321120564606        0.34006443538259       21.12226471330566
H           11.73826409799628       -0.69255190608425       21.44997960073601
C           12.06436415335497        0.62705405428672       19.87490257991316
H           12.46398719340092       -0.11805993430752       19.20605920406616
H           11.97313765493068        1.61073517858160       19.45939575580612
C            9.27365392872908       -3.13357476526890       24.55021848470637
H           10.19920270032186       -3.69566011126891       24.68026317165997
H            9.18125347463476       -2.86438146186843       23.50133253432204
H            8.44300668931513       -3.78552397774386       24.81241777801891
C            8.09828124385899       -2.94173154252903       27.44803347948775
H            8.68358962425109       -3.85825947184146       27.39576650142525
H            7.11694228369077       -3.14931522806990       27.01613265113663
H            7.95118968495021       -2.68560020149775       28.49311561767793
O            7.35509104097271        2.36206428911610       25.33291939575693
H            6.73718445093042        2.33281478924681       26.07265381122982
H            6.90853264352386        2.29779726260718       24.48311368278667
C           15.44827264800195        2.77906477265093       26.44833441223059
H           16.04240534639808        1.89297567685688       26.22775185775095
H           15.90734101672840        3.29167852443773       27.29257002998592
H           15.47774770274089        3.43695703652108       25.58682473284659
N           13.68890539634237        1.59220137149317       27.78475871222528
H           14.33173757582550        1.17618008307706       28.44149259244646
C           14.03835558868550        2.41210813681062       26.74380251882231
C           12.34143705554178        1.45111662018826       27.75983641457354
H           11.80713243846911        0.85542712691104       28.47081169427012
N           11.81142982233626        2.12981836835883       26.77411713775831
C           12.85713533452129        2.73055853729283       26.13338328338832
H           12.68835214265445        3.35321318478525       25.27986345829676
78
 energy: -116.042820950514 gnorm: 0.019855067687 xtb: 6.7.1 (edcfbbe)
Fe           9.62884987157678        2.26619472623860       25.98845980546676
N            8.85763366318250        2.40815884249197       27.84899207941153
N            9.67586214922777        4.25277983491548       25.84440402927661
N           10.34434344907342        2.11732475394382       24.08271629125704
N            9.43106746096914        0.27347594139525       26.05464118198358
C            8.47782818003254        1.37616104219739       28.64928355542558
C            7.92497408713487        1.87372474660193       29.88433325754954
C            7.96725648938797        3.23575089438381       29.80703169847352
C            8.56713342642854        3.55150066489983       28.53194951388263
C            9.28416928383787        5.14909908926552       26.79452643645936
C            9.44114464434130        6.49949637027090       26.31590735707318
C            9.92970172257796        6.40484842901983       25.03702877853814
C           10.06445769432632        4.98500200750009       24.77154577510768
C           10.72107299488024        3.14713347983001       23.28086011265081
C           11.26988305209136        2.67063914557284       22.04185462567693
C           11.21839904668297        1.29434354420623       22.10311617832653
C           10.62623500930198        0.97954109417692       23.39610743302068
C            9.70198122412219       -0.60034030444189       25.04748627243308
C            9.26439840184222       -1.93035254183328       25.41065336733585
C            8.76971492675784       -1.84502885928576       26.67669039462747
C            8.89905406566091       -0.46026017414783       27.07093186391241
C            8.52398253455706        0.03451278993252       28.30497768370429
H            8.19022929334392       -0.67516539989047       29.04983770890843
C            8.78745675282427        4.82835873848703       28.04729260137848
H            8.53264662006100        5.65250671645364       28.69825586075997
C           10.57488954396443        4.48991482127205       23.59025663998169
H           10.87881393173168        5.21059120105249       22.84759724582140
C           10.31722887011001       -0.29414863216633       23.84592152117379
H           10.54959789748817       -1.12594027607078       23.19473739708915
C            7.43578884205442        4.17527407355911       30.83729147285678
H            7.92733587431076        4.00391349346828       31.79613385216312
H            6.36747356980832        4.00469582099594       30.98196252602002
H            7.57872951749468        5.21501307596826       30.56090594269431
C            7.33734149080012        1.05409538332066       30.98179843857638
H            7.91662137795524        0.15098785309934       31.16296384390623
H            6.31771211008954        0.75416737010868       30.73004368832905
H            7.29639055239170        1.62883574970003       31.90454544843143
C            9.08656886001989        7.75357105540381       27.03276265402524
H            9.98777468594913        8.24659357297370       27.40380419359608
H            8.42823309176345        7.56888697110150       27.87746031332655
H            8.58949694696177        8.43674900963764       26.34373716832877
C           10.23498510767458        7.43749648822030       24.08165709196041
H           10.20882712532024        7.12933941452513       23.04195534495061
C           10.54590070415786        8.70545424142110       24.34253902485445
H           10.62728116405182        9.09680364145502       25.33999719572788
H           10.75168577515171        9.40287778276650       23.54762591575521
C           11.79943008058797        3.55367775068937       20.96676763614860
H           11.97717659479801        4.55850659813123       21.34120133258402
H           11.08921138556545        3.62709932031663       20.13869953056445
H           12.74220844452477        3.17110487738744       20.57790512946821
C           11.68384242502304        0.33552731046417       21.13570629607867
H           11.76337193270952       -0.68674614022678       21.49302239929594
C           12.03951034806943        0.58624885067478       19.87279065121016
H           12.41585924012080       -0.18782770491721       19.22304797923938
H           11.97369585924880        1.56450121534062       19.43074404090605
C            9.28560796057777       -3.13794656158588       24.54202779044945
H           10.21472692465627       -3.69464812475111       24.66848202182979
H            9.18915176264440       -2.86080124417724       23.49601394125964
H            8.45905295088680       -3.79656133956798       24.80264037835779
C            8.11466438535199       -2.93804569592992       27.44794966948898
H            8.70205903604989       -3.85293564522914       27.39880883119466
H            7.13071171400170       -3.14974296209582       27.02365398658132
H            7.97847217883864       -2.66730032367394       28.49006063253843
O            7.42365776770854        2.40981636417404       25.33802934504071
H            6.78363336742556        2.31229451781235       26.05708750665242
H            6.96281375344087        2.26817140841819       24.49856887214089
C           15.42903148868413        2.77644699015050       26.44756992176646