78
 energy: -116.058129850931 gnorm: 0.000174253130 xtb: 6.7.1 (edcfbbe)
Fe           9.54833745241319        2.30630762700753       25.87792814499755
N            8.78864934219937        2.42540510521954       27.72817271651566
N            9.67046750658063        4.28867165391917       25.78788717553877
N           10.27540909900213        2.15970155423966       24.01665852835976
N            9.34256511773481        0.29966361330845       25.94227704656290
C            8.39911453631596        1.39742499973468       28.52937014071637
C            7.96039801751705        1.88915711704528       29.81650744578625
C            8.10094042127541        3.24124462562751       29.77568853247401
C            8.61628598329225        3.55711249476917       28.46191953070647
C            9.33501949249936        5.17361407413392       26.76325538635582
C            9.54831450897075        6.53033078374334       26.32310217398945
C           10.03072458772293        6.44775445406053       25.04508777373799
C           10.09480097531294        5.03090850943494       24.73467044512932
C           10.67353282025520        3.18808225869438       23.21939475455342
C           11.19155408794776        2.69755922761796       21.96818491752685
C           11.09513872919116        1.33211354989201       22.02119099311619
C           10.52631441918788        1.02240833219876       23.31890627204532
C            9.69558629970832       -0.58874425709089       24.97365781889662
C            9.41604704765081       -1.94209880984504       25.39580268051635
C            8.89361365708558       -1.85229676776295       26.64929616538460
C            8.86233763293982       -0.44539411566991       26.97598440442479
C            8.41595479550262        0.05753927673840       28.18460327333358
H            8.06789461487430       -0.65117077235439       28.92054177198930
C            8.86429531954128        4.84100299970403       28.02108211264992
H            8.66879668420990        5.64811354858608       28.71039670017472
C           10.58068807153494        4.53050453614249       23.54286391326543
H           10.91452474605873        5.24217559381267       22.80318253754276
C           10.24601029368407       -0.26149674851703       23.74896625353831
H           10.47630057710271       -1.07500027329875       23.07842523523824
C            7.79819099865093        4.25399182424120       30.82597006593800
H            7.44936299513262        3.77504981092430       31.73760645613368
H            7.02485724305944        4.94150524544799       30.48229928523095
H            8.68766711753451        4.83793088756656       31.06281625555962
C            7.46377219487746        1.02266110910294       30.92323258158606
H            8.22928315622874        0.30746476912743       31.22609702953954
H            6.58451042532104        0.46115981719947       30.60627787671617
H            7.19259639167525        1.62041335780702       31.78981633626095
C            9.21836407028092        7.74966510522674       27.11112988960449
H           10.01525746920543        7.98386230093073       27.81913420506240
H            8.29776664734443        7.60599192940141       27.67449900541905
H            9.08974835417843        8.60040285956717       26.44506817844421
C           10.38700740171164        7.50878400078039       24.12937395635215
H           10.19093316157543        7.30785092799661       23.08245754225801
C           10.92645268426873        8.67467728413486       24.47067299646199
H           11.18577419146438        8.91015447398200       25.48813093396765
H           11.15247178162424        9.42795536030346       23.73415609170290
C           11.77170764553421        3.54376384297492       20.88934433445610
H           12.33723902427978        4.37327425142316       21.31133844204190
H           10.98608725366380        3.95878390487041       20.25578695799062
H           12.43703386958307        2.94961445188987       20.26606624738470
C           11.48838777756759        0.34790929805095       21.03744999789393
H           11.85459265790524       -0.59146128108748       21.43575345444984
C           11.42566867730395        0.50636943002007       19.71925426150866
H           11.74969795774524       -0.26720115162164       19.04281405049044
H           11.02550756625842        1.39715239531060       19.26765369709786
C            9.67525461458940       -3.15227107122864       24.56580984391770
H           10.73650854485592       -3.23459237240014       24.32975796958715
H            9.12430980270911       -3.09877863596823       23.62650627452880
H            9.37050299245893       -4.05449076395105       25.09051271471348
C            8.42718341674401       -2.93729007739440       27.55877037481266
H            8.53634044356443       -3.91064695143386       27.08700997470428
H            7.37714934528531       -2.79725533519840       27.81696431929690
H            9.00419282264124       -2.93870599952505       28.48413309042515
O            7.41756521349904        2.31397990646780       25.03438904601039
H            6.94994810925856        1.88582485298302       25.75931475674588
H            7.50318707981515        1.66463119617256       24.32833006751603
C           14.98959462902609        2.89909875203626       26.93737045706773
H           15.64182849324373        2.05237650715662       26.72364930153288
H           15.28525815933866        3.32341491113542       27.89678911781197
H           15.13045107953135        3.64999227721784       26.16635850470177
N           13.09223594201017        1.54054198011007       27.84634335151291
H           13.63666674200743        1.05989064224962       28.54357584066742
C           13.56682491269419        2.47542668679701       26.96394599661048
C           11.77051866249861        1.38552566960920       27.60746928826698
H           11.13690324296068        0.71462967547965       28.14971140283345
N           11.37983689926051        2.16466739236655       26.62838989194936
C           12.48608461166373        2.84914720804611       26.21775314332971
H           12.43109868908046        3.55956315259349       25.41894029685640
