78
 energy: -115.955796880122 gnorm: 0.323717756408 xtb: 6.7.1 (edcfbbe)
Fe         -11.37400000000000       -2.49500000000000       -1.27500000000000
N          -11.92900000000000       -0.75900000000000       -2.19500000000000
N           -9.62000000000000       -2.50400000000000       -2.38300000000000
N          -10.71000000000000       -4.09100000000000       -0.17600000000000
N          -13.04000000000000       -2.40300000000000       -0.06400000000000
C          -13.07800000000000       -0.08100000000000       -1.98600000000000
C          -13.11400000000000        1.03200000000000       -2.80600000000000
C          -11.92900000000000        1.04300000000000       -3.54200000000000
C          -11.25600000000000       -0.10200000000000       -3.16200000000000
C           -9.29700000000000       -1.67300000000000       -3.37300000000000
C           -8.13500000000000       -2.08600000000000       -4.03600000000000
C           -7.78900000000000       -3.29100000000000       -3.43700000000000
C           -8.71900000000000       -3.48300000000000       -2.41300000000000
C           -9.61100000000000       -4.80800000000000       -0.43900000000000
C           -9.40400000000000       -5.79400000000000        0.51900000000000
C          -10.50400000000000       -5.70400000000000        1.38400000000000
C          -11.31500000000000       -4.69400000000000        0.87200000000000
C          -13.39800000000000       -3.28100000000000        0.88100000000000
C          -14.69300000000000       -3.05500000000000        1.33900000000000
C          -15.14900000000000       -1.95200000000000        0.62900000000000
C          -14.09100000000000       -1.57500000000000       -0.21200000000000
C          -14.11100000000000       -0.47600000000000       -1.08800000000000
H          -15.01100000000000        0.13800000000000       -1.07900000000000
C          -10.01000000000000       -0.49200000000000       -3.67400000000000
H           -9.54100000000000        0.19100000000000       -4.38200000000000
C           -8.74900000000000       -4.56400000000000       -1.52700000000000
H           -7.99500000000000       -5.33000000000000       -1.70400000000000
C          -12.55400000000000       -4.27500000000000        1.37500000000000
H          -12.90300000000000       -4.79300000000000        2.26800000000000
C          -11.47700000000000        2.09100000000000       -4.55000000000000
H          -12.24900000000000        2.88600000000000       -4.63000000000000
H          -11.34200000000000        1.61900000000000       -5.54700000000000
H          -10.52200000000000        2.54800000000000       -4.21300000000000
C          -14.17500000000000        2.14800000000000       -2.75900000000000
H          -14.68500000000000        2.13400000000000       -1.77200000000000
H          -14.93000000000000        1.98200000000000       -3.55700000000000
H          -13.68700000000000        3.13600000000000       -2.89800000000000
C           -7.41900000000000       -1.26300000000000       -5.09900000000000
H           -7.41800000000000       -0.19300000000000       -4.80100000000000
H           -7.94600000000000       -1.36600000000000       -6.07100000000000
H           -6.36800000000000       -1.61000000000000       -5.19800000000000
C           -6.66600000000000       -4.10700000000000       -3.68800000000000
H           -6.24800000000000       -4.69500000000000       -2.85800000000000
C           -6.00700000000000       -4.23700000000000       -4.96700000000000
H           -6.37100000000000       -3.67800000000000       -5.84200000000000
H           -5.13400000000000       -4.89600000000000       -5.08100000000000
C           -8.17400000000000       -6.70500000000000        0.60900000000000
H           -7.25900000000000       -6.11700000000000        0.38300000000000
H           -8.26300000000000       -7.53000000000000       -0.12900000000000
H           -8.09000000000000       -7.12100000000000        1.63600000000000
C          -10.77500000000000       -6.40700000000000        2.56600000000000
H          -11.16800000000000       -5.84100000000000        3.42200000000000
C          -10.58800000000000       -7.82400000000000        2.77900000000000
H          -10.19900000000000       -8.46300000000000        1.97300000000000
H          -10.83300000000000       -8.28000000000000        3.75000000000000
C          -15.47600000000000       -3.90000000000000        2.32600000000000
H          -15.03300000000000       -3.79300000000000        3.33900000000000
H          -15.43100000000000       -4.96800000000000        2.02400000000000
H          -16.53300000000000       -3.55800000000000        2.35700000000000
C          -16.54500000000000       -1.30800000000000        0.73300000000000
H          -16.94500000000000       -1.45200000000000        1.76000000000000
H          -17.23500000000000       -1.78900000000000        0.00700000000000
H          -16.47300000000000       -0.21900000000000        0.52500000000000
O          -10.45400000000000       -1.23900000000000       -0.12600000000000
H          -10.65000000000000       -0.37000000000000       -0.47500000000000
H           -9.94900000000000       -1.41900000000000        0.58300000000000
C          -14.66200000000000       -6.30100000000000       -3.85600000000000
H          -14.22000000000000       -7.25700000000000       -4.20900000000000
H          -15.28500000000000       -5.87100000000000       -4.66900000000000
H          -15.29000000000000       -6.50300000000000       -2.96200000000000
N          -12.61800000000000       -4.91400000000000       -4.40300000000000
H          -12.55100000000000       -5.24500000000000       -5.34400000000000
C          -13.56100000000000       -5.34100000000000       -3.49700000000000
C          -11.82900000000000       -4.01400000000000       -3.84300000000000
H          -10.98300000000000       -3.53800000000000       -4.33800000000000
N          -12.25000000000000       -3.80900000000000       -2.60600000000000
C          -13.35400000000000       -4.59800000000000       -2.37800000000000
H          -13.89000000000000       -4.55700000000000       -1.43800000000000
78
 energy: -116.023705823339 gnorm: 0.127905671807 xtb: 6.7.1 (edcfbbe)
Fe         -11.37836033347095       -2.51004727488910       -1.28055728591762
N          -11.94012347941673       -0.79130044345407       -2.20528222992737
N           -9.64916487641857       -2.51414156109871       -2.38677281146483
N          -10.72162772447056       -4.08912513270709       -0.20006292760115
N          -13.03306949927779       -2.40568029986889       -0.08268898610478
C          -13.08783377661059       -0.09466323751172       -1.98382747260237
C          -13.11625818644202        1.06155202602657       -2.80213713706235
C          -11.94863746811527        1.06163364891807       -3.54178652223857
C          -11.24825438893071       -0.10635699453653       -3.15538795042358
C           -9.30470971964016       -1.65078022269554       -3.36582189347020
C           -8.12689051574436       -2.07752176308609       -4.04048322723532
C           -7.76926467683549       -3.28253852502119       -3.45124822676307
C           -8.72887611576072       -3.49886581377649       -2.40917726295362
C           -9.59948611660676       -4.79930778225651       -0.45096743905778
C           -9.40252659873144       -5.81146174502310        0.52189786340680
C          -10.49018826044378       -5.72528843400247        1.38591090477385
C          -11.30609216715273       -4.66627236059911        0.88265020022698
C          -13.38434323997152       -3.28693753263578        0.88084551724496
C          -14.71080990461642       -3.04928835132762        1.33732466071947
C          -15.16246153065978       -1.95326663949550        0.63432656193349
C          -14.08980325780405       -1.56836641703900       -0.22980368371614
C          -14.10639112442561       -0.47697160106449       -1.09474474091641
H          -15.00001648039617        0.13566576236813       -1.08285837614468
C          -10.01038632990051       -0.48520838989577       -3.67057647092096
H           -9.55459351595048        0.18482875966278       -4.38940860498109
C           -8.73869437603328       -4.57191087914313       -1.52898342509314
H           -7.98325519419661       -5.32906167906086       -1.69536395080607
C          -12.54582205991079       -4.27647769893402        1.38406274560128
H          -12.90536237038937       -4.80650724969780        2.25937257708786
C          -11.48746183957250        2.08663034315999       -4.54235796171736
H          -12.23734954325865        2.87794507878750       -4.63327975694398
H          -11.34272898993535        1.62852471036875       -5.52913670868023
H          -10.53891254333586        2.53793747888788       -4.22212559946473
C          -14.16962973672524        2.14371980726153       -2.76148980201120
H          -14.67686278986413        2.13729761398735       -1.79083710893603
H          -14.91868543283269        1.98851928536934       -3.54740670133574
H          -13.69976951740506        3.12278181770355       -2.89977770756259
C           -7.42090138819952       -1.27071456642646       -5.09323710415566
H           -7.41761334980062       -0.21156338249582       -4.80795531441872
H           -7.93261915440357       -1.36480676383241       -6.05954673481589
H           -6.38369111283619       -1.60516915410531       -5.19801651831370
C           -6.63909187136647       -4.11016791244485       -3.72528777079485
H           -6.24742476286257       -4.69706080015036       -2.89291028175931
C           -6.01844957503652       -4.23107391504040       -4.93446451112318
H           -6.37338446874481       -3.69877341856826       -5.81078211487420
H           -5.15795865457921       -4.87934505151640       -5.06272407809530
C           -8.18721212988399       -6.69987339669468        0.61234920964010
H           -7.27830176772705       -6.12675450579169        0.38828823580703
H           -8.26177635939754       -7.51964385331991       -0.11316216889405
H           -8.09703278969979       -7.11842289060881        1.62032456169745
C          -10.76615656732305       -6.45345726364778        2.58174866879149
H          -11.17202262856742       -5.87474393043418        3.41447921498877
C          -10.58351860095855       -7.78897022951439        2.77700626468890
H          -10.21197239234447       -8.43296806687156        1.98640475210431
H          -10.82725271867399       -8.25475766807052        3.72672400732575
C          -15.47169734632408       -3.89044179070312        2.32255702571201
H          -15.04023684652800       -3.79615234448403        3.32728588863848
H          -15.43379783799675       -4.94775198775266        2.03116418319296
H          -16.51722472723597       -3.56876690349173        2.35926047115967
C          -16.53012951958970       -1.31329556366085        0.73461431361132
H          -16.93780174859047       -1.44829371846170        1.74278662937344
H          -17.22059510130585       -1.77730596116527        0.01814066687781
H          -16.47468169067968       -0.23926223134080        0.52695886874825
O          -10.46010382574861       -1.22630955589625       -0.11334332377919
H          -10.63295829326086       -0.34672921951037       -0.45399586321655
H           -9.91536514070508       -1.40346804784443        0.63016324018119
C          -14.65704628257968       -6.30023869158817       -3.85832149284484
H          -14.22944818443915       -7.24816454440666       -4.20666601226314
H          -15.28236300638724       -5.88368035860835       -4.65704810976796
H          -15.27832113311287       -6.49700147233691       -2.97954172168005
N          -12.62576686354854       -4.93013583410390       -4.41050037489495
H          -12.55204327642342       -5.26314049346247       -5.35499306744820
C          -13.57676721756590       -5.33210045751125       -3.50767522573539
C          -11.84057974315897       -4.01270215309816       -3.83275101413123
H          -11.00135289744111       -3.54246597917432       -4.31999137057599
N          -12.25615286005284       -3.78913194116353       -2.60369871726978
C          -13.34289328612303       -4.59280831808969       -2.38491867457515
H          -13.87058919754416       -4.56107396629248       -1.44876369605338
78
 energy: -116.040524556514 gnorm: 0.044372696085 xtb: 6.7.1 (edcfbbe)
Fe         -11.37993135717654       -2.51819864361361       -1.28400701522717
N          -11.96120163130617       -0.82715374091639       -2.22628181275718
N           -9.68205430249158       -2.53233742787958       -2.39647522073799
N          -10.72653716137358       -4.08259894900420       -0.22138140305807
N          -13.03091733196334       -2.42013713686517       -0.11013077494075
C          -13.10048231516268       -0.11498011611812       -1.99068306807339
C          -13.11404641026169        1.08041253676254       -2.79546364670663
C          -11.96103909709190        1.07309583024074       -3.53088292125878
C          -11.25060015079711       -0.11931742547630       -3.15410528841943
C           -9.31915449863905       -1.64078330983474       -3.35868328533745
C           -8.12230242261500       -2.07018174151383       -4.03070679030148
C           -7.76331027934897       -3.26994130948558       -3.45482281744816
C           -8.74671708150123       -3.51543178403320       -2.41237207754496
C           -9.59419991333007       -4.79267237505631       -0.46695322073769
C           -9.40660150904115       -5.81723583481498        0.52385996405999
C          -10.47793447369654       -5.72560857407222        1.38193314969773
C          -11.29848910845183       -4.64057291758470        0.88090362030582
C          -13.37126062661263       -3.29552017251186        0.87264664845494
C          -14.71690838183317       -3.04398745736135        1.33110006477364
C          -15.16519768115807       -1.95857410268174        0.63436910953273
C          -14.08809420941604       -1.57486578304809       -0.25444909920990
C          -14.10677182459446       -0.48599117189336       -1.10906090524839
H          -14.99101303112163        0.13488262237460       -1.08535644211256
C          -10.01992741932774       -0.48694115973745       -3.67208211263785
H           -9.57571871679353        0.17550390439100       -4.40087294798786
C           -8.73009225352559       -4.58251935267899       -1.53468882456406
H           -7.95579979495509       -5.32215399837922       -1.67785037313021
C          -12.53949202687590       -4.28091435361865        1.38390372577622
H          -12.90697302516785       -4.82565306258848        2.24345265540200
C          -11.49573997543214        2.08128857507097       -4.52894017804252
H          -12.23087544995108        2.87401158308082       -4.63336665935227
H          -11.34739586149487        1.62530176637413       -5.50797054963031
H          -10.54851914665054        2.52669713008906       -4.22178828059622
C          -14.16356421150095        2.13945166883747       -2.76165992908942
H          -14.67480270088007        2.14014751503031       -1.80267756333172
H          -14.90734219847179        1.98733995611128       -3.54354729904690
H          -13.71171481311953        3.11823305002556       -2.90554164691117
C           -7.42328424977120       -1.27683078116363       -5.08124654089715
H           -7.41899263092175       -0.22112632442473       -4.81200341545954
H           -7.92332444403237       -1.37127877910245       -6.04659923962155
H           -6.39373684863505       -1.60502240166644       -5.19113886428204
C           -6.62817911401075       -4.11156648406135       -3.74703869401454
H           -6.25480956208818       -4.69362224613710       -2.90981294400318
C           -6.03083575060193       -4.23100599007111       -4.91494320892168
H           -6.37506115415846       -3.71567140138006       -5.79511560084423
H           -5.17204280498589       -4.86732067992187       -5.05081346286955
C           -8.20563031054086       -6.69670291426320        0.61501135217169
H           -7.30036755089599       -6.13104307522721        0.39379188780535
H           -8.26758240611615       -7.51677753066960       -0.10166006045607
H           -8.11359327316445       -7.11694570195656        1.61311836037098
C          -10.76472998408664       -6.47557576459151        2.58634811508323
H          -11.17710097865097       -5.88622732282000        3.40204900115276
C          -10.58339765609546       -7.76459056061653        2.76844508718130
H          -10.21053032248844       -8.41151557905537        1.99216991476115
H          -10.81502237288159       -8.24019677025748        3.70797348965725
C          -15.46289798202378       -3.87918742725036        2.31866027210959
H          -15.03510104137750       -3.79149576245623        3.31752570690574
H          -15.42881544437653       -4.93050576605721        2.03276582192577
H          -16.50430265667095       -3.57268262899659        2.36290843971368
C          -16.51123624671994       -1.31772245404961        0.73277840066511
H          -16.92477174328968       -1.44731287471974        1.73082638201204
H          -17.20436091564940       -1.76979267788703        0.02100480962979
H          -16.46313164460484       -0.25201864688173        0.52395270452612
O          -10.46834109106479       -1.20709483905301       -0.06265632340497
H          -10.58229618179094       -0.31226628978178       -0.40015522911456
H           -9.87632615385350       -1.37203995408381        0.67060989070554
C          -14.65409601443185       -6.29831846903867       -3.85749244523877
H          -14.22920905367998       -7.23979199191834       -4.20199793082895
H          -15.28504285767894       -5.89745896855475       -4.65027854981941
H          -15.27037788339607       -6.49195374692035       -2.98642456952820
N          -12.63216028812449       -4.93958135445636       -4.41650664829505
H          -12.54911954707445       -5.27864063277144       -5.36084674025758
C          -13.58991794814032       -5.32027161077941       -3.51488770927895
C          -11.85363072563522       -4.00714781107300       -3.82699228275189
H          -11.01888250855591       -3.54169643895816       -4.30798330343837
N          -12.25985006540619       -3.77286032721992       -2.60225210857501
C          -13.33778253473297       -4.58215333088985       -2.39229340563490
H          -13.85640566446457       -4.56607992643692       -1.45616714340362
78
 energy: -116.045895136590 gnorm: 0.031499823156 xtb: 6.7.1 (edcfbbe)
Fe         -11.37799540840177       -2.51244224071773       -1.28109592866928
N          -11.97435621070198       -0.84333057766801       -2.23792869764196
N           -9.70023385487933       -2.54238197734473       -2.40089082011676
N          -10.72677205603478       -4.07803232649844       -0.23632290353825
N          -13.03422059781721       -2.43671354835898       -0.13514491481325
C          -13.10968572528606       -0.12851811597387       -1.99912214661251
C          -13.11715428171035        1.08407114436590       -2.79160813903046
C          -11.96997569925725        1.07395886647255       -3.52463227661990
C          -11.26163814545794       -0.13125158402945       -3.15887850815215
C           -9.33358824512835       -1.64323619767982       -3.35760051833823
C           -8.12491234910842       -2.06689566903868       -4.02098946352602
C           -7.76679967645174       -3.26269419917513       -3.45041387109789
C           -8.75852289441158       -3.52188342103311       -2.41440729057623
C           -9.59256617295395       -4.78968102033404       -0.47690478233641
C           -9.41076558669011       -5.81522975598071        0.52266907813197
C          -10.47443853684185       -5.71394356913716        1.37756183957412
C          -11.29668487170657       -4.62875936320812        0.86898262701814
C          -13.36846596967880       -3.30633746694289        0.85562048781270
C          -14.71549000234476       -3.04607274495937        1.32153608982199
C          -15.16352497680107       -1.96697123585310        0.62478875265303
C          -14.09012083483235       -1.59011126884508       -0.27727956005123
C          -14.11412974063211       -0.49819010081321       -1.12357748244649
H          -14.99192946468845        0.13045997895708       -1.08904399419870
C          -10.03514259497198       -0.49490308238094       -3.68068507506746
H           -9.59982591522459        0.16244486710593       -4.41896188640962
C           -8.72178198100410       -4.58564431445720       -1.53536977937268
H           -7.92556273558619       -5.30756823732103       -1.65717147048568
C          -12.53954509265849       -4.28735076152457        1.37178870111586
H          -12.91013771987164       -4.84579032485480        2.22058201307447
C          -11.49926840664748        2.07791457768980       -4.51955555722308
H          -12.22795670981714        2.87524411159014       -4.63057464020245
H          -11.35202349712521        1.61583392110264       -5.49459407218716
H          -10.54986083477553        2.51727431944346       -4.21467298199629
C          -14.16756880344683        2.13823348001274       -2.76237308849109
H          -14.68200722805702        2.14523029849801       -1.80619335642688
H          -14.90762840851977        1.97906869726085       -3.54577827757697
H          -13.72370003298291        3.11944367164428       -2.91441463880067
C           -7.42437507885206       -1.27819344475267       -5.07059175866215
H           -7.42295196776289       -0.22066439927377       -4.81231068780823
H           -7.91791694295214       -1.38262673017384       -6.03760932785165
H           -6.39490342826888       -1.60614998415348       -5.17468872218622
C           -6.62875888873476       -4.10774567438608       -3.74189042168378
H           -6.26205171333072       -4.68954615336934       -2.90397766684383
C           -6.02998863289425       -4.23314196826604       -4.91833468114492
H           -6.37988547065401       -3.73264262519070       -5.80355790569528
H           -5.17398473228838       -4.87159709397386       -5.05292973554856
C           -8.21897369688254       -6.70003263062022        0.61801069933286
H           -7.31205401468144       -6.13780125561643        0.40151101638543
H           -8.27989261036262       -7.52125473126177       -0.09615967609612
H           -8.13590980895505       -7.12047176425799        1.61606448454308
C          -10.76661366577388       -6.46581596951660        2.58559960977782
H          -11.19280630332771       -5.87866174644514        3.39322423949015
C          -10.56709136354269       -7.76295853039440        2.76475310525610
H          -10.19710289994697       -8.40504118179740        1.98507287066989
H          -10.80554377900567       -8.24743834434985        3.69703101562674
C          -15.45155623935869       -3.87271583713540        2.31994127836261
H          -15.01654235284671       -3.78097035726691        3.31412768565971
H          -15.41896446614528       -4.92378175155235        2.03735540810657
H          -16.49325365911585       -3.57020358845147        2.37158085223748
C          -16.49952331395805       -1.31667933058846        0.72611527477316
H          -16.91292807754103       -1.44424256456742        1.72355269877174
H          -17.19553851781689       -1.76168514626351        0.01383187654695
H          -16.44349989838805       -0.25259889573333        0.51706820187730
O          -10.48949334549978       -1.18567439335864        0.01702796589917
H          -10.50382586109007       -0.28110264888697       -0.34485553832704
H           -9.82433665266666       -1.34993950612122        0.70274496247144
C          -14.65312349500325       -6.29625725130731       -3.85347728475864
H          -14.22126027330026       -7.23511209579907       -4.19384789852433
H          -15.29254783142417       -5.91012227533794       -4.64662450977659
H          -15.26557766753134       -6.48965594637416       -2.98107673637729
N          -12.63812820420613       -4.93509890952693       -4.42077354800340
H          -12.54740650355250       -5.28384486625672       -5.36180893658149
C          -13.59712117323783       -5.30830869754124       -3.51778195532157
C          -11.86302993660747       -3.99661882763027       -3.82959208524546
H          -11.02939623593654       -3.53221321044303       -4.30914446465965
N          -12.26481169280137       -3.75756599600834       -2.60541458115433
C          -13.33963764512244       -4.57015486442484       -2.39646583408967
H          -13.85071069612739       -4.56791364163830       -1.45704275664480
78
 energy: -116.048627245102 gnorm: 0.054724073589 xtb: 6.7.1 (edcfbbe)
Fe         -11.38214905928513       -2.51067099593011       -1.28447000644192
N          -11.98033613655047       -0.85025186027012       -2.23757080603867
N           -9.70819847663112       -2.54280522401169       -2.39227804795986
N          -10.72393342678039       -4.07204763884339       -0.24871234426508
N          -13.03775085593962       -2.45628456314964       -0.16296412512196
C          -13.11439152434149       -0.13829860324079       -2.00176381349320
C          -13.12123209807162        1.08354705004606       -2.78660873833265
C          -11.97748299283468        1.07230927438232       -3.51751787696585
C          -11.27205860106795       -0.14163886166969       -3.15917209437535
C           -9.34655102716246       -1.64622497584046       -3.35300382795608
C           -8.13128300791968       -2.06405473387938       -4.01103672401144
C           -7.77366080792558       -3.25655937878254       -3.44402191693437
C           -8.76348794957618       -3.52008718116579       -2.40841018180362
C           -9.58891749335310       -4.78575460680123       -0.48314806775817
C           -9.41529787395391       -5.81372801456228        0.52032332794060
C          -10.47667857439247       -5.70379659476060        1.37044818484773
C          -11.29653548149508       -4.61989215212869        0.85268719988209
C          -13.36789249691484       -3.31996073030812        0.83275570251942
C          -14.71195428104894       -3.05167544744032        1.30894636272551
C          -15.16027399340887       -1.97787729018436        0.61054493434865
C          -14.09113662001450       -1.60896470842442       -0.30056198057517
C          -14.12303383373332       -0.51099740136412       -1.13652092079429
H          -14.99813335757598        0.12015540956496       -1.09652853873613
C          -10.05179646901257       -0.50465506491331       -3.69055451219693
H           -9.62743084872029        0.14417962387427       -4.44272309817452
C           -8.70677775205965       -4.58190744338688       -1.52847362492976
H           -7.89563533492720       -5.28796264683519       -1.63608862084868
C          -12.54334463080776       -4.29828578254103        1.35288216100249
H          -12.91356916332458       -4.86903844094640        2.19210534092919
C          -11.49895606322025        2.07280852836779       -4.51135327370428
H          -12.22282652325925        2.87524949204557       -4.62714064568748
H          -11.35381843347625        1.60321538414331       -5.48386728541716
H          -10.54731414148037        2.50704042647849       -4.20480450468845
C          -14.17708333839902        2.13392256807198       -2.76362575025267
H          -14.69244737560014        2.15063695933235       -1.80710415121478
H          -14.91571936631387        1.96050169096206       -3.54740999274591
H          -13.73916792450989        3.11746735987800       -2.92886048384947
C           -7.42688560788146       -1.27859033744010       -5.06043141519000
H           -7.43061438203270       -0.21773256828136       -4.81357240928889
H           -7.91279953019888       -1.39764395484125       -6.03065587271317
H           -6.39500306629273       -1.60783371461122       -5.15148697374510
C           -6.63798971873215       -4.10715249064283       -3.73520825724449
H           -6.26181881205324       -4.67813969675696       -2.89684570558668
C           -6.04345763004342       -4.24393393258533       -4.91954047932502
H           -6.38962479430821       -3.74106384374926       -5.80379340340103
H           -5.18288905780500       -4.87878187348363       -5.04500984809118
C           -8.23105110382705       -6.70751396151673        0.62105941393685
H           -7.31781175676573       -6.15158965030479        0.41318857241031
H           -8.29487594410442       -7.52869642940199       -0.09358679575374
H           -8.16353211646580       -7.12897024382470        1.62134080515185
C          -10.77780237005244       -6.45520851683779        2.57739104844373
H          -11.21338769425128       -5.87631276287311        3.38232056764643
C          -10.56279609787517       -7.75652160659388        2.75188469600411
H          -10.16480987490742       -8.38348041264663        1.97395865066089
H          -10.78843855864391       -8.24374644608355        3.68574505799337
C          -15.43534704285686       -3.86808419067642        2.32423749932882
H          -14.98607184357918       -3.76560737752571        3.31173828509836
H          -15.40513016098232       -4.92183884872866        2.04876796638741
H          -16.47757011339626       -3.56508433179121        2.38691292177372
C          -16.48840912405300       -1.31286275428461        0.71505931437327
H          -16.90199013080856       -1.44026191693231        1.71320468335637
H          -17.18947542762571       -1.74649327421775       -0.00058859512165
H          -16.41674370605998       -0.24802482916455        0.51030995009481
O          -10.52701340880848       -1.15576381312929        0.12131156139964
H          -10.40873467103064       -0.25522161340591       -0.27743410117291
H           -9.74294798485476       -1.31683325874533        0.71368555220041
C          -14.65411560726210       -6.29671060415138       -3.84744610462795