78
 energy: -116.009730654067 gnorm: 0.186887336144 xtb: 6.7.1 (edcfbbe)
Fe          14.03400000000000      -32.08800000000000       -1.85300000000000
N           15.21100000000000      -33.63200000000000       -1.29000000000000
N           12.74300000000000      -32.55400000000000       -0.35700000000000
N           12.78400000000000      -30.62800000000000       -2.46000000000000
N           15.26600000000000      -31.69300000000000       -3.35400000000000
C           16.42000000000000      -34.00800000000000       -1.82800000000000
C           16.99800000000000      -35.10000000000000       -1.07500000000000
C           16.12800000000000      -35.39300000000000       -0.03400000000000
C           15.04000000000000      -34.47200000000000       -0.19500000000000
C           12.92800000000000      -33.52000000000000        0.62900000000000
C           11.81500000000000      -33.46500000000000        1.55300000000000
C           10.95800000000000      -32.47000000000000        1.14200000000000
C           11.57700000000000      -31.90500000000000       -0.03200000000000
C           11.53900000000000      -30.31500000000000       -1.94200000000000
C           10.86600000000000      -29.40600000000000       -2.79900000000000
C           11.69700000000000      -29.14400000000000       -3.88100000000000
C           12.92200000000000      -29.88100000000000       -3.63500000000000
C           15.08600000000000      -30.76700000000000       -4.35500000000000
C           16.17500000000000      -30.82700000000000       -5.30000000000000
C           16.97700000000000      -31.85300000000000       -4.90700000000000
C           16.39300000000000      -32.37900000000000       -3.67400000000000
C           16.96700000000000      -33.41000000000000       -2.94700000000000
H           17.93400000000000      -33.78100000000000       -3.28800000000000
C           13.95800000000000      -34.43099999999999        0.67100000000000
H           13.92000000000000      -35.18800000000000        1.45500000000000
C           11.02300000000000      -30.85800000000000       -0.77400000000000
H           10.09500000000000      -30.42600000000000       -0.39900000000000
C           14.02100000000000      -29.92400000000000       -4.46500000000000
H           14.04000000000000      -29.21300000000000       -5.29100000000000
C           16.28800000000000      -36.41200000000000        1.02800000000000
H           17.24900000000000      -36.95000000000000        0.88400000000000
H           15.45400000000000      -37.14400000000000        0.97400000000000
H           16.29700000000000      -35.91899999999999        2.02300000000000
C           18.32900000000000      -35.71299999999999       -1.30900000000000
H           18.96500000000000      -35.00899999999999       -1.88700000000000
H           18.21300000000000      -36.65300000000000       -1.89000000000000
H           18.82000000000000      -35.92700000000000       -0.33600000000000
C           11.67800000000000      -34.37300000000000        2.74600000000000
H           12.67100000000000      -34.50899999999999        3.22500000000000
H           11.29600000000000      -35.36400000000000        2.42100000000000
H           10.98200000000000      -33.92100000000000        3.48400000000000
C            9.71900000000000      -32.02200000000000        1.72800000000000
H            9.50100000000000      -30.94400000000000        1.71800000000000
C            8.78700000000000      -32.81000000000000        2.29600000000000
H            8.93100000000000      -33.89899999999999        2.34500000000000
H            7.86900000000000      -32.37400000000000        2.71800000000000
C            9.48300000000000      -28.83200000000000       -2.55200000000000
H            9.23000000000000      -28.92599999999999       -1.47400000000000
H            8.73200000000000      -29.39200000000000       -3.14900000000000
H            9.46700000000000      -27.75800000000000       -2.83400000000000
C           11.49200000000000      -28.31900000000000       -5.07600000000000
H           12.32800000000000      -28.24500000000000       -5.78500000000000
C           10.41400000000000      -27.64700000000000       -5.40800000000000
H            9.52600000000000      -27.66100000000000       -4.76000000000000
H           10.38600000000000      -27.06100000000000       -6.33900000000000
C           16.34400000000000      -29.96200000000000       -6.53300000000000
H           16.21600000000000      -28.89400000000000       -6.25700000000000
H           15.57700000000000      -30.23300000000000       -7.29000000000000
H           17.36100000000000      -30.10500000000000       -6.95500000000000
C           18.13100000000000      -32.40100000000000       -5.67000000000000
H           19.05600000000000      -31.85700000000000       -5.38400000000000
H           17.95700000000000      -32.26900000000000       -6.75900000000000
H           18.25900000000000      -33.47900000000000       -5.43400000000000
O           12.95000000000000      -33.28300000000000       -3.16700000000000
H           12.20100000000000      -32.75600000000000       -3.44600000000000
H           13.13400000000000      -34.11400000000000       -3.42500000000000
C           16.15500000000000      -27.65300000000000        0.99600000000000
H           17.11500000000000      -27.31700000000000        0.54900000000000
H           16.25200000000000      -27.64800000000000        2.10300000000000
H           15.34800000000000      -26.95600000000000        0.68300000000000
N           16.63800000000000      -30.11000000000000        0.73900000000000
H           17.45500000000000      -30.08200000000000        1.31300000000000
C           15.84100000000000      -29.03400000000000        0.52300000000000
C           16.19700000000000      -31.18400000000000        0.09900000000000
H           16.67300000000000      -32.16300000000000        0.13100000000000
N           15.10000000000000      -30.84800000000000       -0.56600000000000
C           14.88800000000000      -29.51000000000000       -0.32400000000000
H           14.05300000000000      -29.00100000000000       -0.79000000000000
78
 energy: -116.037169302294 gnorm: 0.066971304125 xtb: 6.7.1 (edcfbbe)
Fe          14.04295662632926      -32.08008134401601       -1.83200909673715
N           15.20996719430714      -33.63675172627743       -1.28104330048574
N           12.74781964847529      -32.53827186530042       -0.34500107166991
N           12.78047849077396      -30.63736492939911       -2.47532539265321
N           15.26394324787589      -31.70166873682129       -3.35828428780881
C           16.41079504133804      -34.00411378715224       -1.82404645666161
C           16.99979423632707      -35.08310040056463       -1.06885416100743
C           16.12790837296557      -35.37681277721013       -0.05157095961805
C           15.02692294678256      -34.46464873974907       -0.20109875411161
C           12.90832025256229      -33.51172050195563        0.61557130368189
C           11.80890316063952      -33.47047613005675        1.54862357748271
C           10.96645102901166      -32.46712888084905        1.14192810533950
C           11.58816314475892      -31.89240663358622       -0.03550346637951
C           11.55077262885021      -30.31816268930897       -1.95129987987758
C           10.86891439401209      -29.39047806151807       -2.79960420987268
C           11.70064126276111      -29.13056005448505       -3.87199326566132
C           12.90634936497158      -29.89547652321375       -3.62917297723691
C           15.09533133814432      -30.76035224401038       -4.33865696212438
C           16.17063306598829      -30.83219529089570       -5.30007898241042
C           16.97005502013889      -31.85887125329969       -4.90840673806008
C           16.39901921081880      -32.37634305973745       -3.67372234548104
C           16.96499590786869      -33.40913190618461       -2.94599080162499
H           17.92062204100641      -33.78688165435153       -3.29162115912576
C           13.94612370104773      -34.42149754432092        0.66422038767273
H           13.92065669097996      -35.16689930724814        1.45221475340320
C           11.03570301391015      -30.85846406611013       -0.77824418794024
H           10.10147688296613      -30.44572206731862       -0.41357586911533
C           14.01682176327178      -29.91676834971600       -4.45337137078416
H           14.02903488312988      -29.22350373473393       -5.28712617569444
C           16.28539254663593      -36.40214580597830        1.01543759127133
H           17.22788793687987      -36.94389044145976        0.89035728145142
H           15.46871019304515      -37.13195913121636        0.98223827928563
H           16.28822543772987      -35.93545213190121        2.00765273928380
C           18.32881291521769      -35.70699758341460       -1.31436990338969
H           18.97216424628856      -35.02899715617484       -1.88168659882836
H           18.22728677193765      -36.64017737672578       -1.88122647046116
H           18.82251742520258      -35.93283396690398       -0.36371850217629
C           11.67996798732363      -34.36657914402843        2.73985538422119
H           12.65338407246235      -34.51120390602572        3.21995948716669
H           11.29964980739938      -35.34879487151259        2.43729196210986
H           10.99227170626746      -33.93254168875709        3.47112020496658
C            9.72294305286579      -32.02364794054537        1.73242560813079
H            9.51266186361967      -30.95452682308718        1.70137190375301
C            8.80223093069152      -32.80648183357638        2.29758573336027
H            8.92104759592336      -33.88167095175613        2.33652315465046
H            7.89202128118135      -32.38930441335661        2.71220833798452
C            9.49652807967465      -28.83693507461304       -2.54482959551496
H            9.22870536037868      -28.92954689759538       -1.48936633981179
H            8.74574501844888      -29.37349668773797       -3.13711524473340
H            9.46313964610925      -27.77643521359111       -2.80595779158249
C           11.49859137139475      -28.31704938337362       -5.05911014049574
H           12.33623843985748      -28.26500182777408       -5.75350785775970
C           10.40720103691141      -27.64453266563402       -5.40865332250803
H            9.51488684402456      -27.65282793719634       -4.80220195199249
H           10.37758857974405      -27.06706617274812       -6.32433684688482
C           16.33497347453617      -29.96708681154302       -6.51656477679489
H           16.21455005599922      -28.90966196437047       -6.26098449644626
H           15.58876810016446      -30.22358900998096       -7.27688838023418
H           17.33137441846909      -30.10110006501484       -6.94606458074195
C           18.13629107858689      -32.40276485536985       -5.65792648983134
H           19.05782038659327      -31.87272925784283       -5.38957558711999
H           17.97408489237996      -32.28247647246297       -6.73348204814726
H           18.27124705254425      -33.46614936529433       -5.44449611858393
O           12.93535003930463      -33.28060830532235       -3.16269405631048
H           12.18014136753161      -32.77811034429055       -3.47028535265503
H           13.12073982515196      -34.15754649285726       -3.44966475188759
C           16.15549838085585      -27.65880643574609        0.99558338685032
H           17.10025015713013      -27.31152347103649        0.56268341295931
H           16.24891324539487      -27.64016401980125        2.08670803023148
H           15.36248181483592      -26.97223163138903        0.69356787580101
N           16.65613124158835      -30.10050363907062        0.75230509422277
H           17.47569688995490      -30.07651114793692        1.33432962091023
C           15.85077431539380      -29.02878934724625        0.50488840378955
C           16.18988942571688      -31.17210205614587        0.09846590365160
H           16.65130577818059      -32.14295224478512        0.12898152720549
N           15.10410785840099      -30.84222808066004       -0.57444491956105
C           14.88615787715036      -29.51542589072762       -0.33255756125866
H           14.05107761490712      -29.01498780503003       -0.78478749298336
78
 energy: -116.044127386674 gnorm: 0.022869115786 xtb: 6.7.1 (edcfbbe)
Fe          14.04392681014615      -32.07907219625517       -1.82282573550390
N           15.21285408506784      -33.63301529548428       -1.27152976548405
N           12.75995241406945      -32.52248234819153       -0.33236393579275
N           12.78045515528238      -30.63515427543586       -2.48050211444962
N           15.27051655759926      -31.70053858282632       -3.35379577812446
C           16.40673695976695      -33.99409131274554       -1.81861798200815
C           17.00440220147055      -35.06871087817993       -1.06341963636916
C           16.13068223175586      -35.36465263624902       -0.06106700054831
C           15.02248452643354      -34.45281923852550       -0.20246838877962
C           12.90420920510579      -33.49753821817898        0.60931927267992
C           11.80573631264633      -33.47433482858284        1.54174781612651
C           10.97687385223228      -32.46167692634631        1.13926992714818
C           11.60393676176998      -31.87699230393864       -0.03577798617205
C           11.56102029168570      -30.31832998217891       -1.95328204705558
C           10.87202978699723      -29.37597433712297       -2.79232561411112
C           11.70364724394704      -29.12013371526577       -3.86079383262121
C           12.90030586626480      -29.90383692654638       -3.62047319978974
C           15.10097827336964      -30.75930413239949       -4.32457968751188
C           16.16911850291061      -30.83404294147915       -5.29578929303944
C           16.96836264776749      -31.86261770984676       -4.90712477438382
C           16.40454918013560      -32.37598896105036       -3.67441318298803
C           16.96235744301053      -33.41109688233793       -2.94671422570101
H           17.90611061436802      -33.80190415307511       -3.29794643852230
C           13.94502320814293      -34.40752974634677        0.66379202455377
H           13.92293988841753      -35.14654845680540        1.45181634010748
C           11.04479088261364      -30.85715182456592       -0.78071371709504
H           10.09916777863178      -30.46649020521325       -0.43150825618418
C           14.01393067523967      -29.91652822309237       -4.44505314156943
H           14.02375409578449      -29.23689842156050       -5.28446596873943
C           16.27956221653773      -36.39529623321648        1.00765064660715
H           17.21327891516559      -36.93723425407175        0.88677928125287
H           15.46467601452941      -37.11658549415753        0.97487026881098
H           16.27669331134183      -35.93508538269740        1.99579785262215
C           18.33077893490380      -35.70146188428217       -1.32182797914189
H           18.97707261894788      -35.03565729174363       -1.88494411062679
H           18.22316817204348      -36.62863403106448       -1.88429632311271
H           18.82430618434052      -35.93814963560837       -0.38147903058716
C           11.67834827930549      -34.36337164441073        2.73083659189873
H           12.64429870137694      -34.50692434374982        3.20992767721695
H           11.29883679009922      -35.34315054719882        2.44135551366648
H           10.99370556124890      -33.93136927997544        3.45504814051969
C            9.72795270726612      -32.02106391587819        1.72526029941825
H            9.53195682510245      -30.95541888923199        1.68424397768130
C            8.81401022677457      -32.80468987956824        2.28791770618912
H            8.92334625553184      -33.87248423286500        2.33315493375886
H            7.91322923875749      -32.39910887733998        2.71395348670991
C            9.50869522133843      -28.83451111431232       -2.53054486813634
H            9.23486211315591      -28.94324971529057       -1.48589784771667
H            8.76434917773632      -29.35900826210559       -3.13065335388706
H            9.46768013561858      -27.77804412438961       -2.77915415539267
C           11.50112794588654      -28.31585892260649       -5.04127983186236
H           12.34800133402840      -28.26589570848537       -5.71454016511930
C           10.40358433923731      -27.65093087387353       -5.40742385030054
H            9.50143882409541      -27.64988767725831       -4.83044020678960
H           10.37997966860535      -27.07913784511815       -6.31748588388956
C           16.32354766398186      -29.96885149230190       -6.50153390916757
H           16.20298032838096      -28.91854081453912       -6.24720415078436
H           15.58288134217096      -30.22046476450446       -7.25998372082431
H           17.31093939304392      -30.10012800307948       -6.93473348555712
C           18.14503442026062      -32.40632489127641       -5.64505543502501
H           19.06116334194279      -31.88128559453661       -5.37604980036146
H           17.99308053174455      -32.28986743425423       -6.71563020480162
H           18.28202996800074      -33.46294022836335       -5.43879612725699
O           12.90234738738123      -33.31466460527502       -3.14774600358902
H           12.15555939937106      -32.83840394677667       -3.52410289768536
H           13.09979952504731      -34.19182523562326       -3.47988633749874
C           16.15068809052453      -27.66163234334681        0.99278964289041
H           17.09019122952154      -27.30289840816512        0.57373854046406
H           16.23808156673301      -27.64936137468872        2.07715482371617
H           15.36086856499198      -26.98170897033763        0.69827332018556
N           16.66943769669215      -30.09278204967521        0.75507379612146
H           17.48757471574115      -30.07166647222766        1.34356953181297
C           15.85727273814189      -29.02507314239599        0.48391874508157
C           16.18367693319631      -31.16407046708907        0.09425557046188
H           16.63367340495578      -32.13218961161800        0.12802150577784
N           15.10533678669801      -30.84238464823578       -0.58259478620143
C           14.88857149881063      -29.51888169999421       -0.34765660607919
H           14.05247030705851      -29.02038808136767       -0.78904445954094
78
 energy: -116.046856891847 gnorm: 0.030575882937 xtb: 6.7.1 (edcfbbe)
Fe          14.04170647831654      -32.08321585548909       -1.81793802233600
N           15.21606225710764      -33.62742291353844       -1.26627179592752
N           12.77319796217680      -32.50984360010989       -0.32206125854584
N           12.77977792310984      -30.63651505615802       -2.48080848995243
N           15.26921591486712      -31.70815107351946       -3.35367801113900
C           16.40618249215463      -33.98618394823433       -1.81558714906848
C           17.00872335522866      -35.06035276924422       -1.06036495685933
C           16.13457938487816      -35.35775651355259       -0.06235291928136
C           15.02452855941252      -34.44339875380962       -0.20011139270845
C           12.90928938789122      -33.48726944015444        0.60865852670472
C           11.80685463301158      -33.47455788503382        1.53730289653280
C           10.98486163382870      -32.45690041199988        1.13768649241058
C           11.61526575800262      -31.86708968457501       -0.03390884881514
C           11.56735510376918      -30.31771481089236       -1.94918196723763
C           10.87666852971883      -29.36639103257568       -2.78176367340874
C           11.70783024710890      -29.11109537937113       -3.84918865972434
C           12.90139055423137      -29.90624421765713       -3.61298630991527
C           15.10011290161423      -30.76517935289426       -4.31744169923294
C           16.16656359670758      -30.83737232425327       -5.29156834765542
C           16.96724281699527      -31.86671521888655       -4.90595121477268
C           16.40526113618506      -32.38122672749815       -3.67702182920798
C           16.96045078151791      -33.41575384489392       -2.94874460331487
H           17.89584432209414      -33.81920057157760       -3.30463677239469
C           13.95031704765942      -34.39772153679297        0.66769752222763
H           13.92787555014308      -35.13281679704843        1.45691542913149
C           11.04790479936321      -30.85654422901291       -0.78041913956722
H           10.09226000248690      -30.48295490243921       -0.44388289582415
C           14.01279966908613      -29.91960110666334       -4.44063680280940
H           14.02234355322831      -29.24877600402357       -5.28494961736882
C           16.27278832833709      -36.39183214364245        1.00539562101600
H           17.20309188880242      -36.93750381211664        0.88621925679858
H           15.45232322936344      -37.10487995717158        0.96496611545844
H           16.26558272343564      -35.93177324910328        1.99238234321071
C           18.33197917770739      -35.69830991387038       -1.32982749262928
H           18.98084784299762      -35.03553286007222       -1.89194489342265
H           18.21266410051282      -36.62080588801614       -1.89623221093567
H           18.82805483862755      -35.94531363678936       -0.39399518193476
C           11.67686919919830      -34.36184787803688        2.72456158347360
H           12.64163355800382      -34.50414173948294        3.20487297952561
H           11.29664657143561      -35.34223342771515        2.43975718470109
H           10.99076907502796      -33.92647159481070        3.44465137263762
C            9.73616031843386      -32.01435308532857        1.72227876906119
H            9.54627030456625      -30.94947701330447        1.66792641893762
C            8.82849890937312      -32.79960934771398        2.29039241790473
H            8.92900115479929      -33.86852910154971        2.32306594206494
H            7.92301825276148      -32.40050275582966        2.71111324143985
C            9.51773970783797      -28.82738811408942       -2.51286192353087
H            9.23852240498016      -28.95863965408480       -1.47244853428322
H            8.77587049847194      -29.33880972811540       -3.12751581248694
H            9.47625337599029      -27.76605478892433       -2.74095150848607
C           11.50660785751127      -28.30526621108014       -5.02410112156376
H           12.36269179071074      -28.25131677791331       -5.68290702027135
C           10.40568681519963      -27.65323950419325       -5.40614094517849
H            9.48372740744460      -27.66421991277505       -4.85883070465291
H           10.39011725272401      -27.08888139004632       -6.32092118587097
C           16.31216751697137      -29.96690834381680       -6.49078271432661
H           16.18892416919100      -28.91922221936209       -6.22969482641125
H           15.56818118184531      -30.21614736184209       -7.24639660160813
H           17.29680221963869      -30.09437356790795       -6.93009649728583
C           18.15478516474203      -32.40753076780392       -5.63186933393564
H           19.06643184793287      -31.88263881721364       -5.35048506373550
H           18.01650586988578      -32.29111764224788       -6.70391321260684
H           18.29156100454981      -33.46383088980387       -5.42590413476634
O           12.84715010576955      -33.37406951578645       -3.10401452710000
H           12.15195774368811      -32.89769162503207       -3.60070209122056
H           13.09431991689300      -34.21609416718253       -3.52725980825117
C           16.14200484962776      -27.66047464642945        0.98889553163056
H           17.08149909110876      -27.28830571607733        0.58206466517987
H           16.22167399817754      -27.66301253395034        2.07347229821783
H           15.34840158551952      -26.98369450811544        0.69895299918144
N           16.67656034374109      -30.08596747435837        0.74833172427842
H           17.49165396736020      -30.06556152406663        1.34110931190028
C           15.86059178471485      -29.02091096892752        0.46505511374794
C           16.18209331161071      -31.15915994087656        0.08867491296731
H           16.62565096365039      -32.12912345530467        0.12977723023105
N           15.10865847430555      -30.84255359399366       -0.59227191650975
C           14.89289032288554      -29.51759147909524       -0.36444773834578
H           14.05665163004096      -29.01711979312869       -0.80220452215342
78
 energy: -116.048391822716 gnorm: 0.030231671635 xtb: 6.7.1 (edcfbbe)
Fe          14.03799331940276      -32.09255449074119       -1.81822388920492
N           15.21834974221268      -33.62304841625576       -1.26387106772501
N           12.78681171836093      -32.49982297446441       -0.31442837522447
N           12.77950347588810      -30.64162247476390       -2.47961983134502
N           15.26209712794320      -31.72344876969166       -3.35927928698010
C           16.40655523803398      -33.98322797359577       -1.81499670108674
C           17.01178620614176      -35.05742492874502       -1.05900490300999
C           16.13899743349963      -35.35410550760277       -0.05896342630481
C           15.02982627539803      -34.43706518103940       -0.19537041906328
C           12.91864247169969      -33.48023705753737        0.61181853289420
C           11.81025257991038      -33.47275536865697        1.53508598720416
C           10.99027586774753      -32.45404265679446        1.13535732777455
C           11.62478683208090      -31.86103205356825       -0.03083981569283
C           11.57112282410954      -30.31798132443470       -1.94419522358889
C           10.88230813926705      -29.36087801459522       -2.77208590294253
C           11.71224067324286      -29.10520738681175       -3.83988165733205
C           12.90489289129991      -29.90706317071098       -3.60899405643939
C           15.09501890728415      -30.77634079461883       -4.31779249674150
C           16.16427820480721      -30.84164442361997       -5.28909922512867
C           16.96745357972677      -31.87040260308261       -4.90567094212995
C           16.40281294350254      -32.39113773333151       -3.68229331344001
C           16.95847838139245      -33.42375355750697       -2.95264961027329
H           17.89015589212728      -33.83471045931883       -3.30943808417899
C           13.95856141712870      -34.39108939472013        0.67451586758390
H           13.93361456648290      -35.12446924658522        1.46491100408733
C           11.04913422105153      -30.85723506114720       -0.77925690016798
H           10.08662471327584      -30.49575443161490       -0.45095477440622
C           14.01133852616952      -29.92625957709304       -4.44115722420924
H           14.02289199715526      -29.25792237811186       -5.28688066177159
C           16.26666331908928      -36.39042163930200        1.00638610746207
H           17.19492579623650      -36.94237217659612        0.88935181884549
H           15.43888170099746      -37.09634472643911        0.95653248375196
H           16.25630862161852      -35.93038771268908        1.99428375443269
C           18.33180660147033      -35.69789838240101       -1.33760781482531
H           18.98263481477181      -35.03321123717006       -1.89824964682801
H           18.20256479723622      -36.61540963023391       -1.91257818571636
H           18.83150389282282      -35.95529420361532       -0.40488567030337
C           11.67516350698713      -34.36147766208218        2.72051161199050
H           12.63982799490884      -34.50420311733756        3.20421390277282
H           11.29399439455953      -35.34251813368599        2.43488031507360
H           10.98601036312463      -33.92278066172092        3.43818794876861
C            9.74078125874667      -32.00925157905944        1.71393611478030
H            9.55701412205729      -30.94312006915659        1.65919944453688
C            8.83404938125811      -32.79633587511123        2.28214320207596
H            8.94142188693445      -33.86543050110607        2.32163387976207
H            7.93105971254214      -32.39791281310104        2.71341069986771
C            9.52609706244027      -28.81634838524669       -2.49820032110785
H            9.24118532097968      -28.96864495263908       -1.46013331978553
H            8.78339387388107      -29.31244726912825       -3.12733200032914
H            9.49107275636080      -27.74852235743878       -2.70649678371619
C           11.51146005122752      -28.29518907616874       -5.01192558955254
H           12.38004271378868      -28.21902226471415       -5.65400180037294
C           10.40579473464869      -27.66208268542640       -5.40749616056969
H            9.47305106572861      -27.68268495384346       -4.87507954767852
H           10.40113685076947      -27.09103647473524       -6.32105592172254
C           16.30265781617354      -29.96239026661518       -6.48310417395338
H           16.17678223296901      -28.91609620330815       -6.21133093202775
H           15.55229765995363      -30.20863016305702       -7.23569112914841
H           17.28627786168956      -30.08455037067667       -6.92946654473695
C           18.16661281842719      -32.40492035567177       -5.61822454946679
H           19.07324524149428      -31.87878346652736       -5.31747852956685
H           18.04596840729630      -32.28492589416052       -6.69355855682773
H           18.30243443469127      -33.46326212090317       -5.41195779039573
O           12.81021185646850      -33.42407181256639       -3.08997885605043
H           12.14237421546220      -32.96019683768154       -3.62215102933262
H           13.08294834589275      -34.23201556844818       -3.57329334248914
C           16.12910006884515      -27.65752961391579        0.98488083341880