78
 energy: -116.058078202318 gnorm: 0.000040209547 xtb: 6.7.1 (edcfbbe)
Fe          14.01634851428247      -32.19671213182632       -1.87198774008043
N           15.23608840895397      -33.64460662140358       -1.25262782960743
N           12.79143592537799      -32.54741205621215       -0.33844807911399
N           12.76365293083528      -30.77120447194579       -2.55173644833721
N           15.21847071629173      -31.87075891879439       -3.45437997037961
C           16.38483347739409      -34.06406120820904       -1.84424239214152
C           16.98736985434514      -35.14205138105909       -1.08930899473682
C           16.17427630734107      -35.35934941446127       -0.02240788007124
C           15.08553479976803      -34.41282248943745       -0.14243994176444
C           12.97520864583583      -33.45354640289914        0.65722030635414
C           11.88285187977534      -33.41456626256515        1.59709083072550
C           11.01667456869786      -32.45789033241157        1.14069850989472
C           11.61662983672693      -31.92261900036776       -0.06803974380334
C           11.59120191754557      -30.37811443122230       -1.97875452280753
C           10.98404400003940      -29.31348523941554       -2.73323504261787
C           11.82492913282756      -29.05881763376938       -3.78537436923893
C           12.93657152794739      -29.97701539320886       -3.64065330551293
C           15.06060062893573      -30.92746388927699       -4.42303201771755
C           16.15984019463784      -30.96963435061783       -5.36030513393713
C           16.99052392337951      -31.95879348673641       -4.93180328050178
C           16.38747097560217      -32.50700919776310       -3.73891509767751
C           16.93425158170145      -33.53979942189756       -2.99983918849134
H           17.86230011601265      -33.96556048443996       -3.34994344783466
C           14.04426036232773      -34.32605127013510        0.75822976315895
H           14.05464583120876      -35.00687486734014        1.59559435481135
C           11.04281797723620      -30.92372078657152       -0.83030838265025
H           10.09064473343609      -30.53331778225511       -0.50502495888953
C           13.99929913118732      -30.04786861877732       -4.52249122811928
H           14.00366546297207      -29.36130299947627       -5.35491763279896
C           16.30737148080963      -36.35271424134916        1.08029369124514
H           17.20642928836352      -36.95146228638324        0.95612992939494
H           15.44804645903329      -37.02313868558175        1.09546808202887
H           16.36064561072104      -35.84935854788875        2.04600710235701
C           18.25143179585843      -35.83313140557805       -1.47209261548939
H           19.08146661511604      -35.12674645694349       -1.51004321784899
H           18.15353030039281      -36.29205543276595       -2.45608092096786
H           18.49837182659335      -36.61198045627413       -0.75494564649979
C           11.79319678980244      -34.22711904027467        2.84125089424212
H           12.77277260628053      -34.32945763105902        3.30586484710744
H           11.41571618984464      -35.22779570239390        2.62505146066726
H           11.11870237397544      -33.75141032691592        3.55041491584187
C            9.76871985085455      -32.00465625911125        1.71381258192128
H            9.54204538832834      -30.95366750959557        1.57417985746924
C            8.90146676042264      -32.76558150192388        2.37373923380303
H            9.04902364425107      -33.82366983547588        2.50061078121923
H            7.99446059369632      -32.35690539937040        2.78762846670085
C            9.72618553041916      -28.60848841055510       -2.36237280535210
H            9.66235973858789      -28.47499474161017       -1.28343654066127
H            8.85146394390811      -29.17670030016876       -2.68341412029611
H            9.69321055283923      -27.62976014688966       -2.83663921708380
C           11.69982715577053      -28.07549489283575       -4.83836661976047
H           12.63106608231901      -27.64977439635048       -5.19412405434194
C           10.55802971386858      -27.67710905010842       -5.38976629486114
H            9.60850535976673      -28.09938843246190       -5.11052421976200
H           10.53749650133159      -26.92785645947193       -6.16375324936961
C           16.29147909247459      -30.07295289416766       -6.54331207036408
H           16.32875295013987      -29.02912944655292       -6.23056865891223
H           15.44007537268508      -30.19383197176752       -7.21362925199580
H           17.19877240204695      -30.29625123826196       -7.09928025369293
C           18.27395931060632      -32.43622278715772       -5.52046080819243
H           19.09089136828221      -32.32067570473215       -4.80747346814005
H           18.52110843491043      -31.87381309537502       -6.41744991767843
H           18.20502490431146      -33.49152729978934       -5.78551150073691
O           12.86175295312984      -33.64908216942811       -3.21936826003921
H           12.10513946832330      -33.10230213042921       -3.45755501395747
H           13.45157089926232      -33.66380893311842       -3.98098183523002
C           15.48682036540833      -27.91898762750840        1.38516355269439
H           15.96291754941481      -27.06428547905641        0.90467684403086
H           16.01949117541015      -28.12902552022091        2.31255722995223
H           14.46121980755035      -27.65640914274833        1.62460761665885
N           16.66201142069788      -29.66620546135150        0.02949709929471
H           17.59378385105573      -29.35001599356575        0.24257878804476
C           15.50051584139822      -29.10278238002899        0.48909509731275
C           16.32634915457817      -30.71422337160613       -0.75620992765056
H           17.03505751065970      -31.34351219377817       -1.25386650871091
N           15.02391572316336      -30.84826053410589       -0.82197934527584
C           14.49654767594733      -29.85348637758737       -0.05199420580006
H           13.43785725276437      -29.74436015381576        0.05995534058582
