72
 energy: -105.863343165405 gnorm: 0.273167171329 xtb: 6.7.1 (edcfbbe)
Fe          30.32200000000000      -12.99100000000000      -15.06200000000000
N           31.21300000000000      -14.73800000000000      -15.77400000000000
N           31.80900000000000      -11.89800000000000      -15.96300000000000
N           29.74200000000000      -11.21800000000000      -14.11000000000000
N           29.22200000000000      -14.18300000000000      -13.70000000000000
C           30.82000000000000      -16.03600000000000      -15.44100000000000
C           31.59000000000000      -16.92000000000000      -16.29400000000000
C           32.39000000000000      -16.19300000000000      -17.07600000000000
C           32.13300000000000      -14.79000000000000      -16.78100000000000
C           32.59500000000000      -12.38700000000000      -16.94700000000000
C           33.37400000000000      -11.29300000000000      -17.52500000000000
C           32.90500000000000      -10.16300000000000      -16.97500000000000
C           31.88700000000000      -10.54200000000000      -16.02600000000000
C           30.13600000000000       -9.91400000000000      -14.42000000000000
C           29.25300000000000       -9.03500000000000      -13.74900000000000
C           28.41700000000000       -9.76800000000000      -12.93600000000000
C           28.77100000000000      -11.15900000000000      -13.11600000000000
C           28.37300000000000      -13.56700000000000      -12.78200000000000
C           27.59500000000000      -14.62600000000000      -12.13200000000000
C           28.09800000000000      -15.91200000000000      -12.71100000000000
C           29.15100000000000      -15.55100000000000      -13.69400000000000
C           29.88400000000000      -16.43800000000000      -14.49800000000000
H           29.70800000000000      -17.50600000000000      -14.37400000000000
C           32.80900000000000      -13.72800000000000      -17.30700000000000
H           33.56900000000000      -13.93500000000000      -18.06000000000000
C           31.14100000000000       -9.60900000000000      -15.30600000000000
H           31.37400000000000       -8.55500000000000      -15.45800000000000
C           28.16000000000000      -12.22200000000000      -12.50200000000000
H           27.43800000000000      -11.99000000000000      -11.71900000000000
C           33.36600000000000      -16.71200000000000      -18.17000000000000
H           33.18200000000000      -17.79300000000000      -18.34800000000000
H           34.41499999999999      -16.57600000000000      -17.83200000000000
H           33.19700000000000      -16.15700000000000      -19.11700000000000
C           31.50100000000000      -18.46900000000000      -16.20500000000000
H           30.59400000000000      -18.82000000000000      -16.74300000000000
H           31.43200000000000      -18.78000000000000      -15.14100000000000
H           32.39800000000000      -18.92400000000000      -16.67600000000000
C           34.41200000000000      -11.53200000000000      -18.61900000000000
H           33.89800000000000      -11.81000000000000      -19.56400000000000
H           35.08799999999999      -12.36100000000000      -18.32000000000000
H           35.00000000000000      -10.60400000000000      -18.78800000000000
C           33.30700000000000       -8.67900000000000      -17.14200000000000
H           32.89300000000000       -7.92300000000000      -16.45900000000000
C           34.14000000000000       -8.26600000000000      -18.08300000000000
H           34.45400000000000       -8.94600000000000      -18.88900000000000
H           34.53000000000000       -7.23700000000000      -18.07200000000000
C           29.32500000000000       -7.50300000000000      -13.89500000000000
H           28.68100000000000       -7.18000000000000      -14.74100000000000
H           30.37200000000000       -7.19400000000000      -14.10200000000000
H           28.96400000000000       -7.02000000000000      -12.96200000000000
C           27.34800000000000       -9.29900000000000      -11.93300000000000
H           27.18500000000000       -9.76100000000000      -10.95100000000000
C           26.62600000000000       -8.27800000000000      -12.35100000000000
H           26.80900000000000       -7.83300000000000      -13.34000000000000
H           25.83200000000000       -7.85900000000000      -11.71600000000000
C           26.53100000000000      -14.47200000000000      -10.99500000000000
H           25.70300000000000      -13.82100000000000      -11.34800000000000
H           27.00000000000000      -14.00600000000000      -10.10200000000000
H           26.11800000000000      -15.46900000000000      -10.73000000000000
C           27.65600000000000      -17.32700000000000      -12.43300000000000
H           26.63900000000000      -17.31700000000000      -11.98500000000000
H           28.35900000000000      -17.80700000000000      -11.71900000000000
H           27.62600000000000      -17.90400000000000      -13.38200000000000
O           32.28900000000000      -12.94500000000000      -13.36000000000000
H           32.98900000000000      -12.44400000000000      -13.77900000000000
H           32.31800000000000      -13.31500000000000      -12.55200000000000
C           28.55099999999999      -13.91300000000000      -17.84200000000000
H           28.29500000000000      -13.59600000000000      -18.87500000000000
H           27.73800000000000      -14.57500000000000      -17.47500000000000
H           29.49900000000000      -14.49100000000000      -17.88600000000000
S           28.74200000000000      -12.46300000000000      -16.72600000000000
H           29.86700000000000      -12.03700000000000      -17.28200000000000
72
 energy: -105.936109740515 gnorm: 0.116833785168 xtb: 6.7.1 (edcfbbe)
Fe          30.41940576305517      -12.99200420798357      -14.95002168799803
N           31.17929255930034      -14.73541892577174      -15.78119453507892
N           31.77176655519884      -11.88822054790012      -16.00564491924911
N           29.74750643297892      -11.23367815518085      -14.09795749492884
N           29.21900416526123      -14.15920731185840      -13.71185657254303
C           30.81589827049837      -16.02433211475478      -15.44470205483755
C           31.58702790601647      -16.93865831412883      -16.28081766942338
C           32.38664128937064      -16.20187861995096      -17.08657418188932
C           32.13025782110707      -14.80213452259527      -16.75970431952516
C           32.61803764731624      -12.38104676258617      -16.94547481511415
C           33.37323197443366      -11.28707934579652      -17.54378707655604
C           32.90705028776261      -10.13465871028604      -16.97835667570393
C           31.88976710330861      -10.53099239197657      -16.02423158582075
C           30.10436948085893       -9.93891988943605      -14.42290347126067
C           29.25046458347962       -9.02635945220409      -13.72238719560841
C           28.43052817957575       -9.76934462086174      -12.90545762335101
C           28.76950116642055      -11.16390496036947      -13.13665589939416
C           28.36081346435471      -13.60286648743699      -12.79091624145347
C           27.61589944118238      -14.67185024242014      -12.13435351069645
C           28.09130903258832      -15.88297376728404      -12.70297648352989
C           29.12027302431964      -15.51761516585124      -13.68750684818351
C           29.87204961355292      -16.40057223353026      -14.49127669236948
H           29.70449676851410      -17.46943847140006      -14.36807659008467
C           32.80826482500336      -13.72385698046374      -17.29452281049117
H           33.55554861160877      -13.93280209499654      -18.05179600633606
C           31.12948247647189       -9.62194948217188      -15.29938520966961
H           31.35706152435205       -8.57215906351644      -15.44908757346362
C           28.16178866451093      -12.24574010769190      -12.51795438625326
H           27.44569557364269      -12.00673230298756      -11.73610816643106
C           33.35098627638752      -16.70307975149398      -18.15470747520435
H           33.18325267621249      -17.76949081975591      -18.34319438483396
H           34.39285863419173      -16.57190746937563      -17.83561455390413
H           33.19928621368656      -16.16237313835945      -19.09638393084129
C           31.49855920373990      -18.45402235124474      -16.20429742542433
H           30.60585231154414      -18.81168632531030      -16.73337966917991
H           31.43590376707383      -18.77463793377623      -15.15925102700654
H           32.38008427837892      -18.91412571096563      -16.66369523207679
C           34.40555412948416      -11.53121002753485      -18.61277214924223
H           33.90794121711442      -11.80599864643258      -19.55193830855089
H           35.07776989304762      -12.34713535419440      -18.32347950669957
H           35.00293972347465      -10.63321394565350      -18.78381577300354
C           33.31185862941147       -8.70385957113177      -17.14852307842627
H           32.91118352012064       -7.96704129372304      -16.45150487576392
C           34.13939075238218       -8.26731733530000      -18.08803555283377
H           34.46900071234607       -8.91921948024636      -18.88422264778560
H           34.50946404005987       -7.24609594884715      -18.08610274032404
C           29.32193646166647       -7.51978598029159      -13.88680623106313
H           28.69285162845914       -7.18883012368023      -14.72513422131460
H           30.35091501222999       -7.20226618138279      -14.09391827981572
H           28.97199947247637       -7.02561825465055      -12.97425288743093
C           27.37018229671706       -9.29312727227692      -11.96349899560576
H           27.21301457578645       -9.76737503849694      -10.99429848949026
C           26.62354432911857       -8.26976305351170      -12.35206475193400
H           26.78332529629091       -7.82686004136355      -13.32613868324047
H           25.83764194909214       -7.85981936885705      -11.72435216100775
C           26.56254098671083      -14.48488148363616      -11.03126684340243
H           25.73300946351772      -13.83816262097327      -11.35559168345378
H           27.00064442902789      -14.02273614929098      -10.13394778290726
H           26.13509903866154      -15.45161415243579      -10.74066712345824
C           27.65657094313777      -17.29732552724593      -12.43088048959826
H           26.65364182549328      -17.31730008196658      -11.98829312523198
H           28.34630375939476      -17.79591974140997      -11.73374393613264
H           27.62775118093846      -17.88498728538640      -13.35960435229569
O           32.25950656472864      -12.94486176088214      -13.39816189284105
H           32.98073335657552      -12.44651732115023      -13.77830967028788
H           32.31465954365941      -13.32185960162823      -12.53887496606095
C           28.55561119048645      -13.92392228910761      -17.85288680633078
H           28.29527353682905      -13.58764996329546      -18.86266762878638
H           27.75149903533479      -14.56033575606809      -17.47095633390438
H           29.49100021689790      -14.48949930217813      -17.88113469723407
S           28.76053431030162      -12.49885103801433      -16.71581113283747
H           29.85388941176622      -12.02632025408192      -17.31213020598826
72
 energy: -105.959897101776 gnorm: 0.039527604903 xtb: 6.7.1 (edcfbbe)
Fe          30.46427316312586      -12.98924962018923      -14.90916407886388
N           31.17503423388045      -14.72494128132920      -15.75729300171738
N           31.74916544325131      -11.88643692428997      -16.02288777854853
N           29.75624491318122      -11.25707044351802      -14.08442285189600
N           29.23618179100934      -14.12358610288840      -13.71733983390371
C           30.81336235545735      -16.00174580049723      -15.44131818993995
C           31.57777120333410      -16.94090714657260      -16.26322658424602
C           32.37719214312513      -16.19736301489725      -17.08268389893423
C           32.12369020879127      -14.80372736498310      -16.73394463911221
C           32.62917083074426      -12.37595844137913      -16.94169933855965
C           33.37161602786964      -11.28925351797306      -17.54933162695832
C           32.91138242007957      -10.12123363700374      -16.97585943171176
C           31.88695933507991      -10.53008890074068      -16.02474046008676
C           30.08735568103477       -9.97508392193039      -14.41945341894067
C           29.25190909703111       -9.03280078765279      -13.70892549379882
C           28.43886406350654       -9.78112333446744      -12.89277237429416
C           28.78114343778890      -11.17595852832681      -13.14422722327235
C           28.36356339647831      -13.62128014462608      -12.79869494085802
C           27.63613990004658      -14.70331089949655      -12.15026054614783
C           28.09131990829336      -15.85096003637441      -12.70445137361531
C           29.10768272093181      -15.47741359709372      -13.68500153995154
C           29.85950622490728      -16.35517521102042      -14.48683057498781
H           29.69486881186458      -17.42141595762298      -14.36018361335870
C           32.79450439604189      -13.71769912085483      -17.28380893453308
H           33.53570749552073      -13.93387086932136      -18.03997614049759
C           31.11444329217611       -9.64218873281448      -15.29459288172811
H           31.32962639974242       -8.59307490583417      -15.43843197991439
C           28.17015165517358      -12.26520293450974      -12.52846801576338
H           27.44783511397853      -12.02411314402988      -11.75825493067012
C           33.32837954563247      -16.68686469884285      -18.13173661280041
H           33.17415782994119      -17.74554016969568      -18.32942781571696
H           34.36716431568566      -16.55707831929183      -17.82534954805364
H           33.19122472598630      -16.15424510774220      -19.07161563944802
C           31.49052281491928      -18.43072787160607      -16.19789189281456
H           30.60814107227063      -18.79675761921599      -16.72324485836381
H           31.43317137045507      -18.76743818240145      -15.16610972911278
H           32.36354602905525      -18.89293600685831      -16.65279198498508
C           34.39903461705561      -11.53007643705291      -18.60323044322027
H           33.91511032862721      -11.80134449159582      -19.54229993874388
H           35.06303937663640      -12.34355351010472      -18.31885562532802
H           35.00981137945519      -10.65401076148751      -18.77515614517097
C           33.32040896433346       -8.74333280463483      -17.15360006291792
H           32.93433869619671       -8.02740003863716      -16.43557718950377
C           34.13673190463364       -8.27227434950338      -18.09449850072441
H           34.49212680604565       -8.89283542335870      -18.89064210901829
H           34.47270901043746       -7.24879086973767      -18.09990511881132
C           29.32341842101250       -7.54668534794105      -13.87523500686203
H           28.70406167265912       -7.21343609438628      -14.71065324198254
H           30.34107844904672       -7.22091635626966      -14.08077804291885
H           28.97480370509027       -7.04098585056163      -12.97796644195070
C           27.39622169343889       -9.29290692733139      -12.00272468772052
H           27.24923015472377       -9.78103501017555      -11.04455570814938
C           26.62410008900348       -8.26711716387045      -12.35326583017839
H           26.75240113906089       -7.81396743612629      -13.31738451857627
H           25.84718730144755       -7.87030599345899      -11.72289122937782
C           26.60049892968926      -14.50462576107763      -11.07219948317312
H           25.78099037542831      -13.85636133798863      -11.39390296883401
H           27.02812160640442      -14.04113598719273      -10.17881897768634
H           26.16178692332480      -15.45221005858989      -10.76465095259805
C           27.66212173183381      -17.26441022998905      -12.43258958382700
H           26.66849857774253      -17.29846213140564      -11.99099246996777
H           28.34581773765959      -17.76895194009403      -11.74527143261522
H           27.63468248902599      -17.85366385207465      -13.35007971975289
O           32.21557611462646      -12.96551483761383      -13.43965446454919
H           32.96044856848663      -12.45487920205797      -13.76564374169483
H           32.30355187586109      -13.31532322408578      -12.54863296650453
C           28.56336928440101      -13.93883470053007      -17.85635807612661
H           28.30059711694996      -13.57811077848937      -18.84616629425373
H           27.76114372393488      -14.55338913006949      -17.46590332130858
H           29.48876275008184      -14.49886198252535      -17.87809311258571
S           28.75259234688979      -12.52023975593040      -16.71705554259000
H           29.83065277136335      -12.01522792615958      -17.32635327267149
72
 energy: -105.966749520388 gnorm: 0.023011366837 xtb: 6.7.1 (edcfbbe)
Fe          30.48860348958445      -12.98657315926081      -14.88077397776174
N           31.17258960920764      -14.70872308707957      -15.74330668591071
N           31.74113216169788      -11.88939392342354      -16.02987173457280
N           29.77301606443188      -11.27337787238408      -14.06765863169541
N           29.24746948197949      -14.10330291645417      -13.71840542990873
C           30.81161699134005      -15.98165113674037      -15.43231797260076
C           31.56399631054652      -16.92560021567342      -16.24975462352906
C           32.36325513936461      -16.18289808216495      -17.06777694049376
C           32.11797078001531      -14.79427655681639      -16.71908440909455
C           32.62410782103461      -12.37741367155562      -16.94613950970305
C           33.36769723411989      -11.30070081433527      -17.55347283566620
C           32.91371290015034      -10.13129314778952      -16.97979192686551
C           31.88338656437388      -10.53601499320838      -16.03270179047364
C           30.09565922600595       -9.99777448529150      -14.41619712995618
C           29.26265148116098       -9.05010674458088      -13.71206856253870
C           28.44408213357694       -9.79325982211597      -12.90165586788163
C           28.79030716340802      -11.18573383887859      -13.14019128819462
C           28.37284633587376      -13.61139751691696      -12.80139002105079
C           27.65079738956134      -14.69578545568377      -12.15809781364688
C           28.10372684422734      -15.84580746100361      -12.72430318041515
C           29.11594924137868      -15.45679866786528      -13.69527975998424
C           29.85702519131418      -16.33163280024788      -14.48568504397217
H           29.68106198451105      -17.39197520368265      -14.35747366574112
C           32.78691720141799      -13.71677620058662      -17.27811763423350
H           33.52120576662316      -13.94148010498449      -18.03721190324491
C           31.10955290483394       -9.65570430222834      -15.29749298908922
H           31.30461701511230       -8.60379950718660      -15.43954825394584
C           28.17038889146130      -12.26654861405087      -12.52879540843576
H           27.43457834832844      -12.02975143103972      -11.77265859474838
C           33.31193781822335      -16.66647900240291      -18.11355943574883
H           33.15847318714584      -17.72514930770339      -18.31202694615469
H           34.34861840575208      -16.53091295299792      -17.80201167996590
H           33.17355471233947      -16.12891417663624      -19.05070910414454
C           31.47343509259227      -18.41252139756823      -16.18492023297377
H           30.59060831253475      -18.77739526561498      -16.71148572421524
H           31.41914819645963      -18.75624203355541      -15.15426410597652
H           32.34803540571106      -18.86933944693742      -16.64351153714649
C           34.40310236662457      -11.54084599725077      -18.59679012845967
H           33.92524683754139      -11.79939648650422      -19.54326511330937
H           35.05263487161476      -12.36542679445106      -18.30870583573829
H           35.02923695573561      -10.67157243294154      -18.75579358914546
C           33.33661744484522       -8.76469221705969      -17.15383608006611
H           32.96653818909377       -8.06806772440401      -16.40837020790919
C           34.13318256581252       -8.26724337754802      -18.10109500869883
H           34.50778242734292       -8.86395526101583      -18.91073716597645
H           34.42500746197350       -7.22901405614636      -18.11078489592028
C           29.33193321887638       -7.56929062774424      -13.86825793351650
H           28.71483560612820       -7.24030303403805      -14.70671483618087
H           30.35089716865952       -7.24212813194065      -14.06427508776415
H           28.97399715358593       -7.06849935645318      -12.97096431477000
C           27.40231712091700       -9.30025079435144      -12.02601243982446
H           27.26634969516373       -9.80289864281192      -11.07533260034191
C           26.62302826557070       -8.27031275155232      -12.35031300037703
H           26.72041791969316       -7.80062733404272      -13.31390008448573
H           25.85472619679988       -7.88628563992239      -11.70223940073701
C           26.62184479023851      -14.51046857200557      -11.09281354460861
H           25.81467223582619      -13.86212999630096      -11.43649531664041
H           27.06271843947371      -14.04849309879431      -10.20816113137211
H           26.18995216040849      -15.46234910608145      -10.79379651211027
C           27.67464175758075      -17.25131521591099      -12.44447252404535
H           26.68392055308384      -17.27224703607990      -11.99587421299937
H           28.36393173593358      -17.74364723177796      -11.75658583517699
H           27.64270572287236      -17.83572688161226      -13.36207577254909
O           32.19298318842917      -13.01491837392977      -13.46957245950446
H           32.93090709356233      -12.45604159881053      -13.74458841268002
H           32.27395462978379      -13.30695554445634      -12.55346860440575
C           28.57082955126641      -13.95306315203577      -17.85223314067872
H           28.30389699195509      -13.57703428440659      -18.83575699220005
H           27.76795392149387      -14.56508165478824      -17.45887712035299
H           29.49505600630677      -14.51586847891903      -17.88022902368383
S           28.75938187241296      -12.54264212463020      -16.70437731806808
H           29.78706508599343      -11.98370167263555      -17.37152200402151
72
 energy: -105.969758217308 gnorm: 0.037494707749 xtb: 6.7.1 (edcfbbe)
Fe          30.46183951611841      -12.98050506584542      -14.91674667906918
N           31.16631049485714      -14.68704984799419      -15.73143178562082
N           31.73257194251309      -11.89617207096180      -16.03610324732264
N           29.79478291948188      -11.29654660959739      -14.05393876213949
N           29.27005823726240      -14.07780814071001      -13.72424849293138
C           30.81041067989262      -15.95927031462423      -15.42318989109979
C           31.55008805077737      -16.90670805818862      -16.23472199783852
C           32.34854062486994      -16.16598097661244      -17.05138046306171
C           32.11173103718425      -14.78231883176192      -16.70422872807402
C           32.62052162857962      -12.38145411116811      -16.94927692096363
C           33.36812498119835      -11.31507484227349      -17.55510321432830
C           32.92204879091744      -10.14571429891779      -16.98051770887379
C           31.88752311260244      -10.54524352611117      -16.03679018395986
C           30.11327061565738      -10.02454774508282      -14.41138841125117
C           29.27871664636594       -9.07246051272448      -13.71910048743782
C           28.45141869763230       -9.80772860134737      -12.91493820591873
C           28.80181719042270      -11.19785386980382      -13.13786165470666
C           28.39157953976418      -13.60022666079868      -12.80601378298405
C           27.67222888388787      -14.68572793277643      -12.17313009654353
C           28.12629733303302      -15.83283543771656      -12.74565268621784
C           29.13276853484809      -15.43099023901470      -13.70724732990537
C           29.85622061798717      -16.30971487412805      -14.48612239377013
H           29.66487149796583      -17.36409883999522      -14.35561932934226
C           32.78044151870445      -13.71764521725648      -17.27523215687718
H           33.50663700874600      -13.95237809069385      -18.03801191104917
C           31.11203934462368       -9.67061319183546      -15.29990960197745
H           31.28026701773079       -8.61485210963466      -15.44482528546943
C           28.17088993052872      -12.26675192835826      -12.52893203207415
H           27.41819099399628      -12.03531312410078      -11.78938179582254
C           33.29648294135407      -16.64140279443217      -18.09655505390240
H           33.14586100790225      -17.69951757971042      -18.29683567830504
H           34.33031947041729      -16.49819896200684      -17.77959240459862
H           33.15383962090583      -16.09810011322185      -19.02956004782020
C           31.45053755765970      -18.39155669797138      -16.16883838280758
H           30.56419801646787      -18.75089274236582      -16.69355063864139
H           31.39829743969284      -18.73630558971812      -15.13836068419301
H           32.32375342727436      -18.84768837130689      -16.63096555457630
C           34.41237485085295      -11.55419707523683      -18.58805215635682
H           33.94384035507685      -11.79180940945261      -19.54550614645710
H           35.04375443765884      -12.39423257063963      -18.30131097194174
H           35.05328041222676      -10.69034051582687      -18.72343371918337
C           33.35130794805749       -8.78248139040072      -17.15387089325978
H           33.00071426544924       -8.10577806748161      -16.38036626432939
C           34.11609023045034       -8.25963896958811      -18.11400609871018
H           34.50128604485681       -8.82795290460609      -18.94193503046987
H           34.38365429162681       -7.21655186006419      -18.11004504331484
C           29.34552558873701       -7.59445268507871      -13.86414079501827
H           28.73469233712555       -7.26440543744290      -14.70620570896103
H           30.36600836761753       -7.26203735857026      -14.04282902208824
H           28.97303726701846       -7.10593908258346      -12.96545291481886
C           27.40716011951168       -9.31268269869609      -12.04739879104702
H           27.28064069611559       -9.83180520088766      -11.10482054685657
C           26.62016606192106       -8.28151945692976      -12.34501383654007
H           26.69184780806079       -7.78300388029294      -13.29884564672228
H           25.86273125084215       -7.91365441662930      -11.67374114558704
C           26.64470307444981      -14.51066441114218      -11.11568206525143
H           25.84137373546657      -13.86565591996963      -11.46803635936162
H           27.08628788440494      -14.05161330084425      -10.23209592853726
H           26.21862179071560      -15.46596964447902      -10.82338715365904
C           27.69536601291804      -17.23105942177619      -12.46084695083732
H           26.70782026064021      -17.24251935277080      -12.00456562432868
H           28.38838887528399      -17.71788992691026      -11.77435656870365
H           27.65452410206152      -17.81656556741207      -13.37548935123905
O           32.19383349207045      -13.10544295647606      -13.49908329103089
H           32.89319957264070      -12.44899864412425      -13.70476274482501
H           32.24379079379334      -13.27796141171823      -12.53209490000620
C           28.57335498713065      -13.96990556560251      -17.84923487753025
H           28.31201139575315      -13.59478182551302      -18.83254238812378
H           27.77177088279653      -14.58430700100362      -17.45667403390735
H           29.50048380153590      -14.53096695127631      -17.87056510275636
S           28.72978438865939      -12.54632641189027      -16.71526205469822
H           29.73907574665072      -11.96464078591560      -17.38104219206609
72
 energy: -105.970543483147 gnorm: 0.029195168617 xtb: 6.7.1 (edcfbbe)
Fe          30.47131816639432      -12.98272032869043      -14.91188770898374
N           31.15818719377801      -14.67363516609804      -15.73232511062928
N           31.73422878265106      -11.90062038131374      -16.03917046115561
N           29.80372301100575      -11.30869419986276      -14.05359331030284
N           29.27590664119137      -14.06461896164717      -13.73341535847448
C           30.80542902840063      -15.94723738091024      -15.42256355052151
C           31.54223378092391      -16.89318875223989      -16.22709182432803
C           32.34039358058532      -16.15507701285912      -17.04159327674285
C           32.10395834599143      -14.77344659683844      -16.70363968435676
C           32.61662620991633      -12.38518173827795      -16.95632914031540
C           33.37245089742097      -11.32465623901768      -17.55620652164135
C           32.93103597885784      -10.15737241746645      -16.98252036775407
C           31.89245585288365      -10.55089958014463      -16.04359601357657
C           30.12725219612551      -10.03752936473079      -14.41365175309669
C           29.28909251930105       -9.08592582306162      -13.73132327109747
C           28.45232938969732       -9.81431270588788      -12.93186988578123
C           28.80366392784839      -11.20297094171881      -13.14138901238941
C           28.39902990962925      -13.58969528806367      -12.81229569320346
C           27.68224365074720      -14.67503238421427      -12.18408866329821