87
 energy: -124.494414999650 gnorm: 0.262957840607 xtb: 6.7.1 (edcfbbe)
Fe          39.35099999999999       59.71500000000000       17.63700000000000
N           40.71100000000000       61.19900000000000       17.84700000000000
N           37.88700000000000       60.94900000000000       17.91400000000000
N           37.96200000000000       58.16899999999999       17.37900000000000
N           40.91400000000000       58.39300000000000       17.32200000000000
C           42.04599999999999       61.11499999999999       17.63300000000000
C           42.63800000000000       62.39000000000000       17.89300000000000
C           41.63000000000000       63.22999999999999       18.28200000000000
C           40.41000000000000       62.46900000000000       18.26100000000000
C           37.99000000000000       62.24800000000000       18.34400000000000
C           36.65499999999999       62.85900000000000       18.46900000000000
C           35.77400000000000       61.91199999999999       18.10600000000000
C           36.55500000000000       60.72600000000000       17.75600000000000
C           36.62800000000000       58.35000000000000       17.28400000000000
C           36.01199999999999       57.04600000000000       17.05700000000000
C           37.05700000000000       56.12100000000000       17.03600000000000
C           38.27000000000000       56.85700000000000       17.26200000000000
C           40.73800000000000       57.07800000000000       17.20100000000000
C           42.05600000000000       56.48700000000000       16.92700000000000
C           42.95300000000000       57.53300000000000       16.94400000000000
C           42.18900000000000       58.71800000000000       17.16500000000000
C           42.74100000000000       60.00300000000000       17.23700000000000
H           43.78800000000000       60.12599999999999       16.96100000000000
C           39.15800000000000       62.96099999999999       18.58000000000000
H           39.08499999999999       63.94799999999999       19.03500000000000
C           35.94200000000000       59.52999999999999       17.38900000000000
H           34.87300000000000       59.53400000000000       17.17700000000000
C           39.54500000000000       56.33199999999999       17.25300000000000
H           39.63700000000000       55.24700000000000       17.28900000000000
C           44.12600000000000       62.68200000000000       17.77500000000000
H           44.22900000000000       62.37100000000000       16.71400000000000
H           44.46800000000000       61.85199999999999       18.42899999999999
H           44.75100000000000       63.58400000000000       17.94800000000000
C           41.74400000000000       64.71800000000000       18.67000000000000
H           41.26299999999999       64.61700000000000       19.66700000000000
H           40.99200000000000       65.09300000000000       17.94400000000000
H           42.58700000000000       65.43700000000000       18.74800000000000
C           44.45400000000000       57.49199999999999       16.72200000000000
H           44.60500000000000       56.77499999999999       17.55700000000000
H           45.34899999999999       58.14500000000000       16.64200000000000
H           44.31400000000000       56.92200000000000       15.77900000000000
C           42.26299999999999       55.03099999999999       16.96700000000000
H           42.19900000000000       54.48900000000000       16.01700000000000
C           43.26499999999999       54.58400000000000       17.76300000000000
H           43.44100000000000       55.04100000000000       18.74800000000000
H           43.91400000000000       53.75900000000000       17.43400000000000
C           36.97600000000000       54.62300000000000       16.83600000000000
H           37.51200000000000       54.35000000000000       17.77000000000000
H           37.68999999999999       54.57899999999999       15.98600000000000
H           36.14600000000000       53.90200000000000       16.67300000000000
C           34.52800000000000       56.86399999999999       17.02800000000000
H           34.07300000000000       57.78400000000000       16.68200000000000
C           33.91199999999999       55.77500000000000       17.58200000000000
H           34.50000000000000       54.89900000000000       17.89200000000000
H           32.82100000000000       55.76300000000000       17.72400000000000
C           34.26200000000000       62.07900000000000       18.08500000000000
H           34.26300000000000       62.51000000000000       19.10900000000000
H           33.34100000000000       61.47199999999999       17.95100000000000
H           34.28200000000000       62.90800000000000       17.34600000000000
C           36.25800000000000       64.26600000000001       18.91600000000000
H           35.64200000000000       63.93500000000000       19.78000000000000
H           35.59600000000000       64.40700000000000       18.03500000000000
H           36.75500000000000       65.22499999999999       19.17500000000000
C           39.59500000000000       59.21599999999999       12.01500000000000
H           40.42700000000000       59.76800000000000       11.52900000000000
H           38.65999999999999       59.39600000000000       11.44300000000000
H           39.83499999999999       58.13100000000000       12.01800000000000
N           39.13600000000000       61.00800000000000       13.72300000000000
H           38.99700000000000       61.73000000000000       13.04600000000000
C           39.42899999999999       59.69900000000000       13.41600000000000
C           39.06900000000000       61.15200000000000       15.03500000000000
H           38.87400000000000       62.09400000000000       15.54600000000000
N           39.27700000000000       59.96999999999999       15.59100000000000
C           39.51600000000000       59.04699999999999       14.59800000000000
H           39.72599999999999       58.01100000000000       14.83000000000000
C           37.01700000000000       59.87499999999999       21.03700000000000
H           36.13600000000000       59.39500000000000       21.51400000000000
H           36.66999999999999       60.45399999999999       20.15400000000000
H           37.48900000000000       60.56100000000000       21.77200000000000
C           38.02000000000000       58.81300000000000       20.60000000000000
H           37.51100000000000       58.14500000000000       19.87400000000000
H           38.29100000000000       58.21500000000000       21.49500000000000
S           39.53200000000000       59.44300000000000       19.84500000000000
C           40.66100000000000       58.13100000000000       20.34800000000000
H           40.33700000000000       57.14500000000000       19.95000000000000
H           40.69599999999999       58.05899999999999       21.45600000000000
H           41.68299999999999       58.33700000000000       19.96500000000000
87
 energy: -124.603252330729 gnorm: 0.143404675097 xtb: 6.7.1 (edcfbbe)
Fe          39.35032041863501       59.70712831031194       17.63956740733058
N           40.70128880603082       61.20301596387799       17.84402981913691
N           37.88544911186264       60.95788764142024       17.91035990975392
N           37.96957496303484       58.18049630923253       17.38467104380014
N           40.87710572090640       58.41408108271291       17.32173090738252
C           42.03989211848872       61.13001576402041       17.62908997777278
C           42.64393731329903       62.41259727218040       17.89651124855241
C           41.64999420957075       63.24139116873274       18.28802862161421
C           40.42466736908776       62.47124842408326       18.26148863853813
C           37.99486025307151       62.24973761011642       18.34429705548678
C           36.67768837199463       62.84961469827812       18.47097310407873
C           35.78608946341084       61.89316868513851       18.09765872463994
C           36.55671876747774       60.72141551068471       17.75091051488418
C           36.63186038104706       58.33853210063360       17.26842467843770
C           36.00273826444158       57.03887812610478       17.06008947047376
C           37.02785400447813       56.12517459873200       17.04663558703806
C           38.25884054634830       56.86230779594019       17.25313684670348
C           40.73067735019448       57.08315266318471       17.20289267458597
C           42.04599769981263       56.49881748212324       16.96208785678792
C           42.93756845102613       57.54821218267539       16.94855470773165
C           42.17152621155314       58.73285349345912       17.15850081601613
C           42.73119048611979       60.00560854200518       17.23339162257033
H           43.77972342407394       60.11509397218715       16.97518491806113
C           39.16431201599659       62.95432464060413       18.57767222509471
H           39.08401364270269       63.94236136031186       19.01795883019919
C           35.95021258670161       59.52956287662348       17.38346001003764
H           34.88314746173105       59.53897272647808       17.19278221989403
C           39.54569675871289       56.33776500136394       17.25086270578191
H           39.64377217711352       55.25627380133834       17.27249265450663
C           44.12583295289842       62.64216470805636       17.75988727479684
H           44.27973924225803       62.36514230473448       16.70989717321108
H           44.51525750573133       61.85284576152500       18.41465047871820
H           44.67968864615966       63.57328551345479       17.95688747394521
C           41.69760755685066       64.70660363467942       18.67753424474739
H           41.24940068507682       64.66366793727015       19.67718373261905
H           40.98277131283876       65.13514996064862       17.96463298717421
H           42.58390194616241       65.36108585019963       18.72563897846331
C           44.43194718389194       57.43522911930963       16.71951078301012
H           44.66213614379146       56.74385354507361       17.53903293581443
H           45.25941472878180       58.16543691903161       16.65412297577544
H           44.37805961903451       56.88737683728320       15.77065548585215
C           42.33975448818114       55.06063613872218       16.93215556155943
H           42.18075859948810       54.49362846788317       16.01091248651845
C           43.27648737353933       54.57831628590411       17.76153873802965
H           43.45499359832224       55.04047915239070       18.72919801390309
H           43.88631422922241       53.72833712233991       17.47193187012997
C           37.01848615976589       54.63228072299292       16.84385824037122
H           37.52584475332637       54.30216602301041       17.75983827400895
H           37.69996832300306       54.53168872742846       15.98881949572756
H           36.14982546242237       53.97542259185470       16.67762032416672
C           34.54403682200835       56.85776301007596       17.04918717375934
H           34.05491370326337       57.75700020286051       16.69030488620503
C           33.92206535352182       55.79168250113758       17.57167707597102
H           34.48824362695599       54.92338762781627       17.89439576897113
H           32.84153375427694       55.76344550973055       17.70413202324465
C           34.28783856348872       62.11832839181067       18.09763171406264
H           34.20248707874556       62.53965719324135       19.10872511811679
H           33.42519912245793       61.44801554323764       17.94300071379942
H           34.23022499889161       62.92917376693855       17.35731242718018
C           36.22811905391573       64.23401790868535       18.90591505644517
H           35.61696001505161       63.97596595993423       19.78338364687827
H           35.56516254031304       64.45731256223661       18.05809738086567
H           36.79078071330233       65.14963024253700       19.15258817992356
C           39.59493933352715       59.21886236661756       12.01417013463458
H           40.41705694880345       59.75934944335213       11.52725633967595
H           38.67351372309781       59.38971958561270       11.44277243070103
H           39.82889479294220       58.14871040843910       12.01640602318182
N           39.13895721498523       61.00798261383051       13.70888146203137
H           38.99884817688569       61.73522877666302       13.03154403986330
C           39.42716993750112       59.70029287691062       13.41114734413571
C           39.06897467831429       61.14054094768645       15.03909044905823
H           38.87522285359692       62.07341384519502       15.54574279770933
N           39.28409783425708       59.97430481862924       15.60912243202984
C           39.51136884034170       59.06132134575707       14.61045955452764
H           39.72065796570987       58.02989677537926       14.83550058902032
C           37.02117337606194       59.87723133597823       21.03686894352702
H           36.14941416992031       59.40323260258490       21.50651265673092
H           36.67542797465740       60.45016953769564       20.17074510655374
H           37.48252439365683       60.55774068228484       21.76172122338811
C           38.00660552424195       58.79898164427968       20.60709200704324
H           37.51739269796978       58.14088920319628       19.87708487312012
H           38.29360274616516       58.21165859110812       21.48892487937966
S           39.53396311130725       59.45584668540452       19.87208770643694
C           40.66033954255612       58.12036885845078       20.35195407266337
H           40.33680015064658       57.15342252534143       19.94869451196672
H           40.69738699420542       58.06214314473729       21.44667907465382
H           41.66319281278473       58.34182383627482       19.96823785711030
87
 energy: -124.663600144324 gnorm: 0.062685897231 xtb: 6.7.1 (edcfbbe)
Fe          39.35451366709218       59.69924874528288       17.62821709846389
N           40.69396990781380       61.20629918565491       17.83985543063374
N           37.88157748567087       60.96862286759919       17.90797560272286
N           37.98131039223313       58.19271119506683       17.38419407914476
N           40.84452093161314       58.43200583156444       17.31872825337977
C           42.03355015640209       61.14206143430797       17.62306696536133
C           42.65157820868870       62.42980062689266       17.89702787198809
C           41.66374123589256       63.25400134857985       18.29496168962249
C           40.43487372322492       62.47175719569179       18.26055327035124
C           37.99183854401523       62.25626259521442       18.34474343860819
C           36.68842304084302       62.84828777307096       18.47451976760345
C           35.78802318539277       61.88506345523249       18.09053320509028
C           36.55271843937860       60.72340747239690       17.74718664562398
C           36.63877211388656       58.32985423373072       17.25821055403932
C           36.00391462771947       57.03266592624591       17.06288839634842
C           37.01719216621830       56.12285466051835       17.05632685296143
C           38.25566238097526       56.86820574236376       17.24720502470664
C           40.72616294911990       57.08491749920724       17.20709526080389
C           42.03433652450120       56.50546053999440       16.99724332135810
C           42.92587666071474       57.55537144364848       16.95049890736899
C           42.15734798566277       58.74266318366956       17.15191769877259
C           42.71989891964012       60.00779177984664       17.23084278774015
H           43.77082892134886       60.10375997188029       16.99324283427772
C           39.17033778316170       62.94845774038554       18.57266673809652
H           39.08400469400092       63.93925262081471       18.99733575952545
C           35.95973041867006       59.52772057994390       17.38057177322146
H           34.89278266232100       59.53941800837877       17.21095190940193
C           39.54698826440658       56.34386307764303       17.25070404341693
H           39.64968706584007       55.26544126460112       17.25140606823464
C           44.12511781243624       62.60477321152428       17.74520783386889
H           44.33110476912291       62.35794426522636       16.70477332328553
H           44.56280096233775       61.85182454676452       18.39980384691464
H           44.59919560972214       63.57030297289163       17.96778052667324
C           41.65423713912956       64.69490174024125       18.68566050862532
H           41.23263983446163       64.71125236928636       19.68880334916037
H           40.97125504356544       65.17611476715724       17.98597731749849
H           42.58849838511582       65.27700208820208       18.70154543703203
C           44.40387341441493       57.38012069714653       16.71733884199421
H           44.71167284782097       56.71362071316383       17.52103515160437
H           45.14996401854714       58.19807840763140       16.67015846708892
H           44.43442743635383       56.85284475480504       15.76343153473560
C           42.40601139724687       55.08943841976917       16.90590774998080
H           42.16867566100031       54.51997017208119       16.00461525193328
C           43.28392196755641       54.57281471770176       17.75907241473818
H           43.48179937852232       55.04827087118507       18.70703061838090
H           43.84712831643166       53.68605181411600       17.51150614519440
C           37.06145513485187       54.64084948339532       16.85300017416951
H           37.54284082029140       54.25486120908910       17.75156871652169
H           37.71304208015795       54.49054254432740       15.99223904354037
H           36.14416173278550       54.05956488300001       16.68358445267100
C           34.56425278472933       56.85736512917513       17.06229117585889
H           34.03312057200429       57.73514164008088       16.70201272485959
C           33.93012317207560       55.80412141451999       17.56230992787927
H           34.47727894542724       54.94099065597990       17.90614388036821
H           32.85651189037045       55.76211613852589       17.67756699874988
C           34.31193721996571       62.15671585086570       18.10769645821946
H           34.14886976618388       62.56537884057777       19.10705389115314
H           33.52235748809347       61.40685675721182       17.93091115459336
H           34.18206864629139       62.95046326047568       17.36710763127943
C           36.20083647674429       64.20486284507049       18.89846316611498
H           35.59453553700001       64.01262392935448       19.78790661424706
H           35.54061474532276       64.50126612430026       18.07909812164093
H           36.84767133747403       65.06615935848687       19.12807420787293
C           39.59447889365327       59.21940596911224       12.01531088924948
H           40.40980960115456       59.75385690080731       11.52740369293254
H           38.68192864369431       59.38512911287503       11.44294002724734
H           39.82451813977134       58.15854436059012       12.01658508643632
N           39.14124930792067       61.00986892959448       13.69863187139785
H           39.00041674655834       61.74112566021437       13.02264325224241
C           39.42572896981775       59.70125447180847       13.41001851347663
C           39.07000134579216       61.13347465909573       15.04145716222229
H           38.87556165941785       62.05895595762174       15.54579294886143
N           39.28599939035838       59.98010941417472       15.62067629226364
C           39.50887763545676       59.07505823607953       14.62163815491143
H           39.71605940335439       58.04546227154694       14.83830026134782
C           37.02120814213048       59.87656646333084       21.03884250456383
H           36.15399425153823       59.41001824131845       21.50468922711708
H           36.68305237271358       60.44606519907427       20.18055792545703
H           37.48281046388853       60.55270688130955       21.75376101342287
C           37.99352795278211       58.78702507756029       20.61649077906291
H           37.52442913633993       58.13838603342725       19.87877387492453
H           38.29388604585692       58.20626977060895       21.48721615298772
S           39.53437174570212       59.46563813133412       19.89121016088658
C           40.66161827434041       58.11161124910302       20.35762382208816
H           40.33137098889672       57.16323121211422       19.94522556774663
H           40.69926473174717       58.06207486634197       21.44294077720969
H           41.64767075711012       58.34872633819814       19.96792213462659
87
 energy: -124.689224877634 gnorm: 0.044872231594 xtb: 6.7.1 (edcfbbe)
Fe          39.35585737574628       59.69534072386407       17.61916038028547
N           40.68709922287991       61.20537292544241       17.82858526165097
N           37.87676977629337       60.97830150927098       17.90176891166126
N           37.99361954975766       58.20246062763041       17.37643838986090
N           40.82905656775897       58.43816710064500       17.31159459303289
C           42.02479606166083       61.14344509420152       17.61248127913063
C           42.65081310184101       62.42860536509406       17.89112418111302
C           41.65998989685831       63.25358673158037       18.29825098681236
C           40.43240913504054       62.46702621991840       18.25500434974890
C           37.98555871218463       62.26403268662445       18.34119433340296
C           36.68444558383288       62.85229217539138       18.47503390129453
C           35.78331929314862       61.89117398500363       18.08626102154662
C           36.54717610776532       60.73054773977677       17.74168074536568
C           36.64884718530956       58.33109572059981       17.25305879946177
C           36.01662297117007       57.03233314032747       17.07052387246591
C           37.03359627425433       56.12116794461767       17.06640618960708
C           38.26428432336664       56.87618439492939       17.24516579457738
C           40.72493926992312       57.08410354822072       17.21045431640556
C           42.02838904978827       56.50555024482331       17.01782054022561
C           42.91843618637580       57.55071254260478       16.95429581583958
C           42.14845393757748       58.74323475416433       17.14519122624897
C           42.70901365135024       60.00697588773541       17.22736813912197
H           43.76539530558172       60.09283062390480       17.01623257095632
C           39.17173399276923       62.94653825156988       18.56372921564247
H           39.08536533910118       63.94339613503931       18.97172638696968
C           35.96782106967883       59.52705681233268       17.37891645379586
H           34.89774588650486       59.53342499271663       17.23317077194348
C           39.54944080346631       56.34729375053767       17.24773608457292
H           39.65402030915845       55.27025181591790       17.22442699828536
C           44.12109930593331       62.58780101180510       17.73637616316445
H           44.38042231636954       62.35750565507148       16.70123205394813
H           44.60703209279481       61.85682428280719       18.38574370301642
H           44.52486635859749       63.57947134660790       17.97879070384848
C           41.63134625291787       64.68599177400495       18.69193410190351
H           41.22071423610213       64.75709112247955       19.70028551217148
H           40.96397358159411       65.21488153397880       18.00790932060183
H           42.60165237227013       65.20297835445784       18.68236360717391
C           44.38083344215875       57.35339735409914       16.71618286821824
H           44.75748907450009       56.69492663588211       17.50168502270364
H           45.04792023185345       58.23572855776190       16.68258851186096
H           44.48213236383475       56.82821412946339       15.76174149059350
C           42.43963734378366       55.10701115510651       16.89178433627861
H           42.16338044774959       54.55485000239603       15.99646952560527
C           43.28583938776418       54.56309194512100       17.75622314103041
H           43.52040075280270       55.06017843052005       18.68543582696955
H           43.78902380917984       53.62100382756378       17.55553256027791
C           37.08926972256109       54.64752679501560       16.86090044428052
H           37.55693530802981       54.20553238952536       17.74383837235139
H           37.72668080118229       54.45156728920726       15.99695847966638
H           36.13050594918055       54.13857085700125       16.68933080920009
C           34.58019742632665       56.85998804247689       17.07154680419280
H           34.01952023620496       57.71885298122866       16.71114369834920
C           33.93540872669433       55.80559664005269       17.55876397302153
H           34.47166680785018       54.94782007817729       17.93064689822092
H           32.86068661441808       55.75794437392653       17.63687312643507
C           34.32205553720431       62.17247449926407       18.10838132387294
H           34.09223338203660       62.57861929105847       19.09917938511169
H           33.60828665446142       61.35350730793031       17.91351186742972
H           34.12984278187761       62.96317444962400       17.37475509455421
C           36.19448814571384       64.19353519585985       18.89749655536549
H           35.58346093975774       64.05514501012428       19.79555949876695
H           35.52832096981108       64.55118983407004       18.10349596448688
H           36.92150737956622       64.99419854601240       19.11023326221711
C           39.59321179145837       59.21942449345126       12.01936090761262
H           40.40732468553564       59.75120032950990       11.52759643724269
H           38.68318563582383       59.38202708099520       11.44296715949977
H           39.82170735235955       58.15921695941685       12.02065601539371
N           39.14247217534945       61.01466791838416       13.69622639417950
H           39.00240572962570       61.74651260527099       13.01976776742771
C           39.42465604874990       59.70390634827180       13.41362321928031
C           39.07071137220804       61.13682177786791       15.04245310309082
H           38.87236785941541       62.05875504351309       15.54755294262766
N           39.28870916209920       59.98841449569194       15.62695224080026
C           39.50767384245477       59.08437360179034       14.62926917388472
H           39.71206083627713       58.05494850733027       14.84223405346533
C           37.02102064165711       59.87187856401422       21.04343830911605
H           36.14970612245381       59.41609678901847       21.50922582867707
H           36.69089084404025       60.44291324342341       20.18368132114840
H           37.48852442384236       60.54843885280521       21.75320659343731
C           37.98580493308260       58.77678835770312       20.62578952645702
H           37.53028639867664       58.13183171521001       19.87804697522207
H           38.29230160165746       58.19440432094149       21.49170383678293
S           39.53103776280313       59.47393719092613       19.90858714372916
C           40.65948002567642       58.11026029842485       20.36299227628882
H           40.32041748385593       57.17144683949959       19.93874632708278
H           40.70311778343540       58.05712037909294       21.44630307107263
H           41.63707879423395       58.35892014327997       19.96392385856519
87
 energy: -124.699850371195 gnorm: 0.037233748975 xtb: 6.7.1 (edcfbbe)
Fe          39.35385118107141       59.69695853020578       17.61042815322303
N           40.67843042876012       61.20106142501626       17.81489416115004
N           37.86892740705741       60.98812980809666       17.89297382160098
N           38.00655490077185       58.21163645803928       17.37170009058855
N           40.82673830210209       58.43607408753233       17.30686713617067
C           42.01478286229599       61.13984918840300       17.60150645766275
C           42.64338334292916       62.42079543399603       17.88228700480949
C           41.64865903569508       63.24630363509497       18.29587306418960
C           40.42365810793690       62.46108497777865       18.24310022504246
C           37.97727420597117       62.27349339542580       18.33153962817265
C           36.67432994804656       62.85933311756679       18.47113714919254
C           35.77447390233622       61.90233574881681       18.08112261859862
C           36.53918997305327       60.73840055449738       17.73641720953747
C           36.66016281116415       58.33460309261672       17.25631736727056
C           36.03337290761276       57.03216500082566       17.08651566638629
C           37.05729248917783       56.12282720664592       17.07993793510003
C           38.27746668385947       56.88561088567772       17.24334531016087
C           40.72842389628103       57.08042222870251       17.21161655585662
C           42.03097538527033       56.49959730894803       17.03239804139216
C           42.91847789228904       57.54101278336374       16.95930546695223
C           42.14673786827540       58.73832023761027       17.14256271343383
C           42.70190728031179       60.00318098822277       17.22717487975045
H           43.76327044162527       60.08415470587130       17.04263808881717
C           39.16779645695323       62.94969569193159       18.54658476087274
H           39.08716416406975       63.95328016061425       18.93817633224513
C           35.97259069367553       59.52587319039765       17.38371668264238
H           34.89958885554994       59.52034692672296       17.26018088512989
C           39.55456743663743       56.34758426097879       17.23839529562563
H           39.65723374014140       55.27163870013321       17.19237520449825
C           44.11276267082447       62.59151296181809       17.73285351412438
H           44.41103750787970       62.37484090622863       16.70283359144213