78
 energy: -115.775566697082 gnorm: 0.331205567477 xtb: 6.7.1 (edcfbbe)
Fe          11.48800000000000        2.54000000000000       -1.42600000000000
N           12.11000000000000        0.93300000000000       -2.41400000000000
N           13.11900000000000        2.47400000000000       -0.29900000000000
N           10.86000000000000        4.15100000000000       -0.45700000000000
N            9.90800000000000        2.62200000000000       -2.60800000000000
C           11.44000000000000        0.20100000000000       -3.37700000000000
C           12.13900000000000       -0.97500000000000       -3.70400000000000
C           13.28500000000000       -0.99100000000000       -2.96600000000000
C           13.24600000000000        0.16400000000000       -2.11900000000000
C           14.22000000000000        1.64300000000000       -0.42200000000000
C           15.28200000000000        2.04700000000000        0.45300000000000
C           14.81000000000000        3.08600000000000        1.15300000000000
C           13.49600000000000        3.39100000000000        0.68900000000000
C           11.45200000000000        4.75100000000000        0.63700000000000
C           10.65900000000000        5.86100000000000        1.10200000000000
C            9.57800000000000        5.90500000000000        0.30100000000000
C            9.71200000000000        4.87200000000000       -0.68300000000000
C            8.91900000000000        3.60700000000000       -2.62900000000000
C            7.93300000000000        3.29300000000000       -3.61900000000000
C            8.33500000000000        2.19700000000000       -4.24500000000000
C            9.55900000000000        1.75100000000000       -3.62900000000000
C           10.23800000000000        0.59000000000000       -3.91900000000000
H            9.78100000000000       -0.08300000000000       -4.64500000000000
C           14.23400000000000        0.55400000000000       -1.25600000000000
H           15.12900000000000       -0.06800000000000       -1.22800000000000
C           12.67300000000000        4.39800000000000        1.16100000000000
H           13.02400000000000        4.96200000000000        2.02500000000000
C            8.84300000000000        4.64600000000000       -1.73000000000000
H            8.02300000000000        5.35300000000000       -1.85700000000000
C           11.70500000000000       -1.98400000000000       -4.77700000000000
H           11.55600000000000       -1.23900000000000       -5.58800000000000
H           10.72000000000000       -2.22500000000000       -4.32400000000000
H           12.15900000000000       -2.90100000000000       -5.20900000000000
C           14.36300000000000       -2.04900000000000       -2.92700000000000
H           14.31700000000000       -2.24700000000000       -1.83500000000000
H           15.20600000000000       -1.35600000000000       -3.13200000000000
H           14.52200000000000       -3.01000000000000       -3.46100000000000
C            7.61500000000000        1.34100000000000       -5.29400000000000
H            6.69300000000000        1.28100000000000       -4.67700000000000
H            7.69400000000000        0.42300000000000       -5.91400000000000
H            7.55300000000000        2.23700000000000       -5.94800000000000
C            6.81300000000000        4.24000000000000       -3.94600000000000
H            6.00500000000000        4.38000000000000       -3.25300000000000
C            6.25600000000000        4.30400000000000       -5.16300000000000
H            6.87300000000000        4.19000000000000       -6.06600000000000
H            5.17400000000000        4.47100000000000       -5.27400000000000
C            8.37600000000000        6.80600000000000        0.36200000000000
H            7.59500000000000        6.02400000000000        0.47900000000000
H            8.42400000000000        7.11000000000000       -0.70600000000000
H            8.10900000000000        7.68000000000000        0.99400000000000
C           10.87700000000000        6.51800000000000        2.42900000000000
H           11.52900000000000        5.89400000000000        3.03400000000000
C           10.58400000000000        7.75600000000000        2.63300000000000
H            9.90800000000000        8.29000000000000        1.94900000000000
H           11.00600000000000        8.29500000000000        3.49400000000000
C           15.53100000000000        3.97000000000000        2.16300000000000
H           15.47700000000000        3.17800000000000        2.94100000000000
H           15.53700000000000        4.96300000000000        2.66000000000000
H           16.46400000000000        3.83400000000000        1.57500000000000
C           16.65000000000000        1.33800000000000        0.53400000000000
H           16.44500000000000        1.04700000000000        1.58600000000000
H           17.18900000000000        2.31000000000000        0.52800000000000
H           17.27700000000000        0.55300000000000        0.05900000000000
O           10.57500000000000        1.50200000000000       -0.32200000000000
H           10.72800000000000        0.60400000000000       -0.61700000000000
H           10.07300000000000        1.75000000000000        0.36900000000000
C           14.84300000000000        6.39400000000000       -3.86900000000000
H           14.34400000000000        7.35700000000000       -4.10800000000000
H           15.45000000000000        6.07600000000000       -4.74400000000000
H           15.49900000000000        6.53800000000000       -2.98400000000000
N           12.85800000000000        5.00000000000000       -4.51100000000000
H           12.78400000000000        5.39900000000000       -5.42500000000000
C           13.81100000000000        5.35900000000000       -3.56800000000000
C           12.06900000000000        4.04600000000000       -3.99800000000000
H           11.23700000000000        3.58700000000000       -4.53100000000000
N           12.47600000000000        3.76600000000000       -2.74600000000000
C           13.56000000000000        4.58800000000000       -2.47700000000000
H           14.05800000000000        4.54400000000000       -1.51600000000000
78
 energy: -115.904140976246 gnorm: 0.179124204205 xtb: 6.7.1 (edcfbbe)
Fe          11.51418802446060        2.57308786272324       -1.46412298708708
N           12.10897609248434        0.90992778270629       -2.40487585899701
N           13.11350082896756        2.47634360390622       -0.30194551840672
N           10.86057059186732        4.15728321148796       -0.45170273272176
N            9.90756462360511        2.63002200944430       -2.60656162477253
C           11.44203197106961        0.19746673676402       -3.37102970661407
C           12.15212722459531       -0.99025379811559       -3.71552485062987
C           13.27937664512000       -1.00736476531212       -2.97058548594132
C           13.24407446577974        0.16507610490137       -2.13745535462777
C           14.19635954604024        1.64359852873763       -0.43337277813212
C           15.26521016608317        2.04256522899995        0.42684644089164
C           14.79746917723344        3.10979457944026        1.12732406310617
C           13.47441303077202        3.37963860212659        0.67615612291952
C           11.44985241487077        4.74240466898465        0.63697035309156
C           10.65068270845135        5.83687850089553        1.12893297963513
C            9.57512792779579        5.91013332118428        0.31142152235081
C            9.72092684160775        4.87766127783024       -0.68115657439831
C            8.92926114310744        3.60150769234720       -2.61948826112426
C            7.95256789496942        3.31647885029019       -3.63685405263431
C            8.35613615437968        2.17226907802858       -4.24280410464610
C            9.56349132508058        1.74817455151554       -3.60346633680844
C           10.23756868978289        0.58894149139559       -3.91588834876533
H            9.78308010469936       -0.07262794798265       -4.64726266351250
C           14.23359877891337        0.54906180464697       -1.26303128089690
H           15.12706907224485       -0.06679231944146       -1.22497478971648
C           12.67160220830300        4.39030348423030        1.15964245995915
H           13.03205080417673        4.95777011744478        2.01298686685819
C            8.84614596860492        4.64769652030982       -1.72825263909120
H            8.02321299020768        5.34433230487897       -1.85697273197766
C           11.67252423259223       -1.95589447144690       -4.77829468061166
H           11.53068581335903       -1.26330992693862       -5.61645354871223
H           10.70070680253386       -2.24438411559789       -4.35983281305630
H           12.17945533995591       -2.85838106263368       -5.15838148435014
C           14.38061623518004       -2.02419849519071       -2.89764031642735
H           14.35716910201867       -2.26757393064476       -1.82856432272834
H           15.24309399532913       -1.38432066174970       -3.11895975258611
H           14.47526865261296       -2.96430962027618       -3.46527632538441
C            7.58391167007180        1.38488187410095       -5.29028680190249
H            6.65303568272959        1.27447928663041       -4.71934798077366
H            7.74610438047596        0.45241763752370       -5.85887348336541
H            7.50023123707973        2.21670647259047       -5.99539468298243
C            6.78174913704706        4.17125930374577       -3.95332090831949
H            6.02371490337956        4.38132531985399       -3.20870752679565
C            6.25490215660343        4.29609055362893       -5.17556565728771
H            6.85996243333788        4.18547599269957       -6.06958780148492
H            5.19477669168529        4.50752062553975       -5.29120496129983
C            8.36175267438787        6.78781741977666        0.33013068287173
H            7.56338081018718        6.04694427609424        0.46649924830739
H            8.37768242792977        7.13464241546531       -0.70994931786368
H            8.15331213720693        7.64234638614492        0.99154621671833
C           10.91257224693000        6.51516297364979        2.40383069646934
H           11.52973506205762        5.90188414428368        3.04753433142587
C           10.58657411538890        7.76962603561129        2.63640089359248
H            9.92923503528401        8.30065622006232        1.95717829536372
H           10.97792960138997        8.29684535951874        3.50161777667262
C           15.56402010742105        3.92055092594858        2.15885085278819
H           15.52475534994134        3.18804838209614        2.97628915008150
H           15.48378416614704        4.92919527169663        2.60494456843398
H           16.52173634825541        3.85332931925839        1.62903805436815
C           16.63705654619595        1.37748686037704        0.57663134042984
H           16.50105126967199        1.04054558761398        1.61221629062514
H           17.24182029854132        2.29424623914710        0.55295343085627
H           17.19583632526884        0.58627300015349        0.03963018773836
O           10.58247323087729        1.48623197761897       -0.32337859796201
H           10.71599258450517        0.57927368207049       -0.60384477110481
H           10.04688869787729        1.74058877092857        0.40507275947505
C           14.84066633003560        6.39441322136869       -3.86922530187052
H           14.35427885914840        7.35009963431585       -4.10659068078940
H           15.44698236807598        6.08464583827223       -4.73184226091866
H           15.49072290483363        6.53544638074932       -2.99822880343110
N           12.86512365516906        5.00531419162794       -4.51259436192762
H           12.78610305412755        5.40356818713801       -5.43088138095784
C           13.81117262665115        5.36125205130707       -3.57480918723239
C           12.08061714551586        4.04887961646642       -3.98899214303006
H           11.25442534278206        3.59151116833679       -4.51436178012321
N           12.47836151038232        3.77363433733588       -2.75738410647261
C           13.55252133672389        4.58497133082482       -2.48689310076529
H           14.04728994982335        4.54240492853689       -1.53064806101108
78
 energy: -115.979723118631 gnorm: 0.079656983348 xtb: 6.7.1 (edcfbbe)
Fe          11.53551590235366        2.59970161335443       -1.49426888854685
N           12.11851509701813        0.89558395989411       -2.40958380007032
N           13.11946819040407        2.48593959790295       -0.31000605755275
N           10.86659699241692        4.17060748884224       -0.45452114844390
N            9.90685184757209        2.64110586210277       -2.61293606822073
C           11.44437362883321        0.19699428825869       -3.36671402378146
C           12.16235580964955       -1.00595542559890       -3.72925754040823
C           13.27758814708102       -1.02384138905477       -2.97574290983493
C           13.24230388955194        0.16871538201934       -2.15351629701148
C           14.18368397740969        1.64873621976449       -0.44584892562763
C           15.25933030192686        2.03873881569667        0.41241312277539
C           14.79709801192517        3.12927244672305        1.11254472740528
C           13.46620270939008        3.37364408632708        0.66073277980956
C           11.44465813700005        4.73409771097888        0.63748222202631
C           10.63695917254122        5.81822587607271        1.15424816705680
C            9.57040252761238        5.91912323003610        0.31476882851744
C            9.73050694741573        4.88373018529720       -0.68341347566959
C            8.93822401555875        3.59731118421290       -2.61818782440177
C            7.96422802788965        3.33546535426771       -3.65442396389534
C            8.36472357445421        2.15160180635635       -4.24023167282418
C            9.56368083617271        1.74850141422047       -3.58425599141911
C           10.23895750201551        0.58776121560501       -3.91477109560668
H            9.78609707547359       -0.06165070603056       -4.65012347215332
C           14.23533230686496        0.54344614159970       -1.27023542956490
H           15.12542075907442       -0.06643440421407       -1.22210083484767
C           12.67154649164085        4.38598413956653        1.15867087802287
H           13.04033452297337        4.95388906888891        2.00168525954061
C            8.85012148954604        4.65074031165561       -1.72958868300515
H            8.02261392290515        5.33469433611384       -1.85694583246001
C           11.64076100151258       -1.92932847808503       -4.77918398185203
H           11.50163415249996       -1.28824275073001       -5.64712075908412
H           10.67801950915650       -2.26374728427067       -4.39684348185312
H           12.20827678237904       -2.81469516033273       -5.10127418607036
C           14.39858810392093       -2.00029314603239       -2.86929724528032
H           14.40153609120437       -2.28836611585975       -1.82015889405407
H           15.28336171195797       -1.41283681085104       -3.10478099103590
H           14.41937232719702       -2.91732433980312       -3.47482661019029
C            7.55434321813902        1.43206726073074       -5.28144959650812
H            6.61026601301729        1.27093031784321       -4.76176094052679
H            7.81547049636637        0.48539343714403       -5.79087023598884
H            7.44758219995449        2.19677712324303       -6.04119377741694
C            6.75748977704119        4.10455662872563       -3.96223907715392
H            6.05708392710049        4.36994069372751       -3.16577324170306
C            6.25699298484920        4.29180286390130       -5.18316431954567
H            6.84709445086522        4.17281807353259       -6.07341105034523
H            5.21613842557517        4.55177356864832       -5.30341449692851
C            8.34712848207095        6.76960664497401        0.29939957055549
H            7.52756317134554        6.06891855925503        0.45095846310772
H            8.32871595551448        7.15996588205812       -0.71525035500186
H            8.20726919181347        7.60379272949513        0.99595089296863
C           10.93420033831652        6.51471368824767        2.38199779313754
H           11.53683643573378        5.92578437757695        3.06117151788774
C           10.58569431716151        7.77172841919478        2.64175544353661
H            9.95317759997963        8.31081130025991        1.96125670122779
H           10.95449740328042        8.28992097123471        3.50955434978072
C           15.59616168615798        3.86698820611534        2.15142681543351
H           15.57132085136743        3.19447829505075        3.00824472370766
H           15.41463109460353        4.89228359972980        2.53416528657171
H           16.57830519685252        3.86440124730381        1.68290050831702
C           16.62078831022492        1.41893774148386        0.61910041250812
H           16.55266366490726        1.03800610916057        1.63845819720742
H           17.28758730710492        2.28154802932825        0.58037806720625
H           17.09544042231980        0.62205192127842        0.00984108980036
O           10.58263040434574        1.46461084324315       -0.30552497524331
H           10.68500585571390        0.54774274558396       -0.56839131920053
H           10.02436744419394        1.71370216313783        0.43116406999258
C           14.83929322755681        6.39500953263402       -3.86895625947918
H           14.36163276903050        7.34594330217753       -4.10549638967140
H           15.44584187905036        6.09134732309496       -4.72314254842353
H           15.48424697391396        6.53212768408293       -3.00643312297869
N           12.87197660315690        5.01024294937889       -4.51621171296745
H           12.78788968336937        5.40718381927772       -5.43705944752975
C           13.81035649353996        5.36258807964157       -3.58147900550470
C           12.08992848162226        4.04985998009602       -3.98068098989703
H           11.26933147099275        3.59470012178524       -4.50124087900981
N           12.47549001639102        3.77704021463454       -2.76090510447501
C           13.54443589025465        4.58107862905892       -2.49419486607937
H           14.03988839070539        4.54292919803463       -1.54386609175623
78
 energy: -116.014646487507 gnorm: 0.056367210807 xtb: 6.7.1 (edcfbbe)
Fe          11.54298789899210        2.60898476977661       -1.50461827242452
N           12.12632477472460        0.89432265255625       -2.41695110910112
N           13.13185958607968        2.49796708220495       -0.32422206730480
N           10.87307367513561        4.17969723178983       -0.46255601850778
N            9.90709562312071        2.64847068267612       -2.62235794853313
C           11.44565039252509        0.20191287947851       -3.36655461319115
C           12.16388189041607       -1.00949413668719       -3.73580804132898
C           13.28043925725492       -1.02837159595670       -2.97721042010253
C           13.24516097838107        0.17590529306941       -2.16363887668670
C           14.18746600772924        1.65567692485271       -0.45904217680954
C           15.26135891746539        2.04041887071280        0.41145527429722
C           14.80482376200326        3.13423813051112        1.10958595600751
C           13.47188817548555        3.37840089457128        0.64802649250014
C           11.43820502239463        4.72609717674277        0.63936588224312
C           10.61989882759288        5.80363018095693        1.16633753878690
C            9.56172341813080        5.91774051340927        0.30965270523616
C            9.73711170584499        4.88696006816659       -0.69229279576465
C            8.94396697223301        3.60124322355177       -2.62561963419469
C            7.96734471625509        3.34295457054439       -3.66149942918436
C            8.36164632079109        2.15104235878996       -4.24360885277437
C            9.55985523158341        1.74948107082916       -3.58080112481504
C           10.24099743163073        0.58875690450527       -3.91508696758478
H            9.79020793760355       -0.05159011785530       -4.65595568727708
C           14.24047556434697        0.54388688297300       -1.27911150628514
H           15.12529078899853       -0.06831107475691       -1.21933957477332
C           12.67164611235723        4.38495787328983        1.15558732067006
H           13.04768719171772        4.95164417259294        1.99247197244799
C            8.85565433998316        4.65589957368950       -1.73651942249818
H            8.01955327945590        5.32719639975171       -1.85711024440232
C           11.62199531682572       -1.91574763359209       -4.77953173307033
H           11.47276244237992       -1.31807854762680       -5.67954754408146
H           10.65595897166702       -2.28559771197037       -4.43431521434965
H           12.24225470768560       -2.78161134499844       -5.04803749810600
C           14.40916611969482       -1.98710625509126       -2.85437606455212
H           14.44754896538888       -2.31177148623338       -1.81445616254794
H           15.32385596628227       -1.44443901245334       -3.09290976500791
H           14.36356313591532       -2.88069527848880       -3.48998873092915
C            7.53938944056191        1.45886239209149       -5.27464664653587
H            6.56957896631847        1.26644471164476       -4.80932977271703
H            7.88569110197689        0.50896416566332       -5.72433888669443
H            7.40087650300941        2.16869780399619       -6.08791023305890
C            6.74215394641736        4.06250668045362       -3.96052066789013
H            6.08765001514448        4.34118211684902       -3.13159325192888
C            6.25562275360954        4.28809904204990       -5.17927190684544
H            6.83584970840975        4.15328704501241       -6.07413274360917
H            5.23306692535259        4.62049951727544       -5.31042711581607
C            8.33628404434098        6.75797547084405        0.28067940344508
H            7.48658708510001        6.09244536823702        0.43409405506289
H            8.27711765802197        7.18897331534907       -0.71906966934577
H            8.26102967764915        7.57063087150625        1.01027958082892
C           10.94524315151408        6.52096616911254        2.37152981124119
H           11.54821779829136        5.95629665029810        3.07345949338521
C           10.59370641754331        7.77577849829169        2.64113909100803
H            9.97724480467418        8.33007707058109        1.95844187783962
H           10.92764477500445        8.28183079796579        3.53052269483413
C           15.61333471842721        3.83227854349234        2.14626714648120
H           15.61656460401067        3.20278668057418        3.03828029647008
H           15.34577240788601        4.85836306891534        2.46905376704631
H           16.62900812701195        3.87700625265740        1.74265729523308
C           16.60772837553334        1.44376393770321        0.64469609200186
H           16.60271836985311        1.03637935705312        1.65968209173266
H           17.33055918144549        2.26404626638490        0.60620610830125
H           16.99649274279787        0.64879566639894       -0.02259755236568
O           10.57891920472816        1.43670239674778       -0.26988168466670
H           10.64075963577078        0.51198534896744       -0.52305203194277
H            9.99834693849513        1.67645863877454        0.45765773639115
C           14.83971417005035        6.39604696798734       -3.86868620954858
H           14.36637250072008        7.34795921797075       -4.10484385606932
H           15.44998576425482        6.09631605535643       -4.71995821336694
H           15.48191673544907        6.52900395044480       -3.00547229555452
N           12.87636509760942        5.01259011001904       -4.52342043775118
H           12.78979960614321        5.40882310717859       -5.44440885502900
C           13.81018519763538        5.36380811308920       -3.58727342608649
C           12.09410757202442        4.05091637440680       -3.98258869829389
H           11.27661580137824        3.59501307712603       -4.50026148782108
N           12.47293367793902        3.77836852230683       -2.76092910055293
C           13.54151532208141        4.58256184093968       -2.49906811007230
H           14.03894804974243        4.54883663200157       -1.55237933374002
78
 energy: -116.030085005027 gnorm: 0.047170523745 xtb: 6.7.1 (edcfbbe)
Fe          11.54438591220838        2.60926902574996       -1.50371703033189
N           12.13086389672419        0.90158860015556       -2.42222431983620
N           13.14878594611868        2.51341239902787       -0.33937335238278
N           10.87797405808076        4.18381063819830       -0.46994749058157
N            9.90527766961842        2.64892523968621       -2.63096003737959
C           11.44740246824296        0.21014275471816       -3.36820084135267
C           12.16230061747710       -1.00479147794751       -3.73743994425046
C           13.28485349064280       -1.02356250843882       -2.97817738600883
C           13.25048573706837        0.18618459750838       -2.17142703456109
C           14.20037334167572        1.66475637984340       -0.47027823065501
C           15.26766867482308        2.04423414630242        0.41810922498619
C           14.81574966981601        3.13460930680332        1.11381478289148
C           13.48376679735879        3.39092276736915        0.63937944079836
C           11.43395560372435        4.72419383547379        0.63873908104675
C           10.60579915054198        5.79789967249072        1.16652944430035
C            9.55225992946408        5.91309264420402        0.29941737645884
C            9.74085586748565        4.88737701178946       -0.70262776572394
C            8.94420594692127        3.60433320336984       -2.63399951598031
C            7.96524035471052        3.34364947260730       -3.66549875926841
C            8.35153452843712        2.15606418814266       -4.25164673753622
C            9.55435971195947        1.75017695078875       -3.58866678890285
C           10.24363598389722        0.59275570279481       -3.91921127872465
H            9.79781449678248       -0.04289273187051       -4.66635110178407
C           14.24802597635229        0.55070909148970       -1.28831326394739
H           15.12626498030617       -0.06975449577620       -1.21892452076909
C           12.67310355786759        4.38870806548775        1.14966529485958
H           13.05263744807973        4.95315429307832        1.98526095170985
C            8.85925193616327        4.65863816138443       -1.74508391102037
H            8.01685494247823        5.32221395051652       -1.85967865041753
C           11.61865213840230       -1.91504867436515       -4.77694596032361
H           11.46109429361769       -1.35261864865051       -5.70137557053517
H           10.65037021676321       -2.30978165048327       -4.46020309347157
H           12.27493555923377       -2.76055034666902       -5.00200909854181
C           14.41167195390669       -1.98380742912890       -2.85442565254417
H           14.47842433334110       -2.33654196276549       -1.82224147138103
H           15.35079333225505       -1.47847587441860       -3.09384878731611
H           14.31398820804156       -2.85473274710763       -3.50812175588130
C            7.53263132700999        1.46420676730068       -5.27835369372600
H            6.54582390581886        1.25457418180613       -4.85396626429359
H            7.93979389454245        0.52121736248281       -5.67074095632828
H            7.37962219278943        2.12786036816415       -6.13132250375232
C            6.73035388278857        4.04377711084028       -3.94997019178358
H            6.11234424135056        4.31869383401460       -3.09680484673150
C            6.25259355034889        4.30558387855162       -5.16473860438724
H            6.82077050371927        4.13429981296126       -6.06434238433491
H            5.25095817589110        4.69170622280988       -5.30543628204998
C            8.32748480121001        6.75399407741716        0.27385821234938
H            7.45230188639990        6.11738914673360        0.42350423557016
H            8.23641809480915        7.22168866333879       -0.71080506725324
H            8.30428649043942        7.54141098152869        1.02959760586444
C           10.94355560695488        6.52825195042791        2.36421569049756
H           11.55377720807094        5.98325002882937        3.07616319005737
C           10.59314992932632        7.78056184194537        2.64209256891299
H           10.00404774368405        8.36036136655275        1.95264021574854
H           10.90491013328235        8.27405134126989        3.54724938603020
C           15.62280150713066        3.81681501493784        2.15254337451092
H           15.64486145812159        3.21506975116910        3.06480467957496
H           15.29392463138424        4.82878985276995        2.42669471706127
H           16.65528990493069        3.89730351551365        1.79368763419282
C           16.60403641593283        1.44949457253427        0.65801368235521
H           16.63871014639340        1.02712075235419        1.66701044299499
H           17.36225471773063        2.23887080342775        0.61626749617083
H           16.91871612861838        0.66381170754488       -0.04338870846112
O           10.57971945731182        1.40231008778351       -0.21789166356631
H           10.58191276358347        0.47255467057864       -0.47470371530134
H            9.96393213077465        1.63243208174570        0.48577883943692
C           14.84195122872510        6.39819012067312       -3.86908684670235