72
 energy: -105.877452390405 gnorm: 0.263522577351 xtb: 6.7.1 (edcfbbe)
Fe         -15.85300000000000       23.17500000000000        9.89100000000000
N          -15.95200000000000       21.43800000000000       11.06900000000000
N          -16.49200000000000       24.27900000000000       11.46000000000000
N          -16.26900000000000       24.71000000000000        8.65100000000000
N          -15.60800000000000       21.82600000000000        8.24000000000000
C          -15.67600000000000       20.13200000000000       10.68600000000000
C          -15.65600000000000       19.31100000000000       11.86600000000000
C          -15.90600000000000       20.10900000000000       12.91700000000000
C          -16.09600000000000       21.46700000000000       12.43300000000000
C          -16.53800000000000       23.87200000000000       12.76700000000000
C          -16.77900000000000       25.04400000000000       13.59800000000000
C          -16.88600000000000       26.10900000000000       12.78500000000000
C          -16.70600000000000       25.63900000000000       11.43000000000000
C          -16.38400000000000       26.02400000000000        9.05600000000000
C          -16.11700000000000       26.88600000000000        7.92700000000000
C          -15.83900000000000       26.08900000000000        6.87900000000000
C          -15.91900000000000       24.70900000000000        7.32400000000000
C          -15.58000000000000       22.29000000000000        6.93000000000000
C          -15.39000000000000       21.16700000000000        6.03100000000000
C          -15.30100000000000       19.93700000000000        6.93400000000000
C          -15.45400000000000       20.44800000000000        8.27700000000000
C          -15.45300000000000       19.65900000000000        9.40900000000000
H          -15.26400000000000       18.59300000000000        9.28700000000000
C          -16.36500000000000       22.58100000000000       13.20900000000000
H          -16.44900000000000       22.41800000000000       14.28300000000000
C          -16.73500000000000       26.44400000000000       10.31000000000000
H          -17.05700000000000       27.47800000000000       10.43200000000000
C          -15.70200000000000       23.60400000000000        6.52200000000000
H          -15.61800000000000       23.79000000000000        5.45100000000000
C          -15.97700000000000       19.69600000000000       14.39000000000000
H          -15.78700000000000       18.60500000000000       14.47900000000000
H          -16.98700000000000       19.92000000000000       14.79400000000000
H          -15.20500000000000       20.24500000000000       14.97100000000000
C          -15.38500000000000       17.79900000000000       11.84000000000000
H          -14.58000000000000       17.57900000000000       11.10600000000000
H          -16.30700000000000       17.25800000000000       11.53700000000000
H          -15.05800000000000       17.45900000000000       12.84600000000000
C          -16.85800000000000       25.00000000000000       15.14500000000000
H          -16.21200000000000       24.18100000000000       15.52600000000000
H          -17.90600000000000       24.81000000000000       15.46200000000000
H          -16.50300000000000       25.96500000000000       15.56700000000000
C          -17.14300000000000       27.60100000000000       13.07700000000000
H          -17.16700000000000       28.30200000000000       12.23000000000000
C          -17.34200000000000       28.12700000000000       14.28300000000000
H          -17.33200000000000       27.48900000000000       15.17900000000000
H          -17.51900000000000       29.20700000000000       14.39900000000000
C          -16.18100000000000       28.42800000000000        7.99700000000000
H          -16.09500000000000       28.75500000000000        9.05500000000000
H          -17.15100000000000       28.78200000000000        7.58800000000000
H          -15.34200000000000       28.86499999999999        7.41500000000000
C          -15.47200000000000       26.45700000000000        5.43000000000000
H          -15.40800000000000       25.66000000000000        4.67400000000000
C          -15.22200000000000       27.70000000000000        5.02500000000000
H          -15.27000000000000       28.53900000000000        5.73500000000000
H          -14.96400000000000       27.90400000000000        3.97500000000000
C          -15.29000000000000       21.24400000000000        4.50800000000000
H          -14.42700000000000       21.88300000000000        4.22500000000000
H          -16.21900000000000       21.68900000000000        4.09300000000000
H          -15.13700000000000       20.22600000000000        4.09000000000000
C          -15.08200000000000       18.46400000000000        6.54500000000000
H          -14.98700000000000       18.38200000000000        5.44100000000000
H          -15.94900000000000       17.85500000000000        6.87800000000000
H          -14.14900000000000       18.08600000000000        7.01600000000000
O          -18.22500000000000       22.70900000000000        9.62200000000000
H          -18.39700000000000       21.91500000000000       10.12900000000000
H          -18.82100000000000       23.17300000000000        9.15200000000000
C          -12.76800000000000       22.35500000000000       11.06100000000000
H          -11.94000000000000       22.69600000000000       11.71800000000000
H          -12.34000000000000       21.67600000000000       10.29300000000000
H          -13.49000000000000       21.78700000000000       11.68600000000000
S          -13.59000000000000       23.74500000000000       10.27100000000000
H          -14.15000000000000       24.19600000000000       11.38400000000000
72
 energy: -105.940998050963 gnorm: 0.111796253571 xtb: 6.7.1 (edcfbbe)
Fe         -15.97149844570937       23.12800180847138        9.86981021226693
N          -15.92908650858644       21.44113876899029       11.06886991129341
N          -16.46512141062321       24.29160017285447       11.45946700423786
N          -16.20930363880743       24.71428785635290        8.65104345142825
N          -15.60513401234239       21.83775299770984        8.24305931504994
C          -15.67100843698281       20.14337389004023       10.68918826662256
C          -15.65381217978731       19.30286556173865       11.86614475471495
C          -15.90748255700394       20.10421720323885       12.93126078304038
C          -16.08784753815444       21.45721547396819       12.42647274494414
C          -16.52877110585887       23.88768682883560       12.76468471463891
C          -16.78086966709797       25.04752884068832       13.61284912604797
C          -16.90004381980368       26.13027869111654       12.79032288193737
C          -16.70985232385362       25.63818623818025       11.43624695029320
C          -16.37905104023479       26.01855486130382        9.03397597031478
C          -16.12586381760210       26.89536031465035        7.91052530549467
C          -15.83888603926781       26.09176857701268        6.84453235939788
C          -15.90709048405479       24.71280665995822        7.31887183282832
C          -15.57811755841762       22.26146055947950        6.93986381903004
C          -15.38459279712356       21.12971340834644        6.05600917990835
C          -15.29920890106221       19.97694656254546        6.90250570696554
C          -15.45046209670416       20.47549729603817        8.25050865172492
C          -15.45315036060628       19.68424993135653        9.39875065304243
H          -15.27229035442222       18.61952578465858        9.27926408376235
C          -16.36113124391361       22.58021643449307       13.20288234407527
H          -16.45032065591664       22.41425468293438       14.27158229230616
C          -16.73451976595436       26.43379216958452       10.30459738835248
H          -17.03593267577297       27.46733322458200       10.42948485571705
C          -15.69958258662877       23.58937028822200        6.52837544628370
H          -15.61062330383330       23.77389781970043        5.46295102185233
C          -15.97827365296703       19.70046869972341       14.38206046764181
H          -15.79285944281483       18.62592349441480       14.48123898395409
H          -16.97046852076716       19.91997195306209       14.79167719417593
H          -15.22195343871036       20.23914317549258       14.96542610724049
C          -15.38612338682157       17.81502736273651       11.84038163410197
H          -14.59261407907717       17.58327643675956       11.12103300487746
H          -16.29050093113878       17.26892117001533       11.54420005690235
H          -15.06722106535105       17.46308181544040       12.82698537634705
C          -16.85423434742128       24.99057462657196       15.12727628707118
H          -16.22247710826535       24.18677582894049       15.51726502435388
H          -17.88700999847623       24.81394808178695       15.45368279480311
H          -16.50143504001509       25.93082524002809       15.56007467900874
C          -17.14214863520826       27.57659644487292       13.08333797128255
H          -17.16021569387789       28.25976815370053       12.23388616653590
C          -17.34341457540199       28.11839182022596       14.27989956587144
H          -17.34846070099834       27.51721663536673       15.17687506183440
H          -17.51443754380915       29.18499214364659       14.39454249525762
C          -16.18268678833799       28.40842251030451        8.00371002080876
H          -16.09909823573120       28.74393098309967        9.04171411269359
H          -17.13161645637302       28.77468381515758        7.59211089462907
H          -15.35705350962130       28.85981295344288        7.44662782993102
C          -15.47842342303268       26.46092430406543        5.44632138985920
H          -15.41450994541865       25.65939121293172        4.71126295329206
C          -15.22610179249921       27.69524324642625        5.02394877423937
H          -15.26528462469940       28.53729468980067        5.69744679430029
H          -14.96616743684394       27.89735782337118        3.99002663682587
C          -15.28935932956404       21.22928654906657        4.54729664896187
H          -14.44443389562928       21.86546632880763        4.24417073773700
H          -16.19892654154829       21.67172391349047        4.11501350230712
H          -15.14141642861795       20.24047273592933        4.10047081903551
C          -15.08816045467536       18.51288462313886        6.54137480070368
H          -14.98910574657481       18.39067653234828        5.45722249541622
H          -15.92963316087609       17.88606379219044        6.87261964891870
H          -14.17487165248124       18.11134591459430        7.00655012096214
O          -18.19520169429155       22.70100358364414        9.63426567288665
H          -18.40782596103351       21.91129519137548       10.12665890803267
H          -18.83715929696582       23.17878152193040        9.14202955692656
C          -12.76592779421073       22.34455785613857       11.07091239964548
H          -11.94738950824558       22.70114641250969       11.70759456974314
H          -12.35226510096642       21.68803396947841       10.29914455112166
H          -13.48248253378364       21.78426781844744       11.67812937984013
S          -13.61295425863988       23.73036712294869       10.27066356268849
H          -14.12544094209013       24.21377860552486       11.39976931966156
72
 energy: -105.959842460419 gnorm: 0.044219861168 xtb: 6.7.1 (edcfbbe)
Fe         -16.01577340377507       23.10060814103764        9.85781673342417
N          -15.92827552741348       21.45514762028358       11.05880892386030
N          -16.46812134155226       24.29070896192303       11.45239150368278
N          -16.16606351829287       24.70455811255226        8.65049558025699
N          -15.63702767437178       21.85437533336736        8.25099303216136
C          -15.67053415668536       20.16601229024346       10.68803371061122
C          -15.65033613309134       19.30890057621279       11.85964316705564
C          -15.90767484534489       20.11072965912829       12.93351974949137
C          -16.08249109146470       21.45833872440018       12.41374884574311
C          -16.52385395405196       23.89525608276709       12.75705298247211
C          -16.77919724093197       25.04054059567232       13.61711831385510
C          -16.91305516822727       26.13564198232164       12.79016447894549
C          -16.71459817226320       25.62793372031658       11.43682546475466
C          -16.36419281935853       26.00017488166672        9.01943738474862
C          -16.13343245147864       26.89133243620273        7.90340040835580
C          -15.83909406667408       26.08850814237581        6.82284206570454
C          -15.88996640215455       24.71071247147503        7.31906402038568
C          -15.58353910037356       22.24972097515671        6.95476296794619
C          -15.38113945765379       21.10318396412364        6.08407790214385
C          -15.29985513015081       20.02109145569914        6.88200325313505
C          -15.46068126306800       20.50681729751268        8.24044168724158
C          -15.45600195209594       19.71685723432926        9.39148306900500
H          -15.28093037280461       18.65498534763821        9.26999400891676
C          -16.35343791374719       22.58110282887382       13.19311076553200
H          -16.44906020843465       22.40991227420894       14.25679842920825
C          -16.71919179445537       26.41556304874347       10.29829471573999
H          -17.00148794117818       27.45089049012316       10.42046930608816
C          -15.68854701526259       23.57903629364308        6.53630430790701
H          -15.59688213315548       23.75540512209142        5.47377644242500
C          -15.98043479400435       19.71152010047764       14.36888541012280
H          -15.79806062097455       18.64591969195649       14.47706272231341
H          -16.96182982837333       19.92825195621660       14.78594241741722
H          -15.23541053733554       20.24388351869645       14.95822555381872
C          -15.38759137820375       17.83803370306195       11.83796588008865
H          -14.59997830946799       17.59550725513288       11.12857817569917
H          -16.28176322193987       17.28644350919212       11.54636195622528
H          -15.07721177610455       17.47859480704630       12.81551880010420
C          -16.84762009067695       24.97821998376635       15.10589626652441
H          -16.23109215855154       24.17473616978751       15.49779681193727
H          -17.87309014662588       24.81533923002592       15.43988706568430
H          -16.49203268995561       25.90291928903016       15.54798127204636
C          -17.14559117553421       27.53620344776705       13.08663534678088
H          -17.14971156582043       28.20360600312972       12.23236412982883
C          -17.35129742271776       28.10087040536565       14.27519041731951
H          -17.37300381269786       27.53811747724238       15.18557008420702
H          -17.50636572292160       29.16212063158009       14.37887410736109
C          -16.18725326797550       28.38186885232675        8.00846760954908
H          -16.11352473225014       28.71332571600658        9.03931899063786
H          -17.11980101914405       28.76391132969985        7.59071982118714
H          -15.36370065110890       28.84541625016349        7.47444020178162
C          -15.49113857890988       26.45884251292165        5.46986826121511
H          -15.42256051169128       25.64802190045572        4.75519363837208
C          -15.23459485795105       27.68666879102247        5.02208485782653
H          -15.26530248154994       28.54507591372293        5.65880993058967
H          -14.96842499220177       27.87649665863232        3.99711904555370
C          -15.28744822950619       21.21215794207522        4.58894486355932
H          -14.45231289878328       21.84907251004079        4.28664648289336
H          -16.19006913214285       21.65383226976177        4.15950464270372
H          -15.14361244597387       20.23895772357008        4.12695831408088
C          -15.09259576551076       18.56981678197075        6.53706908224088
H          -14.99224408863734       18.42465378159663        5.46397033925726
H          -15.92482076928148       17.94583175882031        6.87452607975245
H          -14.19159016363993       18.16581735939251        7.00702494342159
O          -18.15765700763551       22.69582134847752        9.64204322019552
H          -18.43640546707428       21.91069361461644       10.11792971162265
H          -18.82767701123915       23.17096091231737        9.14689302435740
C          -12.76304527737384       22.32840153056455       11.08046884285049
H          -11.95502552468248       22.70808670278815       11.69953938109028
H          -12.36029999836415       21.69361462991441       10.29989804889485
H          -13.47804496855316       21.77498349747404       11.67524809248590
S          -13.61313059073892       23.71967840837761       10.26677746493895
H          -14.09919206666223       24.23565805972484       11.39992547066458
72
 energy: -105.965316371938 gnorm: 0.020769772601 xtb: 6.7.1 (edcfbbe)
Fe         -16.03553115835988       23.08843975455124        9.84949714256572
N          -15.92559569920190       21.46763943070741       11.05661745347384
N          -16.46775269447680       24.27933750637994       11.44850017089573
N          -16.14385094651729       24.69563159933512        8.64700385132320
N          -15.65076751624547       21.87119197942329        8.25499434076043
C          -15.67003215086310       20.18151971991460       10.68914200018491
C          -15.64656485613281       19.32215589384374       11.85606806371804
C          -15.90486164813189       20.12132407768799       12.93004149815842
C          -16.07814232597887       21.46473525728863       12.41054061248002
C          -16.52053026132624       23.88722533540462       12.75247614560995
C          -16.77745903797758       25.02275520387259       13.61207204875753
C          -16.91660510203042       26.11802260141420       12.78740986766446
C          -16.71259326214583       25.61388991525040       11.43411656707114
C          -16.34701196435967       25.98657922862785        9.02036328808851
C          -16.13170650473556       26.88252713125038        7.90959977745463
C          -15.83402160301632       26.08786878057680        6.82479128974768
C          -15.87329270818916       24.71202075153879        7.31776664777973
C          -15.58902605973517       22.26784659975049        6.96011623370131
C          -15.38102770424902       21.12350994092679        6.08870708862239
C          -15.30068301856423       20.03486784957249        6.89791137241487
C          -15.47236683588506       20.52521526585322        8.25347615711675
C          -15.46255619781310       19.73529857802009        9.39401657367489
H          -15.28837815114322       18.67661506105408        9.26500433105264
C          -16.34879872087317       22.57867224479466       13.19186017066347
H          -16.44599091283421       22.40466550044689       14.25363804552258
C          -16.70126962781789       26.40113551457822       10.29724209496428
H          -16.96061278539182       27.44220517892541       10.41835720081913
C          -15.67725276871282       23.58621800534461        6.53295386222845
H          -15.57418007854267       23.75257467601325        5.47069730919238
C          -15.98450695747033       19.72717481671055       14.36467361536059
H          -15.80393659490399       18.66107602911742       14.47543435098443
H          -16.96745640448337       19.94728450135068       14.77829630933152
H          -15.24191565406881       20.26169979882934       14.95643469700257
C          -15.38771774700406       17.85384244698412       11.83298343175974
H          -14.59730625409549       17.60964266809682       11.12655077353353
H          -16.28368785946996       17.30574201296538       11.53885732337951
H          -15.08418521294059       17.49631028759594       12.81390760089186
C          -16.83928980068124       24.95426201262920       15.09745094929316
H          -16.23736468857775       24.13369332092330       15.47956076825167
H          -17.86829515129365       24.81090178807762       15.43274293818012
H          -16.46205858927727       25.87018556859561       15.54226328517809
C          -17.14907924934196       27.51021547248083       13.08614960104837
H          -17.13898124980465       28.16574650179157       12.22350453202033
C          -17.36623027291824       28.09067496151307       14.26675849352889
H          -17.42257399922388       27.54854564067011       15.19256896625885
H          -17.50576948574313       29.15571484429362       14.34945366256204
C          -16.19320879790607       28.36756058236411        8.02076200002546
H          -16.14337663625410       28.68503635911351        9.05844536979446
H          -17.11663282883316       28.75205914120185        7.58341067654015
H          -15.35547820674432       28.83328658597672        7.50842092533200
C          -15.49569437668651       26.45372894957743        5.47354499179056
H          -15.42330053136391       25.62834719259065        4.77562397781701
C          -15.24377194433531       27.67489503752444        5.00093262861450
H          -15.27671809443493       28.55617225906635        5.61173005344283
H          -14.97127402464870       27.83875652140366        3.97295427113542
C          -15.28467596211988       21.21416701297481        4.60236205603624
H          -14.44597974366275       21.84767786900406        4.31207067044801
H          -16.19299564442608       21.65037371586914        4.18543749925957
H          -15.14221533272306       20.23408072058358        4.15589818734491
C          -15.09317033259848       18.59777078643980        6.54450536353783
H          -14.99404923708962       18.46618392523931        5.47030466904145
H          -15.93295710882689       17.98993397690332        6.88440145610036
H          -14.19073282513702       18.20925549417244        7.01837674892669
O          -18.16003928887688       22.67938103600320        9.63774835485914
H          -18.48423598496487       21.90486658262280       10.10975296555993
H          -18.82968130018515       23.16254533237450        9.15031836316158
C          -12.76564417209381       22.31824579649106       11.08290388125861
H          -11.95536233431186       22.71051231084778       11.69091141149396
H          -12.36831196079064       21.68748551998364       10.29615806844519
H          -13.47390186726616       21.76197900137342       11.68358126357968
S          -13.62499258594464       23.70671806562817       10.26599481842239
H          -14.04078140522532       24.27657896969743       11.41187682375914
72
 energy: -105.968291477172 gnorm: 0.015194293570 xtb: 6.7.1 (edcfbbe)
Fe         -16.01223876051819       23.08714112145439        9.85316090858055
N          -15.92613533143465       21.48348462283822       11.05259924088311
N          -16.46869780128269       24.26157243542676       11.44480905315829
N          -16.12231790283386       24.68027469200896        8.64619255915577
N          -15.66735403894055       21.89845796910734        8.26980917645786
C          -15.67247612586830       20.19865315359448       10.68954276051066
C          -15.64398470386478       19.33725655498032       11.85105511973248
C          -15.90242867019146       20.13338150309303       12.92496935269241
C          -16.07697098408352       21.47194323766236       12.40671756681999
C          -16.52068767644729       23.87453277389591       12.74878124834500
C          -16.77877936295564       25.00057863253938       13.60665859050749
C          -16.92266155557116       26.09482791472371       12.78420499905494
C          -16.71219975412820       25.59443534154201       11.43204051732762
C          -16.33009869730576       25.96840570588945        9.02469012706550
C          -16.12984696689242       26.87052414680226        7.91959724105012
C          -15.83152909412340       26.08587324508339        6.83002784655442
C          -15.86051304571193       24.71236290111863        7.31693610365054
C          -15.59593486709148       22.28995449979719        6.97352325998915
C          -15.38226221395808       21.14784826566318        6.10535758787972
C          -15.30703019382384       20.06020780097955        6.91867668252199
C          -15.48806629439467       20.55295075018555        8.27002933478164
C          -15.47186413281054       19.75573590667493        9.39552320028729
H          -15.29763741727952       18.70007979293161        9.25524352725909
C          -16.34642731951375       22.57349953756743       13.19412764464415
H          -16.44045706245510       22.39617091252875       14.25439003139083
C          -16.67897124680038       26.38308327896123       10.29929008016607
H          -16.91210281131630       27.42977903631907       10.41956467029975
C          -15.66487228984095       23.59447429819416        6.52869468114405
H          -15.54508036846515       23.74639313708933        5.46644583638974
C          -15.98909957249320       19.74835493755004       14.36101659200871
H          -15.81119259832148       18.68217749540615       14.47924436550390
H          -16.97504609356604       19.97415688081362       14.76674978160968
H          -15.24947996289594       20.28718352188631       14.95400784722935
C          -15.38722146605362       17.87055428469193       11.82520989709539
H          -14.59232410625317       17.62635907584864       11.12329950104333
H          -16.28418391866813       17.32686645573246       11.52433898377457
H          -15.09217082962684       17.51382854061278       12.80965593281252
C          -16.83203475118446       24.93142000764611       15.09099082664542
H          -16.25113989467911       24.08912121339800       15.46304490862403
H          -17.86329759802400       24.81472784906185       15.43259658695875
H          -16.42599215148944       25.83885463718933       15.53210634022478
C          -17.15370113066488       27.48336956953980       13.08579009866114
H          -17.11671493498807       28.13554155779889       12.22119689728805
C          -17.39277361804380       28.06890989837828       14.25891906354155
H          -17.47573657617734       27.54288224220742       15.19357642909308
H          -17.51620293327535       29.13796030696752       14.32237443298295
C          -16.19746274483697       28.35291612689647        8.02841465417386
H          -16.18381579246460       28.66690627579819        9.06985037669903
H          -17.10709448248080       28.73805685377051        7.56211326050255
H          -15.34147477958359       28.81543372515794        7.54084012553247
C          -15.49744644919800       26.44702521375132        5.47675900328412
H          -15.41843490876028       25.60994691723960        4.79328893430113
C          -15.25676164789957       27.66054602616555        4.98045539554421
H          -15.30297640214177       28.56362197877489        5.56284578488320
H          -14.98928447642283       27.79548398185087        3.94554984909423
C          -15.28138000601092       21.22151715679361        4.62348469660177
H          -14.44053232926456       21.84835409133547        4.33072727182423
H          -16.19019518223126       21.65153506184140        4.20462485762451
H          -15.13990031836694       20.23471440564714        4.19100043879547
C          -15.09598774684737       18.63194866345549        6.55990970793348
H          -14.99645567832727       18.51061660038252        5.48468487872572
H          -15.93716191974056       18.02704781327854        6.89622017241477
H          -14.19249047043764       18.24826517964872        7.03175269683534
O          -18.15714505065020       22.65529966668271        9.61369407470876
H          -18.53154401887105       21.91269812831410       10.10356215373900
H          -18.84086567935326       23.15777649199498        9.16232380330199
C          -12.76228291534041       22.30600783591360       11.08323137058509
H          -11.95273259299711       22.70145643538274       11.68719607174005
H          -12.36992471701774       21.67556689458941       10.29361890624124
H          -13.47043568999684       21.75022043488446       11.68613638163944
S          -13.60969396122699       23.70014389283921       10.25724345190652
H          -13.99658121322244       24.30274250422923       11.39469424796942
72
 energy: -105.969436934258 gnorm: 0.018731378444 xtb: 6.7.1 (edcfbbe)
Fe         -16.02998246567407       23.08267531590704        9.84959297300332
N          -15.91867499494640       21.49100638689190       11.05315897402273
N          -16.46396649747326       24.24901463062045       11.44514079949282
N          -16.11306457842124       24.67531003782836        8.64336843532132
N          -15.65472137091634       21.91703095203056        8.28099911127027
C          -15.66718968638677       20.20532111224798       10.69153972048140
C          -15.64088082114080       19.34329149717046       11.84985888518228
C          -15.89910517072207       20.13778575821467       12.92349969342131
C          -16.07104788008765       21.47501766454141       12.40781001984901
C          -16.51703178652713       23.86507316332560       12.75007934654845
C          -16.77941074185764       24.98773395429390       13.60535091611841
C          -16.92188714952444       26.08037940565170       12.78342459271458
C          -16.70330898786655       25.58330994830219       11.43306920304401
C          -16.31366930292940       25.96248433094989        9.03015346445210
C          -16.12271972043898       26.86748596774967        7.92662492610407
C          -15.82635835780687       26.08865013823053        6.83458404431242
C          -15.84709051664094       24.71648656555089        7.31567900923664
C          -15.58674150813882       22.30559072898768        6.98283810117090
C          -15.37954606714523       21.16353414083987        6.11714079994224