72
 energy: -105.980527060306 gnorm: 0.000031520543 xtb: 6.7.1 (edcfbbe)
Fe         -15.90449658740054       23.01511628849161        9.85527927715940
N          -15.88854502646324       21.41940532755171       11.04475993420930
N          -16.21748478430568       24.20116321301366       11.45680504521029
N          -16.01985722857297       24.63041663781717        8.65259939335267
N          -15.64928010790439       21.85087339974703        8.26360626049153
C          -15.69236120508648       20.13099995531296       10.67041499898611
C          -15.76306798596798       19.24754119352706       11.81479496989483
C          -16.02070564037038       20.03694171466755       12.89023101024991
C          -16.09165514996461       21.39282473259394       12.38881232365039
C          -16.34382496486210       23.80621840715561       12.75541565560038
C          -16.52990291891514       24.94101321477188       13.61948803915082
C          -16.51504124294750       26.04832663365458       12.81168984026782
C          -16.31751730901483       25.55831990224647       11.46348714625592
C          -16.16708256389643       25.93062149996089        9.03750688636608
C          -16.17339953580527       26.80389846600626        7.89366297280508
C          -16.01812812870004       25.99992107020468        6.79485992166873
C          -15.92367456927022       24.64565613394069        7.29811571642008
C          -15.58538261195251       22.24007075814497        6.96457515327465
C          -15.34605768727354       21.10308502337995        6.10040185540092
C          -15.26029121186549       20.01901993755541        6.91417245211342
C          -15.45592706168417       20.50814682100117        8.26272449012408
C          -15.46662173789695       19.69632330028969        9.37876398093464
H          -15.30965604433334       18.63951082121559        9.22888055432538
C          -16.30485053792360       22.49325988750621       13.19381017431602
H          -16.44766700559166       22.31754369281406       14.24855449827790
C          -16.29507771167636       26.36827757963166       10.34404168147811
H          -16.39736150452385       27.43052677726975       10.50075859409805
C          -15.71885346371243       23.53418160663908        6.50250786035082
H          -15.63737285257398       23.69177742182653        5.43858089634983
C          -16.20063332533910       19.65958286382215       14.32020630587452
H          -16.12102416196102       18.58306417316323       14.44803412115789
H          -17.18014483271269       19.97588108682045       14.67881523329497
H          -15.44205531433816       20.13562033146976       14.94253167307191
C          -15.58636463591973       17.77011911836865       11.74655659338611
H          -14.60882826183262       17.51926026585142       11.33426552225074
H          -16.34786903680501       17.32419491112621       11.10672727812537
H          -15.66576179781478       17.32487776939567       12.73516546567940
C          -16.63802868922665       24.87915126504086       15.10263392613630
H          -15.97384909603793       24.11679814182315       15.50732152508808
H          -17.65671720168398       24.63522105909876       15.40840301524377
H          -16.37039122509013       25.84054375345853       15.53623729802161
C          -16.64113575228864       27.44430096300302       13.16950142640216
H          -16.06613207805970       28.13666446695520       12.56533253809318
C          -17.39717586342749       27.92030331549927       14.15297184402274
H          -18.02422701781681       27.28434861841627       14.75320507629681
H          -17.43430751416793       28.97378517706217       14.37479152581429
C          -16.38516287992927       28.27639484480807        7.94089754370666
H          -17.11590169192784       28.53813908018198        8.70489075877883
H          -16.74584619905406       28.63164002956044        6.97781805243871
H          -15.45382676666709       28.79593204043814        8.17217156877394
C          -15.97721280895382       26.36099744272325        5.39467179057150
H          -16.40713600812905       25.63695404871331        4.71231555749967
C          -15.45667704942849       27.48056704850511        4.90394134478458
H          -14.97371101893560       28.21049963918243        5.52973741504955
H          -15.47098705624537       27.69197436437099        3.84773510865778
C          -15.22557299784398       21.18642248441531        4.61808663239041
H          -14.40281901228944       21.84438039155652        4.33805995568968
H          -16.14157045294763       21.58417273075284        4.18061730679310
H          -15.04054504528704       20.20456619059740        4.18987683971038
C          -15.02379566159826       18.59024644107312        6.56591888115233
H          -14.89534472371911       18.47011170034191        5.49318025030108
H          -15.86659708948151       17.97526198328273        6.88198260344680
H          -14.12774670089769       18.21861518206778        7.06305657549245
O          -18.13333319646769       22.89365314107257        9.63946037276971
H          -18.41620450572305       23.48755023399523       10.34434925695848
H          -18.26558618202855       23.35935274180256        8.80579519090319
C          -13.03158464744725       22.82416943846020       11.66522831089449
H          -12.04817032853381       23.23837892624676       11.86522449623786
H          -12.98284478325826       21.74077659046858       11.63313232210863
H          -13.75195265675037       23.13718866835434       12.41306673062715
S          -13.58653826130928       23.37005001681277       10.01197580222555
H          -13.63554209014860       24.66930590194446       10.32580738130970
