87
 energy: -128.467673459676 gnorm: 0.000039960178 xtb: 6.7.1 (edcfbbe)
Fe         158.52265484676897      182.49055791365706      144.80576869097348
N          159.88110247348376      183.36762264666831      143.61838605361501
N          157.07078420480502      183.58441707980646      143.96003238307964
N          157.17317927848816      181.61171362046170      146.00102637095046
N          159.97940320025148      181.39547061127402      145.64630342127739
C          161.21966236643536      183.13736935972781      143.59188316158682
C          161.86324409972713      183.96965642543807      142.59936122986153
C          160.87641569550524      184.70800122433090      142.02441993815424
C          159.64495714681792      184.31726993339896      142.67557641510888
C          157.21422788115800      184.50301098000728      142.96851668594266
C          155.94081111917768      185.07349824422477      142.60940778637539
C          155.00833955816469      184.47114695798999      143.41226221634187
C          155.74688170624506      183.55006962570167      144.25626178588408
C          155.83296966214635      181.84539158848915      146.02622040809635
C          155.18696683293476      181.02261967404638      147.01677788368210
C          156.17638404660337      180.27286576351182      147.59647301909868
C          157.41089287041416      180.66841338426997      146.94463656831164
C          159.83580161489479      180.46742231341779      146.62709539054481
C          161.11282418066983      179.87735883125868      146.96364936504173
C          162.03354398250193      180.47587363433223      146.16093787459894
C          161.30455257489950      181.42118709870175      145.34483284845496
C          161.89547707140963      182.23181916935465      144.39153554058137
H          162.96430961414947      182.14967165128090      144.25939585958122
C          158.41032860654502      184.85036602714021      142.36391623342971
H          158.37527988828941      185.59282993578918      141.58092167613614
C          155.15899643748710      182.73862933939137      145.20901003987689
H          154.08668574278875      182.79929686119547      145.32129913608296
C          158.64556921257733      180.11939323140422      147.23677070026204
H          158.68561845263966      179.35582866252224      147.99885456391567
C          160.97053721731595      185.72940559425422      140.94271567883311
H          161.99912343532634      185.84958713553115      140.61070295951291
H          160.60902407764365      186.69574328979451      141.29548588845481
H          160.36524146115187      185.43591523109805      140.08465773400192
C          163.32755425428607      183.96492254054934      142.31678628965213
H          163.65438233607853      182.97608888085892      141.99305896789474
H          163.89322427471507      184.23001434361700      143.21069907013887
H          163.57281540131791      184.67845035092944      141.53383968651821
C          155.73645423769139      186.15722293795832      141.60855278314494
H          156.55155270665355      186.87830155860377      141.64987845238511
H          154.80124511023007      186.67735673568785      141.80656743864517
H          155.69659517121627      185.75090175525955      140.59633024965143
C          153.58045916029835      184.68650551570701      143.47742617544651
H          153.13369132980085      184.57545727157313      144.45914838506732
C          152.79595901047884      184.99281559776421      142.44861117794326
H          153.17244490308397      185.06842855961693      141.44352941460824
H          151.73789140211363      185.15340010977329      142.57494750331921
C          153.73849918259242      181.06932950535233      147.36095326714849
H          153.15231778167441      180.46302493592376      146.66798152016509
H          153.36285808510161      182.09061362123876      147.31434441560225
H          153.58178676711285      180.68727310368070      148.36781033121380
C          156.08056208300027      179.29970641577424      148.66102353195910
H          156.93650772402256      179.24671694305533      149.32427548926393
C          155.05285970335743      178.48359652613604      148.87401494104137
H          154.19767439627782      178.45621016338470      148.22161675905903
H          155.04484155477110      177.79100058903484      149.69960955950467
C          161.30742370514901      178.82382195802410      148.00005924587856
H          160.71451520659937      177.93990714351210      147.76375409444159
H          160.99473392693966      179.18722941747851      148.97941701611117
H          162.35231245450311      178.52879106068849      148.06252968310363
C          163.50612544362622      180.25358792198011      146.08164195627398
H          163.79336357926306      179.92772463344809      145.08127624279726
H          163.82120186568753      179.49289451956142      146.79179371995113
H          164.04740537275032      181.17397305066839      146.30372629645098
C          156.36196207122873      178.71653070980054      141.27862369620226
H          156.53747826309819      177.66287627833762      141.49629938773469
H          156.49991736639598      178.87110061603613      140.20842265630890
H          155.33545608564307      178.95841783039918      141.53573776972647
N          158.64812367173786      179.50424598103262      141.93212068721516
H          159.14892293675416      178.88212697590666      141.31919607959122
C          157.28525339291102      179.57782517912855      142.06008720755335
C          159.18740454119725      180.41252340918302      142.77623500050134
H          160.23907238073880      180.57703110839483      142.88851051236341
N          158.25145412143704      181.05518992135902      143.42941253708395
C          157.06287691476368      180.54759175842963      142.99491431397954
H          156.13296639817352      180.91118622449804      143.38005262950108
C          157.86851076263116      186.46712416138521      148.69310743183570
H          158.17235415659249      187.48394802362955      148.44397986985260
H          158.20700690380454      186.24876823545131      149.70606727591198
H          156.78465062876288      186.41225549747651      148.66936582713726
N          159.78557638044452      185.34690941146906      147.53383201803075
H          160.50729691258334      185.86214810739079      148.01044603886032
C          158.43620736519773      185.49426121257665      147.72545827838914
C          159.96297954095735      184.38945342717042      146.59553935617890
H          160.92004414748007      184.06351029660374      146.24417154986253
N          158.81105346603007      183.92262788840193      146.18232017430168
C          157.85190563192808      184.59975898139828      146.87561934418008
H          156.81247726979151      184.39989805830129      146.71818118563223
