87
 energy: -128.210482805393 gnorm: 0.298366421811 xtb: 6.7.1 (edcfbbe)
Fe          75.39000000000000      101.00799999999998       96.52899999999998
N           77.01500000000000      101.78600000000000       97.52500000000001
N           74.58100000000000      100.29600000000001       98.31999999999998
N           73.76400000000000      100.14100000000001       95.58799999999998
N           76.14000000000000      101.70199999999998       94.80999999999999
C           78.04900000000001      102.46599999999999       96.94700000000000
C           78.97300000000000      102.82299999999999       97.99200000000000
C           78.42800000000000      102.34900000000000       99.16700000000000
C           77.17700000000001      101.70999999999999       98.83499999999999
C           75.16800000000001      100.48699999999999       99.50599999999999
C           74.32100000000000       99.89900000000000      100.53599999999999
C           73.24200000000000       99.33799999999999       99.89500000000000
C           73.41500000000001       99.57800000000000       98.47099999999999
C           72.72100000000000       99.45099999999999       96.14899999999999
C           71.85100000000000       99.05300000000000       95.06800000000000
C           72.35800000000000       99.51700000000000       93.88900000000000
C           73.56800000000000      100.23999999999999       94.25700000000001
C           75.53099999999999      101.53899999999999       93.63100000000000
C           76.33199999999999      102.17700000000001       92.62400000000000
C           77.42800000000000      102.73299999999999       93.25600000000000
C           77.30700000000000      102.41200000000001       94.64999999999999
C           78.21800000000000      102.78000000000000       95.61000000000000
H           79.10399999999998      103.33799999999999       95.30799999999999
C           76.35800000000000      101.12200000000000       99.77600000000000
H           76.67900000000000      101.16399999999999      100.81699999999999
C           72.52000000000000       99.16700000000000       97.48300000000000
H           71.63400000000000       98.60400000000000       97.77500000000001
C           74.37100000000000      100.84500000000000       93.33099999999999
H           74.07800000000000      100.77600000000000       92.28300000000000
C           80.28100000000001      103.57699999999998       97.80999999999999
H           79.84000000000000      104.45399999999998       97.28900000000000
H           80.71100000000000      102.88699999999999       97.05300000000000
H           81.07799999999999      103.93100000000000       98.49800000000000
C           78.96200000000000      102.45599999999999      100.56600000000000
H           78.93000000000001      101.36700000000000      100.78500000000000
H           78.06600000000000      102.93899999999999      101.00999999999999
H           79.88500000000001      102.88600000000000      101.00999999999999
C           78.55300000000000      103.51599999999999       92.62900000000000
H           78.77200000000001      102.69300000000000       91.91600000000000
H           79.50600000000000      104.01400000000000       92.90800000000000
H           77.87200000000000      104.24500000000000       92.13899999999998
C           75.95699999999999      102.20900000000000       91.17399999999999
H           76.68600000000001      101.69999999999999       90.53500000000000
C           75.24100000000000      103.48000000000000       90.77700000000000
H           74.51700000000000      103.95000000000000       91.45900000000000
H           75.43600000000001      103.94900000000000       89.80100000000000
C           71.82299999999999       99.38299999999998       92.48599999999999
H           72.74199999999999       98.93999999999998       92.04499999999999
H           71.79600000000001      100.46700000000000       92.24600000000000
H           70.93500000000000       98.87599999999999       92.05199999999999
C           70.58700000000000       98.25900000000000       95.20000000000000
H           69.78500000000000       98.78299999999999       95.73900000000000
C           70.64299999999999       96.91400000000000       95.22799999999999
H           71.44000000000000       96.37699999999998       94.69300000000000
H           69.89199999999998       96.33499999999999       95.78600000000000
C           72.10899999999999       98.61000000000000      100.56600000000000
H           71.22000000000000       98.01100000000000      100.27600000000000
H           71.78200000000000       99.44299999999998      101.22400000000000
H           72.82299999999999       97.95500000000000      101.10899999999998
C           74.56900000000000       99.91099999999999      102.03400000000001
H           74.48699999999999       98.80300000000000      102.05900000000000
H           73.57500000000000      100.35099999999998      102.26499999999999
H           75.31299999999999      100.23500000000000      102.79299999999999
C           77.61000000000000       96.28500000000000       94.28000000000000
H           77.46899999999999       95.35800000000000       94.87600000000000
H           78.65300000000001       96.31399999999998       93.89999999999999
H           76.89600000000000       96.27899999999998       93.42899999999999
N           78.08300000000000       97.74699999999999       96.28800000000000
H           78.87600000000000       97.21999999999998       96.59299999999999
C           77.35499999999999       97.47600000000000       95.14400000000001
C           77.56600000000000       98.79800000000000       96.89900000000000
H           77.94499999999998       99.22299999999998       97.82700000000000
N           76.53200000000000       99.22099999999999       96.18899999999998
C           76.38600000000000       98.41600000000000       95.08599999999998
H           75.60099999999998       98.59099999999999       94.36100000000000
C           73.24799999999999      106.26600000000001       95.69000000000000
H           72.96199999999999      106.92600000000000       96.53700000000001
H           72.43299999999999      106.27499999999999       94.93499999999999
H           74.18899999999998      106.64699999999999       95.23800000000000
N           72.46499999999999      104.13200000000001       96.81699999999998
H           71.55000000000000      104.47600000000000       97.02600000000000
C           73.45699999999999      104.86599999999999       96.19400000000000
C           72.92200000000000      102.92099999999999       97.08499999999999
H           72.34500000000000      102.13599999999998       97.57200000000000
N           74.17300000000000      102.84500000000000       96.66300000000000
C           74.53099999999999      104.04599999999999       96.10500000000000
H           75.52100000000000      104.20499999999998       95.69499999999999
87
 energy: -128.335029482371 gnorm: 0.162284504358 xtb: 6.7.1 (edcfbbe)
Fe          75.38058957885268      101.00066688133371       96.53475615686504
N           77.00058602178035      101.79291805438181       97.50909751666106
N           74.58751614689444      100.29590931455093       98.29016396790473
N           73.76225393327655      100.15023194213569       95.59102698998757
N           76.13333021119135      101.69254967410406       94.83352239229922
C           78.05261877917773      102.46585631850070       96.96056965210963
C           78.97979439287798      102.82509527596164       98.01334536669178
C           78.44584621940479      102.36095383376860       99.16841943390907
C           77.19043506590597      101.71577642290377       98.83351029034263
C           75.16179435245596      100.48915715798006       99.49344056739031
C           74.32660685998144       99.90957361124556      100.51755978138678
C           73.25026217398690       99.34818128580558       99.87686994473633
C           73.42651069954771       99.59102418015560       98.46545466184938
C           72.72224592888664       99.45347893926343       96.13600715679917
C           71.83356331254471       99.04917499540691       95.06454936926789
C           72.34152797382789       99.51076737325471       93.89834770237393
C           73.56020826581813      100.22568079743867       94.25586774251842
C           75.53975656763639      101.53945277865111       93.63467813939059
C           76.33261635700390      102.18646303276354       92.62464815524321
C           77.42298517581240      102.72565418486820       93.26734426625045
C           77.29034391447261      102.40256517950749       94.65528098057040
C           78.20925073618093      102.77218650853459       95.61968348188960
H           79.08998300672788      103.32919590002204       95.31096115439554
C           76.35868030115255      101.12339087465033       99.77069818524141
H           76.67108528950426      101.16182493198038      100.80940890923749
C           72.53465298616656       99.17651675768272       97.47949116940696
H           71.65149869576307       98.61320660648522       97.77359234309039
C           74.37411263870924      100.84640511151083       93.33295736916700
H           74.08547819657160      100.78555545558702       92.28839931515280
C           80.26499372697960      103.57554204712842       97.76941186121945
H           79.87773977425479      104.47173116073105       97.26882660640609
H           80.74462185591852      102.91517338329476       97.03616104041248
H           81.01914767498434      103.89428788067008       98.50833602842228
C           78.93329746069979      102.43541905358956      100.57951266045907
H           78.93564636115106      101.36838316550666      100.83644434631988
H           78.07913754473627      102.93245383947759      101.05608486206641
H           79.86571277787313      102.88595330144967      100.95171093243412
C           78.52303490338836      103.50032048524182       92.58707198558682
H           78.80468526404260      102.72351860687763       91.86584847571129
H           79.45046292133166      103.97785109950584       92.95166254888352
H           77.90516972847063      104.26339219775045       92.09597506918547
C           75.98686666412311      102.31076077548695       91.18606503631506
H           76.65199487877618      101.73732314852154       90.52558412588178
C           75.27396889852835      103.44060694447774       90.78266769643318
H           74.56225489220094      103.92525441859911       91.45420799707807
H           75.41167456984742      103.90158298675024       89.80409444026681
C           71.85641534114951       99.40212898547054       92.48170283799666
H           72.73254433658825       98.94684466064950       92.00131513615167
H           71.79185673738630      100.46184979772308       92.20285154556355
H           70.95576514024606       98.88275082678027       92.11570474872248
C           70.60900539655945       98.24744548773404       95.25770185806061
H           69.78265667855418       98.77549167928916       95.73744979732422
C           70.63951021445897       96.91570458258964       95.23326550341923
H           71.43496146052601       96.38430342840039       94.71571263740698
H           69.88077983014409       96.33078711500255       95.74719228371384
C           72.14140688290652       98.62223314773422      100.59653640717208
H           71.27073852372389       98.04957664121656      100.23164316869553
H           71.76386546346426       99.41609544815753      101.25664190364576
H           72.78320453717846       97.93177456994377      101.15994278623629
C           74.52521626719769       99.88100778116305      102.02024284634304
H           74.47183451125026       98.78888137072707      102.12578768552085
H           73.56986507680836      100.33367111759227      102.31880408394254
H           75.30989158465673      100.24608356875522      102.70872982815976
C           77.61422306467777       96.28471279330705       94.28169055769227
H           77.47340477126974       95.36406028011272       94.86451975068005
H           78.64238405729355       96.30733739831894       93.89872034676887
H           76.91001283933758       96.27968933959691       93.44165535054286
N           78.08505047639829       97.73448508857685       96.28166102580037
H           78.88273278403601       97.20924924622574       96.59114866944840
C           77.35606171099469       97.46839267904669       95.14576796092143
C           77.55380042978393       98.80259777619709       96.88954582960076
H           77.93171535723494       99.22251507695961       97.81006462934420
N           76.52343627348432       99.23808546065119       96.19416434420162
C           76.38745041386248       98.42261465947284       95.10136955884072
H           75.61047059053443       98.59252010150288       94.37585564445311
C           73.24539485758271      106.26420221734513       95.69508602098672
H           72.96315690989890      106.92462305506055       96.52571299638969
H           72.44424161715317      106.28052131864814       94.94358249728369
H           74.17214764867870      106.63936556132471       95.24487594340033
N           72.46361365640334      104.14413389679723       96.81153152920264
H           71.54318986793180      104.48514047299255       97.02384800625528
C           73.45292109567417      104.87071150988689       96.18990521377110
C           72.93878166949602      102.92085314684540       97.08061637048633
H           72.36406800704466      102.14346742075956       97.56329141853310
N           74.18593197560446      102.82943708137273       96.66816616326675
C           74.52496250299818      104.03390386146721       96.11104837752373
H           75.50778576040749      104.19778247310808       95.70262886132016
87
 energy: -128.399956611076 gnorm: 0.090935348207 xtb: 6.7.1 (edcfbbe)
Fe          75.37385344724670      100.99401386615476       96.54039439021830
N           76.98543319006059      101.79746614369930       97.49902673577837
N           74.59464114675609      100.29816130678390       98.26648084578972
N           73.76527973619982      100.15840578774319       95.59323911484439
N           76.12731913481090      101.68336316794677       94.85128968030348
C           78.05052679328274      102.46597596353699       96.97259104736045
C           78.98742487578032      102.82845175750438       98.02735069207661
C           78.45952344799970      102.36859038879194       99.17406734139043
C           77.19973155595648      101.72098981967629       98.83475499840304
C           75.15763323984109      100.49090753254583       99.48761628366232
C           74.33121496709225       99.91637462301523      100.50782887239514
C           73.25399034474547       99.35334990652240       99.86590590165008
C           73.43663425924485       99.60077983503886       98.46327502383409
C           72.72572946021710       99.45967983510889       96.12384971723645
C           71.81955342434858       99.04608163797890       95.05989241015267
C           72.33387165025069       99.50694870842671       93.90034895361927
C           73.55464220512107      100.21631912984941       94.25412886088637
C           75.54286767881266      101.53928654622398       93.63673611408755
C           76.32794564648897      102.19095146532405       92.62602218645239
C           77.41808121634365      102.72228947315382       93.27300731317808
C           77.27735979238132      102.39233653652460       94.65722263432106
C           78.19821958467534      102.76312280029863       95.62917704403955
H           79.07388953690999      103.31838815953320       95.31318846889393
C           76.35960487005997      101.12652106611799       99.76399303412474
H           76.66276212534389      101.16011194254639      100.80119046502885
C           72.54979549793835       99.18781333902599       97.47345582539768
H           71.67027521225462       98.62363666885810       97.76882308501391
C           74.37527319078475      100.84928914019837       93.33741318067850
H           74.09200122915914      100.79690157643111       92.29471701716128
C           80.24879918723273      103.57399614589148       97.72882488036691
H           79.91480310178086      104.49027903745733       97.24492274783890
H           80.77733606099551      102.94322834954562       97.01522022416094
H           80.95295780240831      103.85237012106251       98.52777384190368
C           78.90485750327757      102.41545156930684      100.59380370732212
H           78.94083065562566      101.36873163051487      100.89143681045856
H           78.09078557289592      102.92506868386836      101.10717391943835
H           79.85137573111589      102.88972328936531      100.88203630841979
C           78.49041631572733      103.48381597061341       92.54710103384588
H           78.83387174245000      102.75364372733627       91.81513989870969
H           79.38700113495977      103.93414327130452       93.01094057315295
H           77.93554735970027      104.28036815672549       92.05168237290738
C           76.01474046535142      102.39471968457055       91.19562918220979
H           76.63563423356672      101.78416938209823       90.52319194539768
C           75.31158876576292      103.40863239442234       90.79551977364936
H           74.62221566735802      103.92533540276172       91.46100652293985
H           75.36828809798580      103.83730248899693       89.79445334409766
C           71.88865423980661       99.42100460753517       92.47687734337221
H           72.72484638522926       98.95384078001864       91.95743945515134
H           71.78902300836081      100.45865797716937       92.15798070001381
H           70.97219499840939       98.88450793399650       92.19239443727898
C           70.62777963301467       98.23886409414131       95.31047780514282
H           69.78538709340037       98.76783348310370       95.74913460943014
C           70.63474230368784       96.91622722117502       95.23786948621786
H           71.43801511199004       96.38793253132249       94.74644251024988
H           69.85978985094407       96.32417069707647       95.70085695120018
C           72.17242100056428       98.63545234373274      100.62354642020573
H           71.32755474931953       98.09253028290449      100.16788241535772
H           71.74882786835153       99.39187665612350      101.28786575661321
H           72.74559415491454       97.91193323297516      101.20584850332749
C           74.48301187898741       99.85308622198345      102.00379012033383
H           74.45655819537578       98.77726513745358      102.18740578224524
H           73.56334381276565      100.31483145223204      102.36809730268888
H           75.31600646950655      100.26402338593425      102.60503485616991
C           77.61588874701731       96.28640238604336       94.28295790708977
H           77.47760935710646       95.36816486012849       94.85611616237418
H           78.63528685040501       96.30475900793930       93.89849587035489
H           76.91948677419883       96.28175743588682       93.44885689878105
N           78.08446368251745       97.72598230705857       96.27915342233648
H           78.88563043131485       97.20403396686341       96.59273057389045
C           77.35352934107775       97.46448822056087       95.14919494632387
C           77.54285135351674       98.80719167954008       96.88241802406991
H           77.92092785446218       99.22327349117019       97.79668747198990
N           76.51553867631706       99.25014798480981       96.20003136545266
C           76.38725569528764       98.42891771519361       95.11531951254817
H           75.61735052536098       98.59138336377801       94.38698388200207
C           73.24550322458960      106.26044251610223       95.69911724138339
H           72.96398184711279      106.92121149489637       96.51931060647948
H           72.45203535256626      106.28353531996522       94.95020284209086
H           74.16231045475682      106.63315751289495       95.24966174405503
N           72.46344271007275      104.15024574835113       96.80715247470134
H           71.53937272120746      104.48711571742747       97.02208667994694
C           73.45211657074266      104.87056156455223       96.18636715758343
C           72.95363491585258      102.91990908603950       97.07819060461172
H           72.38020825869404      102.14888503289029       97.55734792023296
N           74.19524259861119      102.81676230930525       96.67168530196240
C           74.52152787758394      104.02235861612122       96.11712171891789
H           75.49792556669736      104.19378719320156       95.70802089102375
87
 energy: -128.429039742578 gnorm: 0.053706762481 xtb: 6.7.1 (edcfbbe)
Fe          75.37078447050260      100.99075104545946       96.54343318946525
N           76.97203208087470      101.79950606831341       97.49915040958842
N           74.60036417300437      100.30155536172769       98.25827876932533
N           73.77108706232190      100.16720653971460       95.59208780107210
N           76.12442998055249      101.67731423982897       94.85854572778850
C           78.03982120014990      102.46414376052665       96.97853001909243
C           78.98421520859029      102.82874628726675       98.02723214902069
C           78.45746833850579      102.36742035055698       99.18051903438601
C           77.19713325546401      101.72354641379880       98.83700894476769
C           75.15641852480786      100.49190617590060       99.48720337060988
C           74.33006409144328       99.91494385929332      100.50498213714731
C           73.25620928624330       99.35404568511900       99.86259265528568
C           73.44285783126328       99.60673250215643       98.46127371012790
C           72.73290424386998       99.46961467548705       96.11841539922467
C           71.81972261540332       99.04818077636861       95.06117074437925
C           72.33860393063189       99.51031581854292       93.89916786889944
C           73.55630863533412      100.21705308554655       94.25231551986070
C           75.54355099696879      101.53877203236691       93.63851677380782
C           76.33329751243934      102.18960251328730       92.63544200855726
C           77.41853288226707      102.72134107846384       93.27591384888369
C           77.27248711563743      102.38544269201907       94.65997101058970
C           78.18785604899804      102.75510716336750       95.63663626264677
H           79.06093914252871      103.30745779476082       95.31697617976839
C           76.35752545692199      101.12895023900614       99.76048171115377
H           76.65493257079397      101.15875575288146      100.79770710460828
C           72.56190463556506       99.19866464134445       97.46702660317813
H           71.68650429865286       98.63328460371604       97.76268584738628
C           74.37714326256202      100.85309774492899       93.33941154613473
H           74.09665693153762      100.81173556811054       92.29669348998931
C           80.23539459521849      103.57055703972571       97.70406754821944
H           79.95316917021403      104.50807596794466       97.22145929960047
H           80.80931659487496      102.97127951630303       96.99431247164419
H           80.89092267947971      103.81145454960176       98.55484341694242
C           78.89045007908354      102.40426328619007      100.60237621845668
H           78.95027464409701      101.37131456353660      100.95037126301061
H           78.10733672499966      102.91849609590528      101.16252224972531
H           79.84874655483590      102.89791109895648      100.81247276509754
C           78.47095475090300      103.47321273677483       92.52602341344721
H           78.86335567961615      102.78693514072394       91.76896860621099
H           79.33292406103548      103.89448939243557       93.07493489396558
H           77.96892551171527      104.29559207342982       92.00938073872175
C           76.07564151054822      102.41584965928770       91.20924548306481
H           76.67375746664601      101.81570297769711       90.52275094227969
C           75.27050362155825      103.39747547199784       90.76698933590558
H           74.66640918871481      103.96929576972111       91.47441488092394
H           75.28786611059365      103.78254516480874       89.75103609817128
C           71.90670404236286       99.43182081547938       92.47606829368161
H           72.71352481811347       98.95974770723450       91.91145926259172
H           71.78319410615980      100.45413176273981       92.11126630152147
H           70.97816850451940       98.87915229554982       92.27170938097179
C           70.64216021131881       98.23458692584909       95.35324787097677
H           69.78937980378879       98.76057294327934       95.77227797781572
C           70.63259342058525       96.91473935522016       95.24676781646036
H           71.45109276597721       96.38821539670369       94.78273895026096
H           69.81945800928540       96.31392574255274       95.63842152798246
C           72.19066593203208       98.64381140402608      100.63329639652335
H           71.37624452172939       98.13257500125771      100.09210089885070
H           71.73081858368774       99.36617876079524      101.31445835062623
H           72.70336863907336       97.89197444774821      101.24543233765328
C           74.45951405716923       99.83689343464368      101.99098965854043
H           74.44363194851691       98.77047982546831      102.24896292630079
H           73.56070809608335      100.29528562190754      102.41757464148148
H           75.33286592747237      100.28671869580462      102.50337376322523
C           77.61602041615197       96.28939731529996       94.28424725076785
H           77.48094952848592       95.36753225987141       94.84980891132979
H           78.63344969251877       96.30639642571218       93.89770495614245
H           76.92330185841584       96.28579352522995       93.44996069025179
N           78.08054002421886       97.72280097281565       96.28222578535080
H           78.88345765537746       97.20238724032205       96.59655664326051
C           77.34796977009127       97.46347834160892       95.15411262423032
C           77.53612128713841       98.80926950977528       96.88161452413829
H           77.91394430688156       99.22705639340036       97.79174022433081
N           76.50964746463458       99.25443295217021       96.20431811500173
C           76.38288459114797       98.43038360803986       95.12422240083107
H           75.61690733446932       98.58924385453231       94.39410512162374
C           73.24721578538129      106.25573306660824       95.70248892154203
H           72.96504932289740      106.91823554816867       96.51956274267330
H           72.45584723014041      106.28493344984309       94.95359895696515
H           74.16114760635743      106.62841406123312       95.25272772731081
N           72.46533733234419      104.14803869641077       96.80520680353506
H           71.53974194582581      104.48324941466574       97.01971208653387
C           73.45470255410213      104.86568417120792       96.18478168896813
C           72.96275606113903      102.91754734974896       97.07898174551413
H           72.39230591594773      102.14782684466418       97.55702795500973
N           74.20244929119225      102.81113149110054       96.67598199919496
C           74.52320233448607      104.01521526524181       96.12001966433503
H           75.49625257480852      104.19136313116729       95.71060664356168
87
 energy: -128.438897058783 gnorm: 0.060171540785 xtb: 6.7.1 (edcfbbe)
Fe          75.37007719804687      100.99119889763386       96.54212201359955
N           76.95665277155767      101.79883677581327       97.50229363222175
N           74.60394599015160      100.30607001641366       98.26062440011962
N           73.78057800306154      100.17685807598731       95.58912348719230
N           76.12238453802215      101.67456117604867       94.85053882595561
C           78.02234549522575      102.46059665432847       96.97945772503732
C           78.97187749341123      102.82750024935382       98.02065180300634
C           78.44752771846899      102.36541370182813       99.18393363706315
C           77.18803592901797      101.72617724924133       98.83963089399028
C           75.15549781636894      100.49211923692501       99.49352758436041
C           74.32601474241098       99.90935230974411      100.50859936290804
C           73.25603010963582       99.35157553550745       99.86339684273575
C           73.44683495321365       99.60980429616870       98.46125144386951
C           72.74447709105891       99.47919637822079       96.11532740895024
C           71.82942711916513       99.04792493851512       95.06449845463573
C           72.34865045662973       99.51337034889742       93.89815003194460
C           73.55987761446703      100.22341049711507       94.25010544947416
C           75.53797554706257      101.54444319641151       93.62998646284163
C           76.32738393344356      102.19465036487392       92.62728692035317
C           77.42154184097421      102.71383856571127       93.26294508303346
C           77.27162951141929      102.37914951386192       94.65211166568028
C           78.17653318327294      102.74637519602949       95.63752725871242
H           79.05027100155685      103.29582252780291       95.32039262901266
C           76.35318003414808      101.13195999223515       99.76273692940083
H           76.64911021497910      101.16042541557503      100.79997672351472
C           72.57331251023990       99.20747316171177       97.46137492261485
H           71.70012417575219       98.64074608519316       97.75430556268175
C           74.37300176054242      100.86240138181465       93.33526844348476
H           74.09156326711233      100.83117712222511       92.29295694659839
C           80.22222749354638      103.56571331563921       97.69685278673803
H           79.98044768194305      104.51870450319547       97.21631119630665