87
 energy: -128.467297689614 gnorm: 0.000054607845 xtb: 6.7.1 (edcfbbe)
Fe          75.35799836978937      101.01385068582375       96.46086671144835
N           76.90161694728512      101.84483536511479       97.43256600235785
N           74.62287724535159      100.35506370321076       98.20503832829999
N           73.82248558526648      100.15982392059949       95.49430210792957
N           76.08208649596794      101.69423374670335       94.72285163465892
C           77.96485644009459      102.48470694421681       96.87814797392299
C           78.88721687395795      102.92486873162458       97.90257659829240
C           78.34664752964494      102.54392973938761       99.09059125234664
C           77.10847391387533      101.86531923423641       98.77387778732576
C           75.12320724580286      100.59091272870776       99.44580773093931
C           74.30177607115606       99.96167214036723      100.45619908285684
C           73.29814782695772       99.32826816806853       99.79147710607808
C           73.51537909005064       99.58939947869713       98.38549775823341
C           72.83889589105682       99.39796912928180       96.03349117551632
C           71.94797731331052       98.90466119432345       95.00036204057876
C           72.42287013348060       99.41414479897897       93.81954306010145
C           73.58827961164043      100.19110745644358       94.15417705856026
C           75.49693432640494      101.59442450992722       93.50215296427335
C           76.30724135429003      102.25159329678678       92.49355964950470
C           77.42089657447455      102.70761628848344       93.14623000549503
C           77.24662503344896      102.36860877501753       94.53441342824576
C           78.14389909931766      102.72136507788674       95.52940729390359
H           79.03957230485454      103.24389761443726       95.22811065018172
C           76.27670010214256      101.30117984871127       99.72420157233630
H           76.55989500697443      101.40622613812727      100.76091768057999
C           72.69099578796626       99.11842748214619       97.38044134585813
H           71.86328773275453       98.49036916735092       97.67399045281972
C           74.35578461659810      100.86806620089091       93.22122756349164
H           74.06099903118103      100.79627889048298       92.18563708523324
C           80.15886419333684      103.65502492469727       97.63347971628038
H           79.95868113614078      104.60624676486589       97.13917618255053
H           80.80797091824826      103.06766244472394       96.98351347374975
H           80.69323919632883      103.85701248151337       98.55877100059465
C           78.86731369744871      102.74465491637784      100.47321374960991
H           79.03612361541852      101.78576289277802      100.96467339167499
H           78.15296555220712      103.30924394684715      101.07292677481357
H           79.80756373493223      103.29067528898696      100.45773994277157
C           78.57573233624254      103.46593614381374       92.58772785849045
H           78.50387420676941      103.53090556930754       91.50478234502181
H           79.51635782911886      102.97927486924974       92.84704059547025
H           78.60035876964913      104.48044778926460       92.98799440292865
C           76.00213219276878      102.40442460279908       91.08654516513802
H           76.85226086596325      102.32801539287395       90.41630446827520
C           74.80368631605918      102.66617961057145       90.57639856321099
H           73.93693518665776      102.80734403743200       91.19966956707961
H           74.65298704128719      102.77318099604713       89.51468529127534
C           71.84061953143781       99.28296442451048       92.45506321499929
H           72.34491105925764       98.49728668141159       91.88968083189607
H           71.94411714888170      100.21393820837424       91.89988702059982
H           70.78356949925679       99.03240008475041       92.52198540091280
C           70.78919001211116       98.07424927352956       95.23750925916583
H           70.28924152445755       98.22780404828931       96.18737994110636
C           70.30984029669970       97.15488771735714       94.40501994745583
H           70.78937331631019       96.92136147178353       93.47076644467575
H           69.42941215118614       96.58182810268026       94.64542551583034
C           72.17029522684609       98.51789185616984      100.33389052104630
H           72.19514745538198       97.50640199513998       99.92757705386958
H           71.21177672567565       98.96436368533749      100.06682434016422
H           72.22610822093746       98.45257200711163      101.41793771803948
C           74.56776757836712      100.03078104683777      101.92170763389504
H           73.80021245077495       99.50039944501125      102.48031789460407
H           74.58382416380027      101.06722624222137      102.25971124525222
H           75.53399359295537       99.58422414893309      102.15951810011356
C           77.80368222880867       96.37046048761167       94.53644428639254
H           77.43998240043220       95.41510310593404       94.91505174092427
H           78.89268368277683       96.33260461690331       94.50570072902019
H           77.43138290611536       96.50836340688031       93.52614507255869
N           77.66508173905288       97.58673711607058       96.72161006888808
H           78.23308712995119       96.93456340254529       97.23687695336331
C           77.33781302960207       97.48972829944458       95.39397441762510
C           77.08546159435298       98.70929116662913       97.20434957528285
H           77.17005490044636       99.04070126150881       98.21860856351233
N           76.41299978024622       99.32719144209139       96.26528421832077
C           76.56055046546894       98.58143632478969       95.13342548139109
H           76.10022278528997       98.87806101619120       94.21389826075097
C           73.65089649408510      106.33465186211942       96.63125888492736
H           73.37334371662645      106.75489791064670       97.59805390270388
H           72.91287913543354      106.65525118892867       95.89583907655673
H           74.62066711787801      106.72985561568410       96.34542234207414
N           72.63857519900151      104.08066311906865       97.03981222824636
H           71.72011246021729      104.42237232207192       97.27037249709501
C           73.71881408089037      104.85273002057845       96.69916160211781
C           73.03332655600327      102.78757517010841       97.00552652518533
H           72.39424079937341      101.95838802393082       97.22854868079484
N           74.29471837980563      102.69447109827196       96.66476313313014
C           74.73516954097738      103.97012645275727       96.47119968551920
H           75.74718357917570      104.16538200159538       96.18316439980210
