78
 energy: -115.971812336955 gnorm: 0.273009223199 xtb: 6.7.1 (edcfbbe)
Fe          35.32299999999999        4.17100000000000       10.25600000000000
N           37.19200000000000        3.88900000000000        9.69500000000000
N           35.05799999999999        5.51400000000000        8.79400000000000
N           33.48300000000000        4.58700000000000       10.93400000000000
N           35.63400000000000        2.95200000000000       11.79500000000000
C           38.14399999999999        3.05500000000000       10.25400000000000
C           39.39100000000000        3.10800000000000        9.50700000000000
C           39.19299999999999        4.01900000000000        8.49500000000000
C           37.82999999999999        4.46700000000000        8.60700000000000
C           35.95500000000000        5.85200000000000        7.80000000000000
C           35.37400000000000        6.79800000000000        6.84300000000000
C           34.10800000000000        7.03500000000000        7.29500000000000
C           33.93100000000000        6.24200000000000        8.49100000000000
C           32.56200000000000        5.48700000000000       10.41800000000000
C           31.37900000000000        5.60400000000000       11.27500000000000
C           31.56700000000000        4.73300000000000       12.31800000000000
C           32.84700000000000        4.08400000000000       12.08100000000000
C           34.72799999999999        2.67100000000000       12.84500000000000
C           35.31600000000000        1.79800000000000       13.85000000000000
C           36.59700000000000        1.60200000000000       13.42800000000000
C           36.76900000000000        2.27800000000000       12.13500000000000
C           37.94400000000000        2.29400000000000       11.39300000000000
H           38.76600000000000        1.66300000000000       11.73200000000000
C           37.24400000000000        5.35800000000000        7.72400000000000
H           37.85600000000000        5.70200000000000        6.89100000000000
C           32.76000000000000        6.22100000000000        9.25200000000000
H           31.92900000000000        6.83300000000000        8.90200000000000
C           33.42200000000000        3.15800000000000       12.93900000000000
H           32.80400000000000        2.77900000000000       13.75300000000000
C           40.21600000000000        4.39600000000000        7.42400000000000
H           39.98600000000000        3.85100000000000        6.48400000000000
H           41.23600000000000        4.11500000000000        7.76400000000000
H           40.16900000000000        5.48800000000000        7.22800000000000
C           40.65300000000000        2.20800000000000        9.71900000000000
H           40.36300000000000        1.28600000000000       10.26800000000000
H           41.41100000000000        2.75900000000000       10.31500000000000
H           41.08000000000000        1.92200000000000        8.73400000000000
C           36.05899999999999        7.35000000000000        5.56900000000000
H           36.62900000000000        6.53600000000000        5.07200000000000
H           36.76100000000000        8.16600000000000        5.84400000000000
H           35.29000000000000        7.73200000000000        4.86500000000000
C           33.11600000000000        7.83000000000000        6.70900000000000
H           32.13900000000000        7.37100000000000        6.50300000000000
C           33.25700000000000        9.24600000000000        6.33500000000000
H           34.20400000000000        9.77800000000000        6.50900000000000
H           32.41700000000000        9.78900000000000        5.87800000000000
C           30.15800000000000        6.48800000000000       10.98000000000000
H           30.02600000000000        6.58300000000000        9.88100000000000
H           30.31300000000000        7.49900000000000       11.41300000000000
H           29.24600000000000        6.02500000000000       11.41400000000000
C           30.72400000000000        4.43300000000000       13.41100000000000
H           30.79799999999999        3.42100000000000       13.83000000000000
C           29.77300000000000        5.28000000000000       14.05600000000000
H           29.62200000000000        6.31400000000000       13.71200000000000
H           29.18000000000000        4.90900000000000       14.90500000000000
C           34.60399999999999        1.14900000000000       15.04700000000000
H           33.67800000000000        0.64500000000000       14.69800000000000
H           34.33200000000000        1.92900000000000       15.79000000000000
H           35.27100000000000        0.39400000000000       15.51600000000000
C           37.69500000000000        0.90900000000000       14.23700000000000
H           37.68400000000000       -0.18100000000000       14.02000000000000
H           37.51499999999999        1.06200000000000       15.32300000000000
H           38.68700000000000        1.32300000000000       13.95500000000000
O           35.92700000000000        5.73700000000000       11.55900000000000
H           35.12100000000000        6.16000000000000       11.85500000000000
H           36.75500000000000        5.96400000000000       11.79000000000000
C           32.48100000000000        0.00300000000000        7.53800000000000
H           32.75000000000000       -1.01100000000000        7.90400000000000
H           32.42700000000000       -0.01700000000000        6.42900000000000
H           31.49400000000000        0.28900000000000        7.96100000000000
N           34.84800000000000        0.87400000000000        7.60900000000000
H           35.20300000000000        0.18800000000000        6.97400000000000
C           33.52200000000000        0.98400000000000        7.97600000000000
C           35.56000000000000        1.80700000000000        8.22300000000000
H           36.63500000000000        1.93900000000000        8.11000000000000
N           34.74100000000000        2.52500000000000        8.97600000000000
C           33.45900000000000        2.03400000000000        8.83400000000000
H           32.62300000000000        2.48000000000000        9.35800000000000
78
 energy: -116.028983303119 gnorm: 0.107621274669 xtb: 6.7.1 (edcfbbe)
Fe          35.32005240843916        4.16427883247535       10.25560268211830
N           37.21048538767488        3.89004084931114        9.69121443428544
N           35.05492023411725        5.51525808718873        8.77474114774236
N           33.45868574604358        4.58724320121222       10.94159785401108
N           35.62069339758060        2.94431987164507       11.81779811175616
C           38.14419967057478        3.05031436604011       10.25112953471379
C           39.38699516368098        3.09033912170618        9.50010290218232
C           39.19670927116828        3.99981125496282        8.49427090612612
C           37.83686990153962        4.46798529564401        8.61087129353455
C           35.95579193327985        5.84725829865974        7.79423658556219
C           35.38474454814646        6.79682330219958        6.85011921465883
C           34.11299350870405        7.04690926626707        7.29479919728222
C           33.92474219633857        6.22955787060861        8.48499555882845
C           32.56091810142915        5.49090491520977       10.41898532058924
C           31.38126910678669        5.60476595296338       11.26008922052657
C           31.56235234573165        4.73501399869884       12.31156251649369
C           32.84986752519944        4.09014758091680       12.07944794069331
C           34.71659045223160        2.65575215515278       12.83116168215605
C           35.31564076797660        1.79114005461809       13.83079495055520
C           36.60464316973039        1.60112324297725       13.42934896126233
C           36.76781476664236        2.28939220469687       12.15320729542962
C           37.93652495421906        2.29693550528481       11.39800463282032
H           38.75690534947481        1.67297986750414       11.73627468257218
C           37.24799327083777        5.35699088859444        7.72406914789548
H           37.85755602039681        5.70191435164042        6.89703723222387
C           32.76332133886647        6.21764553638510        9.25011710547344
H           31.94221243626795        6.83717234423217        8.90626578905601
C           33.42507817862631        3.15563631574533       12.92695554871229
H           32.81979998743041        2.79223920161812       13.75081888781911
C           40.19998926859409        4.39119488784856        7.43567242725020
H           39.98807399456456        3.86231842860930        6.49734633303524
H           41.21143964618665        4.12326995006894        7.75901604610085
H           40.16914619539239        5.46799587476006        7.23499089145351
C           40.62496732832481        2.22434572977793        9.72217755140288
H           40.36231380658248        1.30697467123581       10.25937375238058
H           41.38925050974416        2.75499254510071       10.30338007379288
H           41.06214106379462        1.93728888012409        8.75832281548787
C           36.05175705674758        7.33558948925691        5.59648104548881
H           36.61816495820819        6.54652587589773        5.08768333606508
H           36.74599511049561        8.14789017437038        5.84464049275715
H           35.30105836010796        7.72409721347198        4.89748344244657
C           33.11173475958072        7.87992032408162        6.69849444378103
H           32.14283957008315        7.41379109965921        6.51074682230740
C           33.25631875762554        9.19197100079494        6.34048230330520
H           34.18015161678930        9.73449421856138        6.51469468326178
H           32.43721306487893        9.74711679706694        5.89405305870636
C           30.17899459657443        6.47590264340128       10.97736470542134
H           30.02956141223389        6.58241390552192        9.89764982767580
H           30.31275456195162        7.47791198744621       11.40466944265789
H           29.27421433036793        6.03093262053864       11.40906644490573
C           30.70316536554732        4.44510310128883       13.42176672033119
H           30.79315797126385        3.44210936699839       13.83935871156765
C           29.79660152900158        5.25892214608185       14.02723564406530
H           29.64282416299640        6.28536073837827       13.71369369143891
H           29.20787379667865        4.90835225940679       14.87000608011400
C           34.61496640524899        1.16825356518381       15.02276323954055
H           33.69806389371833        0.66023424285208       14.69893668248210
H           34.33888752785237        1.92052133662579       15.77221729289977
H           35.25975348847782        0.42078834753354       15.49959318260810
C           37.68812653967306        0.90875681459471       14.22034499432425
H           37.68961941776880       -0.16991889187469       14.02057254940322
H           37.51983688396832        1.05851058873452       15.29347505152119
H           38.67159490774964        1.31372235084835       13.96175849076817
O           35.91367727082277        5.74404069770571       11.55205203484750
H           35.12654353355165        6.18163820994585       11.87403881089983
H           36.78271225654404        5.98934263909349       11.81135040800181
C           32.48492890004120        0.00405723440024        7.53535535565028
H           32.73991290948182       -1.00075553373455        7.89390022192174
H           32.41962662433052       -0.02185418623666        6.44177649423800
H           31.51254358482923        0.28508391978821        7.94914641153871
N           34.83858447454315        0.86304526001141        7.60680365637853
H           35.19945626399920        0.17554351172367        6.96830848034718
C           33.52188913139295        0.97593634632004        7.97921635352365
C           35.54350643789451        1.81709929802168        8.23101915225541
H           36.60769979155074        1.94757489245845        8.11958284926780
N           34.74216232198359        2.54424904110748        8.98182945093467
C           33.47691513899568        2.03534159530465        8.83668552626095
H           32.64491836212945        2.47710905568460        9.35380218610484
78
 energy: -116.041795328977 gnorm: 0.046647299984 xtb: 6.7.1 (edcfbbe)
Fe          35.31797388653985        4.15923125244737       10.25296386309289
N           37.22535176489994        3.89103552080607        9.68702632555521
N           35.05049743686742        5.50719377893377        8.75428083594355
N           33.43834240464837        4.58439441520295       10.94333750493257
N           35.60911873834577        2.93369143044500       11.82896383586822
C           38.14087653618699        3.04788060368008       10.24886561660886
C           39.37931996015425        3.07453264107051        9.49434241148253
C           39.19663316906987        3.98255826133717        8.49219006422944
C           37.83964854606022        4.46622832193270        8.61278325974310
C           35.95453711479590        5.83719697335713        7.78953457342463
C           35.38706843616961        6.78807700839902        6.85666866763228
C           34.11424706648292        7.03886588111151        7.29412858494011
C           33.92208242628026        6.21596322326997        8.48177388085075
C           32.55855345981573        5.48686118578847       10.41462559340983
C           31.38384092356721        5.59891547419470       11.24625823419476
C           31.56337267834512        4.72972300642277       12.29796813099956
C           32.85275991060921        4.09132090474421       12.07004110247445
C           34.71050219081137        2.64243914810693       12.81347380544339
C           35.31419248398860        1.78283695326983       13.81032952683849
C           36.60983201130590        1.60246890331763       13.42664961241410
C           36.76661766532838        2.29988486842648       12.16382533149944
C           37.92888978358543        2.30541579190809       11.40281217625178
H           38.74897537938829        1.69023688180758       11.74597930890657
C           37.25122248367038        5.35433631027564        7.72469486398383
H           37.86198232750758        5.70436495385536        6.90497691259953
C           32.76766298744548        6.21363094307866        9.24799179573708
H           31.95862803102337        6.84838877489283        8.91314223729107
C           33.42809419686724        3.15302848699225       12.91316879447823
H           32.83597370172794        2.81054119979454       13.75158306072444
C           40.18556691887740        4.38369609043415        7.44492097688627
H           39.98125665289062        3.86781984943942        6.50492155526414
H           41.19345081709863        4.12549521484387        7.76076396421476
H           40.15358721104838        5.45403288121792        7.25257478511736
C           40.59561258630738        2.23520343398317        9.72650813004531
H           40.34691486494648        1.32259741921378       10.26189736322316
H           41.35402139431696        2.76838715581030       10.30117751174095
H           41.04162941876805        1.95330368840632        8.77290140854191
C           36.04588235700115        7.32459472897268        5.62722853217914
H           36.60778784961304        6.54552866748934        5.11368316466029
H           36.73730713097316        8.13387553962437        5.86497926022331
H           35.29807363381710        7.71669247708449        4.93866965311617
C           33.10588441395958        7.90162706736969        6.69740517637900
H           32.14171663425002        7.42723461554424        6.53045964405160
C           33.25697277193711        9.15340749146893        6.35933221978463
H           34.17633522576011        9.69471683546290        6.51320933533544
H           32.45938199323270        9.71757447373393        5.90078719514199
C           30.19855415173139        6.46342475351473       10.97300102065715
H           30.03893472298952        6.57803446190804        9.90315197359742
H           30.32690451281977        7.45929365830785       11.40037404130235
H           29.30239619347368        6.02434052546619       11.40890584794294
C           30.69738705422109        4.44594375968424       13.42288900211013
H           30.80110231240949        3.44636829698493       13.83382644404195
C           29.82364046937540        5.24897550537900       14.00411220627143
H           29.66231707941531        6.26927751110277       13.70325568272637
H           29.22652877081358        4.91122393655559       14.83680284479474
C           34.62255523550934        1.18463974231212       14.99667905454459
H           33.70823742491481        0.67839664506534       14.68590149981494
H           34.35185293629776        1.93505083574988       15.73958447223789
H           35.26229548976158        0.44740697613628       15.47809915081558
C           37.68263165782651        0.90813179737425       14.20189228860420
H           37.68901940437372       -0.16408336737763       14.00631597775500
H           37.51969758442566        1.05316644051766       15.26895751614300
H           38.66171181493763        1.30831848120092       13.95405363940758
O           35.91292857144989        5.77450750098973       11.53478463707160
H           35.15354616756382        6.22102038917165       11.91730209403743
H           36.78811284114764        6.01269634095935       11.83880424301342
C           32.48599820157210        0.00806113678924        7.53621673671132
H           32.73105844927582       -0.99459739317996        7.88614180085525
H           32.41827570611994       -0.01771139052249        6.45009352414766
H           31.52054057229866        0.28848554773969        7.94197788021861
N           34.83362980381484        0.85677468728702        7.61172146871226
H           35.19982813160594        0.16972963235396        6.97208308503819
C           33.52214226509420        0.97146903599847        7.98860112743329
C           35.53044231488190        1.82899908601310        8.23853449816967
H           36.58652471418590        1.96181157499483        8.12572248236395
N           34.74163929957857        2.55717530833963        8.99104036866298
C           33.48856607539712        2.03805425280288        8.84316861746033
H           32.65682049443053        2.47358360141186        9.35620498588059
78
 energy: -116.045899672921 gnorm: 0.021948477160 xtb: 6.7.1 (edcfbbe)
Fe          35.32004499765345        4.16574401445782       10.25561100760780
N           37.22510168048270        3.89222510192079        9.68496084717325
N           35.04652026049386        5.49014534217790        8.74658298822731
N           33.43384554398990        4.57414597543513       10.93464354604766
N           35.60885158864347        2.93538702646663       11.82518942092011
C           38.13451647474414        3.04865023455920       10.24671732517185
C           39.36783296470448        3.06673825593612        9.48948021496911
C           39.18892131373776        3.97185657960499        8.48699546221600
C           37.83550650791322        4.46192334431246        8.61041425646550
C           35.95064450362355        5.82337498987159        7.78832532587626
C           35.38115352373681        6.77572508780055        6.86303105085264
C           34.10807829690960        7.01791140932425        7.29674160556688
C           33.91926662107667        6.19751214214149        8.48064438770012
C           32.55812030276305        5.47603739343201       10.40780947985062
C           31.38592493454722        5.58595876667446       11.23725202229416
C           31.56655496393086        4.71518113070983       12.28470723298365
C           32.85485449201080        4.08226384384741       12.05865631429375
C           34.70916039956075        2.63431726419459       12.79778251810279
C           35.31416494507116        1.77785504826206       13.79352747692323
C           36.61078815678898        1.60227087696080       13.41624059709447
C           36.76756145541464        2.30781530975893       12.16177435781047
C           37.92764448214606        2.31537409345463       11.40481321919168
H           38.75032830317118        1.70971280377046       11.75653542239931
C           37.25011813590991        5.34996682605836        7.72359856318533
H           37.86409007237346        5.70831345513597        6.91018108740461
C           32.76839586020752        6.20562551287696        9.24627259322112
H           31.97052059823687        6.85954051682018        8.92164298836431
C           33.42943091147199        3.14683511262457       12.90306257751445
H           32.84697268989577        2.82169821456341       13.75435603856179
C           40.17493877914686        4.37921113288523        7.44544042758894
H           39.97252050393964        3.87190452706373        6.50089096521277
H           41.18315003467185        4.12374394337535        7.76020536806557
H           40.13642831394011        5.45085719761539        7.26577935186516
C           40.58098486135128        2.23835087652259        9.73638700838914
H           40.33349006827369        1.32834070038243       10.27520344811350
H           41.32710467460821        2.78490007784041       10.31369249869116
H           41.03538558922011        1.95788417467039        8.78727380208132
C           36.04355245290350        7.31971847989511        5.64657624615746
H           36.60342210860175        6.54215522063972        5.12982147280058
H           36.73594889575592        8.12382799401513        5.89489413700777
H           35.29397235997632        7.71994991209026        4.96657452940065
C           33.09384127724081        7.88167449782514        6.70499491874696
H           32.12303029043180        7.41478471889275        6.56083248151028
C           33.27176700257626        9.14448894591331        6.34083679863977
H           34.19545533220130        9.67282570001267        6.50510491169582
H           32.47390158523692        9.72515716008729        5.90505143886757
C           30.20795793599456        6.45383664839716       10.96740786205855
H           30.04534500672180        6.57216441379079        9.89879551707311
H           30.34391793201287        7.44705325378534       11.39702390494230
H           29.31514588085085        6.01568804074245       11.40822712791761
C           30.70186757446972        4.42937054254106       13.41047948537427
H           30.81105724517233        3.43299136802322       13.82462370498454
C           29.82825242093949        5.24659812297459       13.98404399631846
H           29.68621240461539        6.26978444927952       13.68635522291470
H           29.23286194900509        4.92081101761749       14.82143457189142
C           34.62358073559952        1.19768853011914       14.98101359002565
H           33.70749802842916        0.69353067420304       14.67554117887865
H           34.35945790757377        1.96209507499019       15.71096392666902
H           35.26436670938630        0.46710194914930       15.46818769138352
C           37.68200290989942        0.90082986034372       14.18180991490822
H           37.68789193705212       -0.16956966900179       13.97801721110183
H           37.52146683362918        1.03814024318002       15.24957213632838
H           38.66122183779857        1.30162545012684       13.93683308982161
O           35.92325406533830        5.83699917231074       11.50495404433604
H           35.18232264174855        6.24903092109623       11.97840744248137
H           36.79444822425278        6.02729550406735       11.87660549577400
C           32.48480182137831        0.01588312732010        7.54008511561563
H           32.72151450906861       -0.99126562572582        7.88243923359772
H           32.42048398290040       -0.00358411159975        6.45369145536659
H           31.51856267666391        0.29839415692374        7.94116364102674
N           34.83286641380516        0.85999370008146        7.62402796656865
H           35.20105173000813        0.17346511950245        6.98460729239910
C           33.52199479927584        0.97312080062505        8.00321774566420
C           35.52562240255856        1.83959575409188        8.24786676353437
H           36.57900126015274        1.97906595786394        8.13052432096705
N           34.73867200826807        2.56635272003018        9.00176573936960
C           33.48929625003299        2.03997100737749        8.85809001409490
H           32.65619285411054        2.47106089289208        9.37111386378724
78
 energy: -116.047344809616 gnorm: 0.053850623947 xtb: 6.7.1 (edcfbbe)
Fe          35.32027310962319        4.17385736112247       10.25271612119142
N           37.22055936434322        3.89542779143446        9.68128934507485
N           35.03988464680479        5.46517059215383        8.73782833894933
N           33.43527265299142        4.56425264856669       10.92442100689742
N           35.61422446351087        2.95055973712113       11.82013447824912
C           38.12713582621532        3.05367360929598       10.24315374474314
C           39.35530274714391        3.06120082913237        9.48321894265833
C           39.17887019448510        3.96155960525647        8.47797390949539
C           37.82842143878518        4.45702612823795        8.60437086694553
C           35.94471794670093        5.80892753333102        7.78767415216757
C           35.37467790498700        6.76642829494167        6.87044453385102
C           34.10077707755438        6.99805957977073        7.30116446532244
C           33.91389550458155        6.17183150507469        8.47596245427372
C           32.55857753797854        5.46273663205902       10.40031284058600
C           31.38734877093167        5.56987618210797       11.22873494879045
C           31.57054102953458        4.69750888841675       12.27184235772335
C           32.85817853026570        4.07089371131482       12.04570336249459
C           34.71311590614336        2.63511204786002       12.78413447803762
C           35.31511547176652        1.77316740490739       13.77491723310731
C           36.61226037365034        1.60417937674008       13.40248445618439
C           36.77052547761211        2.32041939399020       12.15645502129476
C           37.92946784409008        2.33024462137843       11.40572462571071
H           38.75548350868480        1.73498686684832       11.76669138554350
C           37.24698399643003        5.34622959157237        7.72006610394296
H           37.86393981733468        5.71475906286372        6.91349723801452
C           32.76703305410904        6.19415522712166        9.24287402504774
H           31.98179529379102        6.86840281493004        8.92947896402017
C           33.43298605701732        3.14296041097207       12.89542527294327
H           32.85801922329602        2.82684624683239       13.75284457011726
C           40.16329498389715        4.37525202207470        7.44012227824574
H           39.96127703187488        3.87843507122045        6.48936493637035
H           41.17297983377317        4.11973356523966        7.75279961789267
H           40.11770607182322        5.45014714790669        7.27587520329455
C           40.56967456398826        2.24041662853084        9.75018714757462
H           40.32064247872085        1.33301250964305       10.29379301315639
H           41.29925989125801        2.80195855757023       10.33642266227997
H           41.04087750021163        1.95729102057780        8.80938267060967
C           36.04332137573260        7.32025716792104        5.66396031466204
H           36.59937549685132        6.54346145554787        5.14065526883037
H           36.74142111897779        8.11438091215329        5.93058838132683
H           35.29540981549001        7.73615773972728        4.99108567201622
C           33.08178357936557        7.86309374703791        6.72273967763650
H           32.10202369886388        7.41293346126737        6.60122176844936
C           33.27843560060198        9.12829123589726        6.35064104240376
H           34.23080791273283        9.61886943360839        6.47151349590340
H           32.49301837656830        9.71279200498856        5.89960372062443
C           30.21371186096520        6.44213520879134       10.96032196145681
H           30.05033695374557        6.56233859297979        9.89141457976844
H           30.36131679805097        7.43433756084145       11.39048212212343
H           29.32090974247548        6.00756830505564       11.40540402360022
C           30.71113678939970        4.41015407309539       13.39872044483271
H           30.81185345260367        3.41281536380856       13.80853312724448
C           29.84328335731386        5.24690234694793       13.96909004577258
H           29.71180311608191        6.26557468688204       13.65297761441401
H           29.23538653700842        4.93017153961777       14.80127452845632
C           34.62159721994150        1.21108938360973       14.96570287555120
H           33.70071546208970        0.71048931721241       14.66857649664571
H           34.36533234056963        1.99564912492252       15.67896250658172
H           35.26009177470964        0.48628719376874       15.46476518070954
C           37.68285080239309        0.88872104624638       14.15491530202860
H           37.68393501440405       -0.17916013199721       13.93249476530029
H           37.52677114332867        1.00981997863227       15.22636180544461
H           38.66353150427667        1.29009966579018       13.91133132233157
O           35.93609694376092        5.93248503530247       11.45000571759847
H           35.22110616133710        6.27002315893885       12.05225375335240
H           36.78966388949771        6.02628827019856       11.95419736994946
C           32.48074142054720        0.02850728585258        7.54795747031538