78
 energy: -115.914752327573 gnorm: 0.393984508004 xtb: 6.7.1 (edcfbbe)
Fe          14.38700000000000       54.43500000000000       18.97500000000000
N           13.10300000000000       55.86900000000000       18.39800000000000
N           13.87600000000000       53.38999999999999       17.34400000000000
N           15.84100000000000       53.18100000000000       19.41200000000000
N           14.89300000000000       55.55900000000000       20.56000000000000
C           12.81200000000000       57.05499999999999       19.07000000000000
C           11.76300000000000       57.75500000000000       18.38800000000000
C           11.45700000000000       57.05100000000000       17.27700000000000
C           12.26600000000000       55.86800000000000       17.29500000000000
C           12.96800000000000       53.71500000000000       16.34400000000000
C           12.91100000000000       52.65400000000000       15.37800000000000
C           13.84600000000000       51.75300000000000       15.68300000000000
C           14.44000000000000       52.18700000000000       16.93300000000000
C           16.21200000000000       52.11000000000000       18.63400000000000
C           17.35200000000000       51.44800000000000       19.24800000000000
C           17.66000000000000       52.12400000000000       20.35700000000000
C           16.78600000000000       53.27500000000000       20.40800000000000
C           15.77700000000000       55.19700000000000       21.55800000000000
C           15.72600000000000       56.15899999999999       22.64000000000000
C           14.68800000000000       56.99399999999999       22.35800000000000
C           14.17800000000000       56.63099999999999       21.06900000000000
C           13.44200000000000       57.44499999999999       20.23100000000000
H           13.35100000000000       58.49299999999999       20.51500000000000
C           12.23000000000000       54.88200000000000       16.31200000000000
H           11.57300000000000       55.04300000000000       15.45700000000000
C           15.50500000000000       51.63000000000000       17.56500000000000
H           15.84200000000000       50.67300000000000       17.16800000000000
C           16.70800000000000       54.18400000000000       21.44700000000000
H           17.44400000000000       54.09300000000000       22.24600000000000
C           10.50700000000000       57.41000000000000       16.13100000000000
H           10.05100000000000       58.40400000000000       16.32500000000000
H            9.69900000000000       56.65100000000000       16.06100000000000
H           11.07100000000000       57.45300000000000       15.17500000000000
C           11.20600000000000       59.09199999999999       18.86200000000000
H           11.88800000000000       59.91100000000000       18.54600000000000
H           11.12900000000000       59.09500000000000       19.97000000000000
H           10.20500000000000       59.26299999999999       18.41100000000000
C           12.01200000000000       52.73199999999999       14.15700000000000
H           12.29600000000000       53.61400000000000       13.54300000000000
H           10.95400000000000       52.84099999999999       14.47700000000000
H           12.13100000000000       51.81300000000000       13.54400000000000
C           13.90100000000000       50.27000000000000       15.26600000000000
H           13.86000000000000       50.09000000000000       14.18600000000000
C           13.98200000000000       49.24500000000000       15.91600000000000
H           14.03000000000000       49.28299999999999       17.01400000000000
H           14.00800000000000       48.26599999999999       15.41400000000000
C           18.14800000000000       50.41299999999999       18.49200000000000
H           18.11800000000000       50.64300000000000       17.40500000000000
H           17.70900000000000       49.40600000000000       18.66000000000000
H           19.20499999999999       50.42899999999999       18.83400000000000
C           19.03700000000000       52.20300000000000       21.03000000000000
H           19.73600000000000       53.03200000000000       21.07600000000000
C           19.19500000000000       50.89100000000000       21.60200000000000
H           18.40700000000000       50.13200000000000       21.48400000000000
H           20.10500000000000       50.63300000000000       22.16300000000000
C           16.47800000000000       55.95999999999999       23.96700000000000
H           17.57100000000000       56.06200000000000       23.79300000000000
H           16.27000000000000       54.94500000000000       24.36700000000000
H           16.15600000000000       56.73000000000000       24.70000000000000
C           14.11200000000000       58.12100000000000       23.24200000000000
H           14.75200000000000       59.02500000000000       23.15500000000000
H           14.09400000000000       57.79299999999999       24.30300000000000
H           13.08400000000000       58.37400000000000       22.90500000000000
O           15.65000000000000       55.23699999999999       17.86100000000000
H           16.48500000000000       54.81300000000000       18.06000000000000
H           15.51700000000000       55.88199999999999       17.26300000000000
C           11.85000000000000       51.95800000000000       23.22800000000000
H           12.00500000000000       50.86100000000000       23.31500000000000
H           10.78000000000000       52.18600000000000       23.41800000000000
H           12.48700000000000       52.47300000000000       23.97800000000000
N           11.59000000000000       51.91100000000000       20.72400000000000
H           10.85600000000000       51.23200000000000       20.72500000000000
C           12.22600000000000       52.40800000000000       21.85100000000000
C           12.13200000000000       52.49900000000000       19.66100000000000
H           11.83500000000000       52.28899999999999       18.63400000000000
N           13.05800000000000       53.35000000000000       20.04800000000000
C           13.13300000000000       53.33400000000000       21.41900000000000
H           13.81800000000000       53.97600000000000       21.95800000000000
78
 energy: -116.001311856200 gnorm: 0.133738868913 xtb: 6.7.1 (edcfbbe)
Fe          14.36093287336043       54.43038282050108       18.97346824883783
N           13.07614915600548       55.86340869847957       18.40497507628185
N           13.88079021211330       53.38905827434086       17.32882709630949
N           15.83486636160809       53.18302379517826       19.40999912139657
N           14.87933300120025       55.54052566920723       20.57552309271957
C           12.80903811222123       57.04449081846307       19.06486249450096
C           11.77428485345964       57.77276538179539       18.37882554892863
C           11.45719828696741       57.05756326946570       17.26660613973665
C           12.26851586938974       55.86881752275531       17.29674790775239
C           12.97191175397995       53.71491831677358       16.35001548053269
C           12.90575896120633       52.66537660535503       15.36413024613410
C           13.82015671584317       51.72553177573674       15.70761927831287
C           14.43300451614106       52.19348499130213       16.93652319171501
C           16.19326086919714       52.09657339737804       18.65884527602243
C           17.37076975544003       51.46779824467441       19.21834718709249
C           17.70827137937116       52.18621653217930       20.31857694924824
C           16.75888999241152       53.27246644212224       20.41690340182394
C           15.78893719259796       55.21481277866970       21.54886615395531
C           15.70504845107462       56.13869301007369       22.66201060977544
C           14.69134519763823       57.00204807044734       22.36480632722280
C           14.21868619749573       56.64949175700320       21.04987737864997
C           13.43545561425135       57.44679843292680       20.23066171003125
H           13.31798950346040       58.48441398630376       20.52849376153331
C           12.23256738566803       54.88179706643478       16.31988483255903
H           11.57782692063132       55.04150327158722       15.46880472861614
C           15.50180214402648       51.61438673763400       17.56949027738478
H           15.85078559655242       50.67376933563546       17.15968320677690
C           16.70729589860119       54.18799974448842       21.44901086301270
H           17.44270741131610       54.09207030628610       22.24095003057469
C           10.51000384891531       57.40852165185910       16.14349765714062
H           10.05632628328275       58.38999450238112       16.32182882193614
H            9.71022169233127       56.66155981969376       16.05985091910986
H           11.05900787366594       57.44998576406821       15.19299264189723
C           11.21113874220588       59.08639942869073       18.85625194479539
H           11.87733110066848       59.90479178706725       18.55185255052674
H           11.12767467549973       59.09505889519159       19.95003121380098
H           10.22048105554741       59.26210651876498       18.42011571879830
C           12.01462153430014       52.73065135825302       14.15752847585230
H           12.28927850492601       53.60087508242357       13.54688484829278
H           10.96748788419921       52.83844141140307       14.46716574324204
H           12.12437634346791       51.82457113918771       13.55159643680254
C           13.90920922758632       50.31294915865814       15.22963544548547
H           13.85593992384619       50.13838490135308       14.15717052733950
C           13.98827902030892       49.22056083696447       15.94005431867174
H           14.02814440586584       49.25749869392363       17.02334499573449
H           14.00793527831455       48.25452765585548       15.44652133391918
C           18.14627531174315       50.41073207454144       18.49456434074208
H           18.11976501627935       50.63104072433747       17.41999399457553
H           17.71973726666243       49.41280293868531       18.65830794451247
H           19.19016240985286       50.42094366338898       18.83189081716324
C           19.00877772253977       52.13523964100769       21.05554600978907
H           19.69733410452115       52.97771714401947       21.08710852822790
C           19.21376571303189       50.91112652141616       21.60279575918262
H           18.43846335350471       50.15650187072022       21.49292076571039
H           20.10686103888031       50.64227054001532       22.15597190985477
C           16.47181366858728       55.96473758811108       23.95567938845705
H           17.55390235743338       56.06150638425185       23.79372728427358
H           16.27390012101781       54.96394424710562       24.36186483942816
H           16.16141968894178       56.71829081286042       24.68821063227892
C           14.12074083360629       58.11158485200940       23.23035371931720
H           14.74458650479936       59.01246251602941       23.15732161999822
H           14.09273114959431       57.79797176082093       24.28203085427455
H           13.10365687867005       58.36667178756191       22.90917686497488
O           15.67422487664640       55.25158700562862       17.87090036899602
H           16.51609404640710       54.82578804299759       18.04104504189554
H           15.53952976037632       55.91980306064820       17.22622095043848
C           11.84757099898744       51.95475150686722       23.22834545742037
H           12.00029156131385       50.87186511763719       23.32110693593876
H           10.79238260675975       52.18086038550263       23.42508837384664
H           12.47416063576255       52.46500434543108       23.96695472472348
N           11.59161383895228       51.90831763411853       20.73591552716368
H           10.85502483444674       51.22558718910534       20.73205815224769
C           12.21507689378179       52.40564168317542       21.85890563086010
C           12.13785525086632       52.50787531092540       19.66554199254384
H           11.84588298267413       52.29963177780971       18.64772293819230
N           13.05723666582736       53.36133892349609       20.04719373437600
C           13.12115227455807       53.32136327351949       21.41319131812378
H           13.80297205481234       53.95497401731719       21.95168436968930
78
 energy: -116.027807906828 gnorm: 0.045545755873 xtb: 6.7.1 (edcfbbe)
Fe          14.34664721915726       54.43216221109922       18.97194579415469
N           13.05067898945909       55.85450531376709       18.41624315392722
N           13.88598976914816       53.38513221037264       17.32068473096385
N           15.81710100429214       53.16751902418144       19.41878144646458
N           14.87951094703974       55.53851182451551       20.58304094681028
C           12.80319833795646       57.02927024368924       19.06471726487170
C           11.78745068332900       57.78610919197717       18.36860699364027
C           11.46154401098280       57.06400016019496       17.25880422658878
C           12.26675281224857       55.86456268481753       17.30396636424845
C           12.98012434782902       53.71131373021014       16.35684976502951
C           12.90646843747854       52.67002577664853       15.35793968118008
C           13.78585002167469       51.68903694663681       15.74495234876585
C           14.41693804733042       52.18839505044549       16.95386653249746
C           16.17535753619784       52.08376803216474       18.67698217122269
C           17.38383587511355       51.48767099198588       19.19381620331135
C           17.74465957970276       52.23659820943260       20.27969939049991
C           16.74157899163159       53.27174051181696       20.41490603302838
C           15.78879501434085       55.21947494879991       21.54519804550360
C           15.68787308612784       56.12134945000686       22.67398706908331
C           14.70230759267450       57.01290779770692       22.36052356962309
C           14.25356981145406       56.66527841725398       21.02901913994017
C           13.41680640884037       57.44123618084095       20.23728798610444
H           13.25259451543820       58.46393083761094       20.55866137378067
C           12.23498336883383       54.87788956494165       16.33059870017005
H           11.58198271580014       55.03663957942158       15.48335102531732
C           15.49539890965850       51.59526222706864       17.57572906391300
H           15.86011397006494       50.67317479083896       17.14728542029174
C           16.70620030923936       54.18871326282894       21.44825057514245
H           17.44494068863258       54.09127875252196       22.23163790894103
C           10.51506328181837       57.40837902194794       16.15511251118150
H           10.06061387383406       58.38096480538582       16.32566143044255
H            9.72158891684802       56.66655756369394       16.06579762153982
H           11.05016783236346       57.44695137107882       15.20516970981311
C           11.22063938427385       59.08325870831060       18.84623359321112
H           11.87224090891229       59.90842388466360       18.55581883708034
H           11.12881941745001       59.08930327003996       19.93100665379969
H           10.23531735492082       59.25823287418391       18.41991209103949
C           12.02009248337322       52.72736344252790       14.16050720922148
H           12.28367067320958       53.58914297151765       13.54625768733092
H           10.97760219320213       52.83454395030159       14.45924732842716
H           12.12056070752405       51.82838276780010       13.55946213824955
C           13.90504524198222       50.33836829235114       15.21971327826087
H           13.85044332980535       50.18856316071941       14.14753698856552
C           13.99001567239293       49.22903035484265       15.94733163999703
H           14.02270602837022       49.25411484936754       17.02128337418081
H           14.01582690827252       48.26860711032138       15.46266008024154
C           18.14713888413696       50.41360819678774       18.49659915287518
H           18.13020983716983       50.61171334425770       17.42545931874918
H           17.72188960907222       49.42493787574718       18.66505219821251
H           19.18070792626429       50.40994678295983       18.83720845619414
C           18.97944783249076       52.08485563385669       21.05921552689259
H           19.65185721107474       52.93823498750911       21.10262522094736
C           19.22443026612518       50.91983268712784       21.60874708514736
H           18.47425981152096       50.14972625896798       21.50997341916822
H           20.11337590089517       50.66054384547360       22.15617329635351
C           16.45980520983010       55.96595079499397       23.94437650157257
H           17.53323376061190       56.06348467058098       23.77983283896867
H           16.27736874971534       54.97534213019941       24.36410032723624
H           16.16045719524771       56.71380692926441       24.67427735462795
C           14.13332054209791       58.10307502773838       23.21487387149736
H           14.74425379604734       59.00479597769437       23.15342303711190
H           14.09870896577761       57.79520535258106       24.26004559074689
H           13.12180220608865       58.35481682518077       22.90343421007918
O           15.71684745570278       55.30685188588919       17.88693100138195
H           16.56496846116452       54.86048842212652       17.98865424135598
H           15.58131188454878       55.94780125350693       17.18750033787066
C           11.84299375747374       51.94989722482860       23.22994755303440
H           11.99480928261107       50.87601114185790       23.32888270134194
H           10.79748974125929       52.17368846858522       23.43699871125551
H           12.46411447911222       52.45958273981508       23.95914175983056
N           11.59172625197078       51.90528591869920       20.74226905156608
H           10.85596248483990       51.21816682217118       20.73213446733658
C           12.20296527243896       52.40162277787150       21.86389582623471
C           12.14099474871709       52.51910261884439       19.66945175562856
H           11.85499823364571       52.31339767959079       18.65813202374323
N           13.05817254605315       53.37423834261525       20.04786237183225
C           13.10849777277620       53.31182648554122       21.41050366779902
H           13.78821271328902       53.93151457428445       21.95523202580934
78
 energy: -116.038070516762 gnorm: 0.043098759141 xtb: 6.7.1 (edcfbbe)
Fe          14.35028033429925       54.44159295571811       18.96907059687493
N           13.03631049644426       55.84683161662899       18.42816475098668
N           13.88919053213712       53.38597589743953       17.32189052237402
N           15.80506317111696       53.15478907426212       19.41971556010350
N           14.87958234008148       55.54138194753979       20.58496059864509
C           12.79445298250323       57.01701363928229       19.07227363381426
C           11.79612119682651       57.79146623478238       18.36335844027226
C           11.46843688841401       57.06869452022134       17.25619812687147
C           12.26450312468721       55.86077197855778       17.31150169844748
C           12.98364947664705       53.71178253520564       16.36394384324507
C           12.90034282402000       52.67311358951608       15.36512133273273
C           13.75589234252907       51.67483096762817       15.77356415459843
C           14.39471628999616       52.17743846186875       16.97555746367323
C           16.16484242506939       52.07554731474222       18.67760625258869
C           17.39090753064123       51.50156094889313       19.17185010527143
C           17.75455869969635       52.25706490652654       20.25318224026279
C           16.73466372796086       53.27046635172410       20.40523249944508
C           15.78319297489694       55.21376076534033       21.54363062748929
C           15.67690553490321       56.10852480213067       22.67525685870629
C           14.71254146157921       57.01790617008133       22.35154626549502
C           14.26666721193115       56.67094207440702       21.01808672382779
C           13.38954770926974       57.42964720917193       20.25268431694121
H           13.16519360942953       58.43328497339696       20.60592102205763
C           12.23485393971933       54.87669954263357       16.33967933684665
H           11.58046375938496       55.03242455789449       15.49556960822454
C           15.48310374631804       51.57804923616695       17.58033404315488
H           15.86045037410797       50.66984057095539       17.13472178639763
C           16.70350664884785       54.18494691066577       21.44302736793797
H           17.44852035491913       54.08884719844151       22.21889178906352
C           10.51916972300787       57.40906604651610       16.16112039900491
H           10.06197983291875       58.37855759233956       16.33286967993888
H            9.72920663983855       56.66455382868126       16.07641843880035
H           11.04448286425177       57.44671607892389       15.20714045258416
C           11.23020682179235       59.08559016160965       18.83595268529245
H           11.87606950427941       59.91794986801823       18.55664380040384
H           11.12925902158375       59.08541215190326       19.91850503034929
H           10.24718946515872       59.25769822024807       18.40688513415277
C           12.02002368368032       52.72345668520184       14.16614676492241
H           12.27941948518647       53.58105071244341       13.54550052566009
H           10.97597253206425       52.82840961280773       14.45675805319924
H           12.12117202348279       51.82300843607516       13.56929775803013
C           13.89734875125145       50.35203624874105       15.21619245355804
H           13.83893394399938       50.24001852367758       14.13841707816434
C           13.99677536468809       49.23450108649294       15.94438320471343
H           14.01436086478912       49.24827277788891       17.01905045510617
H           14.03707462354413       48.27157046568985       15.46746040067387
C           18.15019163723420       50.41283325761303       18.49680606231587
H           18.15092919413306       50.58597808956818       17.42141910030636
H           17.71109513688743       49.43337319072888       18.67837632445899
H           19.17751372377401       50.39634860041750       18.85171088460629
C           18.95101445704010       52.07174225601804       21.06110873249160
H           19.61054836878707       52.93174227227864       21.13326913105132
C           19.24211254837881       50.90311598724750       21.61386329099023
H           18.52358172646227       50.10002311618971       21.53077063309091
H           20.13284750813677       50.68789181275410       22.17596472743493
C           16.45139837941392       55.96544868379330       23.93784843378776
H           17.52072835799613       56.06811601009233       23.75955641899937
H           16.28201012887784       54.97956652269609       24.37215324403362
H           16.15586049103030       56.71776930156096       24.66283818273287
C           14.14732848967265       58.10323201588222       23.20062377479860
H           14.75224463288161       59.00796164125365       23.14283190052543
H           14.11279938835809       57.79225727744365       24.24320445112052
H           13.13532979496832       58.34838936387720       22.89113378480499
O           15.77383343787366       55.39621242621994       17.91695368983713
H           16.61417825104029       54.89167443368863       17.90709263434479
H           15.62916773307918       55.96592172853831       17.13809243078812
C           11.83620301849065       51.94419678763531       23.23097533605780
H           11.98892571575541       50.87220060076663       23.33496775523277
H           10.79324100168918       52.16581829521748       23.44864660135763
H           12.45816919248686       52.45645670349442       23.95565367223568
N           11.58911981500187       51.90534008270679       20.73911975106219
H           10.85678821963958       51.21381726446806       20.72146392972796
C           12.19262744516539       52.39749772000206       21.86447642691219
C           12.14148615725852       52.53093085157153       19.67031562306263
H           11.86007004622178       52.33052933052383       18.65915755610566
N           13.05921899896464       53.38542126659592       20.05185035441780
C           13.09948097748781       53.30820654240411       21.41411399868471
H           13.77884917191785       53.91392111767011       21.97135728171934
78
 energy: -116.043631414080 gnorm: 0.048157605058 xtb: 6.7.1 (edcfbbe)
Fe          14.35962020947533       54.45150152649590       18.96532660734906
N           13.03197703791866       55.84283253204862       18.43675777430592
N           13.89594540487013       53.39132612787425       17.32306339411441
N           15.80510033052565       53.15069048749788       19.41042670264728
N           14.87345977092668       55.54009512686267       20.58453831567145
C           12.78392582191860       57.00695029855337       19.08402162339936
C           11.79887913079340       57.79155231491681       18.36389544083888
C           11.47529483490344       57.07228077260844       17.25655350680920
C           12.26532335501464       55.85993777845866       17.31618894744302
C           12.98599120706795       53.71512411814935       16.36859765766646
C           12.88985904008512       52.67420201962505       15.37777990061956
C           13.72711344974633       51.66805148347967       15.79649800241702
C           14.37820309248527       52.16860458034611       16.99135579571913
C           16.16696187522469       52.07380749732190       18.66542041536839
C           17.39616728763329       51.50823612390893       19.15360180277691
C           17.75841869588962       52.26131117076347       20.23577375383694
C           16.73755667410435       53.27000586546137       20.39114992691031
C           15.77610767021781       55.20377988306848       21.54087181185175
C           15.66984502308145       56.09807325087300       22.67116953292606
C           14.71948849123868       57.01718075809371       22.34357217632491
C           14.26489766648342       56.66771794256169       21.01480097195165
C           13.35547052042569       57.41132343194928       20.27600151433829
H           13.08275062818789       58.39231109871232       20.65666711641714
C           12.23450060696169       54.87843429766721       16.34551864315122
H           11.57458261286838       55.02864481497404       15.50547114582809
C           15.47581804211904       51.56652335958142       17.57872732946065
H           15.85219313856015       50.66239408573083       17.12747237801878
C           16.70133025923772       54.17985680572910       21.43408712416685
H           17.45026028453259       54.08440498416283       22.20588027418048
C           10.52207564444004       57.40949467467919       16.16439362321938
H           10.06031635115062       58.37699976198952       16.34050621716066
H            9.73528033939161       56.65920649330683       16.08796963558485
H           11.03895355236645       57.44908603480935       15.20526827378256
C           11.23669948351869       59.08990236631155       18.82751374604361
H           11.88552367194603       59.92333217651025       18.55637772795794
H           11.12368210445691       59.08831023451235       19.90965504611297
H           10.25791298524082       59.26296020509956       18.38682101200440
C           12.01412130331077       52.71807865220021       14.17488951030516
H           12.27264519436048       53.57268251074724       13.54797953068354
H           10.96681931722096       52.81956214418003       14.45871875149355
H           12.12126468759854       51.81307577663621       13.58346989087715
C           13.88152798548947       50.35670565154233       15.21651084912232
H           13.82785758090822       50.28492338802338       14.13358423668821
C           13.99979222769397       49.23609976652147       15.93652406569398
H           14.01068332306493       49.24268964165326       17.01315648935979
H           14.07180629502799       48.27006899262270       15.46457737328794
C           18.15212506282788       50.40496323109961       18.49919359564964
H           18.17591787780582       50.55562763151623       17.41893943401891
H           17.69182036350497       49.43578811690620       18.69296403558595
H           19.17341604107193       50.37711722902564       18.87405488910170
C           18.93158906188120       52.06243570543965       21.07011224034743
H           19.58264394922796       52.92347274034404       21.19389378350778
C           19.23996381291257       50.89900448103815       21.62393963551378
H           18.57190316372927       50.05390794915075       21.51368354535538
H           20.13886459217442       50.73110409666510       22.19400832564221
C           16.44976726288106       55.96629214988857       23.93146246412513
H           17.51682431630157       56.07597732867924       23.73946146070569
H           16.29176790221858       54.98357297469038       24.37862697684780
H           16.15384469130456       56.72510917477523       24.65092143376444
C           14.16243711390349       58.10806973344215       23.18954665506788
H           14.76519845729951       59.01414850573963       23.12469867036275
H           14.13412737098386       57.79821544707374       24.23301402995568
H           13.14781337380073       58.34906255715816       22.88296667846860
O           15.83484606595450       55.48107090832101       17.93313834651906
H           16.65584184026234       54.94818127168250       17.84502465586848
H           15.68339996128727       55.97299081942111       17.08930000180802
C           11.82873464922938       51.93733047919494       23.23100984583574