78
 energy: -116.058025313192 gnorm: 0.000074531381 xtb: 6.7.1 (edcfbbe)
Fe          -5.14593299026128       30.40350196766096       -8.33955108757744
N           -5.04850235251064       32.14971054933449       -7.38706263558856
N           -4.58353545036843       29.44862011191908       -6.67947854843648
N           -5.19040570784587       28.65107635895271       -9.33549061990544
N           -5.65872740403579       31.36060781829685      -10.03248339179867
C           -5.32930262947464       33.37807593521595       -7.89278920778237
C           -5.14639954565089       34.40179101010364       -6.88584918256871
C           -4.74446895764111       33.75909923615167       -5.75801049731548
C           -4.69406745640993       32.35115857835886       -6.09062630197720
C           -4.30260204766335       30.00918966117136       -5.47289193953297
C           -3.94383028744372       29.00113943115266       -4.50776116073114
C           -4.01359489834095       27.80060973793066       -5.16246716461546
C           -4.42473591299668       28.10975904017890       -6.51942447886728
C           -4.95685253359280       27.41411489103483       -8.81406950379766
C           -5.10940910975564       26.39707235660034       -9.82093310050920
C           -5.44535461577640       27.04789402303423      -10.97971631908729
C           -5.50424894426816       28.45620703284153      -10.64367922906972
C           -5.90481214201602       30.80240139764780      -11.24955716668948
C           -6.28479924197814       31.81516647314598      -12.20857859871831
C           -6.27384994221552       32.99880194535206      -11.53784641300529
C           -5.88033156499141       32.69417093802892      -10.18087913509977
C           -5.73005507007404       33.64355120556645       -9.18851596686287
H           -5.93136580480155       34.67145701625614       -9.44840300249564
C           -4.34478372234195       31.36416974018336       -5.19130517324884
H           -4.07663602104466       31.67457643058820       -4.19281632164894
C           -4.59232906331261       27.15658163884682       -7.50430065754498
H           -4.41233848377178       26.12692061474802       -7.23608665467150
C           -5.81933410832129       29.45489340312243      -11.54806508194552
H           -6.03287356523920       29.15954006943364      -12.56384203867597
C           -4.40437948756487       34.32003352704244       -4.41967480737432
H           -4.50434649129698       35.40263624952125       -4.41720716928819
H           -3.37805972531231       34.06981768754580       -4.15108844939660
H           -5.06335649387539       33.91334846092384       -3.65170329083656
C           -5.36843224800593       35.85737717950141       -7.11613324539248
H           -6.39566944589217       36.04391894523334       -7.43039694939463
H           -4.70375100441728       36.22695270958858       -7.89721387758242
H           -5.17919771157700       36.42606901483013       -6.20900386664196
C           -3.63506796226291       29.25682047098484       -3.07366444402127
H           -4.27316257517447       30.04401505028336       -2.67433794598506
H           -2.59720395509411       29.56990997191958       -2.95019981357933
H           -3.79219046901834       28.35147989871068       -2.49068780164634
C           -3.77115525114957       26.46766364769733       -4.65670351602652
H           -4.38485970534041       25.68445804108952       -5.08710517950159
C           -2.87030092882154       26.14430029671589       -3.73447420518530
H           -2.20059510761954       26.87073031594542       -3.30865515562497
H           -2.75254541157914       25.12894468387712       -3.39363444892977
C           -4.98602726723034       24.93229596048870       -9.58553094765282
H           -5.40079513766945       24.66234291657921       -8.61556115211266
H           -3.94011993587988       24.62099739408911       -9.60332533795747
H           -5.52089069004413       24.38359286553742      -10.35815011638800
C           -5.72479707784105       26.50008567521808      -12.28853531743654
H           -6.47013185694023       27.03085195966303      -12.86985937193053
C           -5.14157383276616       25.42890149997546      -12.81674500982720
H           -5.40897522301180       25.06732043042489      -13.79581560758667
H           -4.36181812088484       24.89067888841938      -12.30681176510147
C           -6.61434785179192       31.54037099195053      -13.63589930692026
H           -7.47677293034277       30.87714778058116      -13.71011027279024
H           -5.77486631885146       31.05956164035104      -14.13882710266859
H           -6.84634470497609       32.46229035130278      -14.16333753209760
C           -6.58615517215831       34.36845953148027      -12.03482863072473
H           -6.86316419764533       34.34540133253231      -13.08595171567258
H           -5.72197399265367       35.02364606227047      -11.92196187724855
H           -7.41317366017437       34.80052028789422      -11.47111373417339
C          -10.63547455844002       29.43151850652763       -8.33549530932692
H          -11.30381998986214       30.28052267097440       -8.19203618677719
H          -11.00817158614300       28.59966519215305       -7.73799134183497
H          -10.65672442027311       29.14503623538152       -9.38221953078382
N           -8.91465783155576       30.17032534455345       -6.67275207251404
H           -9.55218508531906       30.25586955529628       -5.89822552932710
C           -9.24662075419819       29.78130501260339       -7.94402086200424
C           -7.58460547495831       30.41308351062324       -6.65236721004318
H           -7.04529995761003       30.73443421452310       -5.78500249149416
N           -7.05493587928197       30.20160405097712       -7.83292226791543
C           -8.07625488772082       29.80843268091007       -8.64672487394144
H           -7.90250230228734       29.57279159620566       -9.67584837066600
O           -2.97279614899614       30.58227068850265       -9.05353860153482
H           -2.80661571474162       29.67488110519420       -9.33123731131044
H           -3.10565388960657       31.10345930257870       -9.85288849609563
