77
 energy: -118.995187667130 gnorm: 0.000053982847 xtb: 6.7.1 (edcfbbe)
Fe          50.38335286815247       16.74943553095444        9.60908033576744
N           51.04103907306568       14.93985123028010        8.99371376481293
N           50.95032906943855       16.28532832303499       11.49638615309743
N           49.91201173138500       18.62762107784134       10.18497426654744
N           50.04639175988587       17.28305279503063        7.69246935038571
C           51.04129308263144       14.47541030689446        7.71955806929696
C           51.50380116179142       13.10473535610374        7.68345383287900
C           51.77896741148015       12.75809131731965        8.97015149872539
C           51.48066933860276       13.92071895294174        9.77871617782838
C           51.39931771050529       15.08386207377410       11.94523384782068
C           51.60891943948069       15.12542681258358       13.37077056607445
C           51.26788267436030       16.39002483085688       13.77416454674372
C           50.84088152539610       17.09280759026682       12.57939843637248
C           49.95168115356783       19.09758168758736       11.45847412530018
C           49.43637356359520       20.44292736259075       11.51117386489693
C           49.04859601732913       20.76093914166246       10.23784118954302
C           49.37427517062739       19.60830633836025        9.41943438299343
C           49.57608084407579       18.47774036371546        7.24757070971616
C           49.45224096005384       18.46279238369421        5.80614814733111
C           49.84684906953293       17.22533359426012        5.39995935332783
C           50.21542962535098       16.50076166803237        6.59682492452590
C           50.67163804860849       15.19538445492087        6.59821772750410
H           50.73575877928143       14.69320966079977        5.64494496314382
C           51.65016681227658       13.97592634361915       11.15000252671570
H           52.00986739337016       13.08371868741783       11.64032955398437
C           50.40513755002927       18.40453363156960       12.56687966167705
H           50.38349775547726       18.92724634565045       13.51108264982638
C           49.25208892994587       19.56415257031786        8.04100743657471
H           48.88471293209475       20.45102142434781        7.54788237726474
C           52.27645864395771       11.46322124666748        9.51386626940555
H           52.43097986900721       10.74227802703566        8.71530948135113
H           51.55682713497149       11.04618602685179       10.21791541856394
H           53.22175874669090       11.60265187143722       10.03894030740825
C           51.62487153803832       12.29239325434713        6.44046966274288
H           52.30342373853373       12.77033069852351        5.73372408423187
H           50.65288400426287       12.18803790382904        5.95906179705784
H           52.00513291801505       11.29871723826516        6.66293781251168
C           52.03606464650809       13.97025669152748       14.20656915348405
H           53.11891130259811       13.83832389272594       14.16832378503951
H           51.57072787641929       13.05112787449087       13.85515315963288
H           51.74614695435519       14.13359545691759       15.24215589016548
C           51.27419391630517       16.95510700306598       15.10637111513400
H           50.48541830878317       17.66741774746675       15.31467278187850
C           52.15640494176780       16.66972928481144       16.05813673876512
H           52.98485435475969       16.00307923497511       15.89177261766849
H           52.09299979562120       17.11609458662641       17.03641510618439
C           49.30987462015936       21.26182534525247       12.74781352649014
H           50.26947611593104       21.33981451133322       13.25932566247420
H           48.59699896353076       20.80335204673113       13.43315560702652
H           48.95728455093098       22.26211357180368       12.50965466754901
C           48.42350291696628       21.99247099770397        9.79682326625592
H           48.80054959684875       22.89675563666701       10.26245232600335
C           47.42586827061034       22.07748039828314        8.92510610064693
H           46.97947323705290       21.20248716118671        8.48452063583191
H           46.99820560241322       23.02685234446529        8.64844626376905
C           48.96340064520271       19.61300365050510        4.99563018727356
H           49.58386473095697       20.49320715607571        5.16395986334080
H           47.93964158875541       19.86436049147007        5.27192787896988
H           48.98321768167823       19.37559038766358        3.93512800994003
C           49.91155287737442       16.66023554870540        4.02292329332916
H           49.60297615703078       17.39854969643493        3.28735157857278
H           49.25532520641095       15.79454742454196        3.93594944976112
H           50.92663506868906       16.34144013309438        3.78588583276574
O           48.16320723106830       16.47373036313956       10.82265422629215
O           48.82939571279555       16.15116180301675        9.77761133973410
C           55.21308103993138       19.83447220756811        8.31579403905257
H           55.90327749643281       19.44308772458335        7.56849304830257
H           55.79822389413112       20.22692372657555        9.14738944201620
H           54.64674842319165       20.64846890965418        7.87416518540575
N           54.71828637045453       17.62302462880879        9.38280292969528
H           55.67929425081509       17.38470472985104        9.56749217644261
C           54.28274427458592       18.77550053155384        8.78022502491227
C           53.62943093755956       16.88150576958405        9.68028163680507
H           53.66665869263683       15.92414510264597       10.15882963477982
N           52.53514148855457       17.48903828076756        9.30499589898998
C           52.92117168005008       18.66816777489126        8.74338301976165
H           52.19818053525123       19.35449204944361        8.35318862584495
