78
 energy: -115.975291690167 gnorm: 0.250114644911 xtb: 6.7.1 (edcfbbe)
Fe          11.55700000000000       -2.55100000000000        1.42900000000000
N           12.17800000000000       -0.88300000000000        2.40200000000000
N            9.86800000000000       -2.56000000000000        2.54700000000000
N           10.92400000000000       -4.20300000000000        0.41700000000000
N           13.21200000000000       -2.43200000000000        0.21600000000000
C           13.33900000000000       -0.17400000000000        2.15600000000000
C           13.33000000000000        1.01500000000000        2.97600000000000
C           12.19900000000000        1.01700000000000        3.70200000000000
C           11.45500000000000       -0.17900000000000        3.35000000000000
C            9.52900000000000       -1.66500000000000        3.54700000000000
C            8.33200000000000       -2.13800000000000        4.20600000000000
C            7.95900000000000       -3.28500000000000        3.60700000000000
C            8.92700000000000       -3.57100000000000        2.56100000000000
C            9.75700000000000       -4.88600000000000        0.66800000000000
C            9.57900000000000       -5.87800000000000       -0.37300000000000
C           10.63800000000000       -5.79700000000000       -1.21200000000000
C           11.50300000000000       -4.74400000000000       -0.71500000000000
C           13.53400000000000       -3.38400000000000       -0.75600000000000
C           14.89200000000000       -3.17400000000000       -1.20100000000000
C           15.40400000000000       -1.99500000000000       -0.40900000000000
C           14.30300000000000       -1.58100000000000        0.42800000000000
C           14.34100000000000       -0.52200000000000        1.29200000000000
H           15.24100000000000        0.09400000000000        1.29200000000000
C           10.23200000000000       -0.52900000000000        3.87600000000000
H            9.78700000000000        0.14500000000000        4.60800000000000
C            8.89600000000000       -4.64600000000000        1.71600000000000
H            8.11400000000000       -5.38500000000000        1.88900000000000
C           12.70200000000000       -4.35700000000000       -1.26100000000000
H           13.02200000000000       -4.86300000000000       -2.17200000000000
C           11.73100000000000        2.07800000000000        4.72500000000000
H           12.48800000000000        2.88800000000000        4.79200000000000
H           11.61500000000000        1.60900000000000        5.72600000000000
H           10.76400000000000        2.51500000000000        4.39700000000000
C           14.44600000000000        2.07200000000000        2.96700000000000
H           14.91600000000000        2.10700000000000        1.96100000000000
H           15.22100000000000        1.80600000000000        3.71700000000000
H           14.01900000000000        3.07100000000000        3.20000000000000
C            7.65400000000000       -1.39700000000000        5.37400000000000
H            7.83300000000000       -0.30500000000000        5.27500000000000
H            8.08100000000000       -1.74600000000000        6.33800000000000
H            6.55900000000000       -1.58600000000000        5.35300000000000
C            6.76300000000000       -4.19200000000000        3.92800000000000
H            6.29300000000000       -4.77800000000000        3.12400000000000
C            6.25500000000000       -4.30800000000000        5.15600000000000
H            6.68800000000000       -3.74400000000000        5.99500000000000
H            5.39700000000000       -4.96900000000000        5.34500000000000
C            8.36800000000000       -6.82700000000000       -0.48600000000000
H            7.46900000000000       -6.33300000000000       -0.06000000000000
H            8.56900000000000       -7.76100000000000        0.08200000000000
H            8.17700000000000       -7.06600000000000       -1.55400000000000
C           10.91800000000000       -6.59600000000000       -2.50100000000000
H           11.38900000000000       -6.08100000000000       -3.35100000000000
C           10.62900000000000       -7.88000000000000       -2.66500000000000
H           10.15700000000000       -8.45400000000000       -1.85400000000000
H           10.85800000000000       -8.38700000000000       -3.61400000000000
C           15.67900000000000       -4.00400000000000       -2.22500000000000
H           15.25900000000000       -3.83700000000000       -3.24000000000000
H           15.59800000000000       -5.08300000000000       -1.97500000000000
H           16.74500000000000       -3.69200000000000       -2.22100000000000
C           16.80000000000000       -1.36200000000000       -0.48700000000000
H           17.28200000000000       -1.64400000000000       -1.44800000000000
H           17.42700000000000       -1.73200000000000        0.35200000000000
H           16.71400000000000       -0.25500000000000       -0.43800000000000
O           10.58600000000000       -1.33700000000000        0.15900000000000
H           10.88600000000000       -0.45000000000000        0.36000000000000
H            9.99600000000000       -1.56300000000000       -0.46700000000000
C           14.76500000000000       -6.42100000000000        3.96500000000000
H           14.26800000000000       -7.38100000000000        4.22000000000000
H           15.37000000000000       -6.08700000000000        4.83500000000000
H           15.42200000000000       -6.57800000000000        3.08300000000000
N           12.76400000000000       -4.99600000000000        4.54800000000000
H           12.66400000000000       -5.36400000000000        5.47200000000000
C           13.72900000000000       -5.39200000000000        3.64500000000000
C           12.00800000000000       -4.06400000000000        3.99200000000000
H           11.16500000000000       -3.57900000000000        4.48400000000000
N           12.45200000000000       -3.83700000000000        2.76600000000000
C           13.51100000000000       -4.66900000000000        2.51800000000000
H           14.01400000000000       -4.67000000000000        1.55900000000000
78
 energy: -116.027446569144 gnorm: 0.100773554204 xtb: 6.7.1 (edcfbbe)
Fe          11.56152981546765       -2.56573573373386        1.44187433679882
N           12.17049243571083       -0.87924858164070        2.39571274387175
N            9.87078102013609       -2.57365902487227        2.55836949447143
N           10.91732448055593       -4.19076763961323        0.40347011893117
N           13.21821008896583       -2.45359924398384        0.23624704869458
C           13.32673669202710       -0.17642867662465        2.15900393512492
C           13.33894015634918        1.02153648131279        2.97606140974879
C           12.19641945439496        1.02428232457492        3.70598359459687
C           11.46307300695425       -0.17485522951860        3.33849149331392
C            9.52475608285052       -1.68204637802512        3.54290376092202
C            8.32121770583229       -2.13528828554201        4.21047613398941
C            7.94675437982044       -3.30216627653051        3.61320032048720
C            8.92687181722301       -3.56694288296623        2.56776416457215
C            9.76758920591239       -4.88738230611996        0.65077611947238
C            9.58066193181508       -5.89359843649422       -0.37806123257863
C           10.64222482936871       -5.79995050915762       -1.23149386984416
C           11.49075095361928       -4.73117687557761       -0.72005708918995
C           13.55438708300681       -3.35914058738570       -0.74485041880702
C           14.91141348237199       -3.13884102676661       -1.18298884043615
C           15.39173419102757       -2.02815178329528       -0.43963306233466
C           14.30346259224800       -1.62235924236361        0.41459528210194
C           14.33335933705983       -0.54076477396145        1.28395892720244
H           15.22885165449458        0.07432108408066        1.28890433461627
C           10.23632167181302       -0.53714857333473        3.86730533277112
H            9.80126988668935        0.13023605018607        4.60447989008529
C            8.90003836457955       -4.64717605843405        1.70903765517319
H            8.11223261589151       -5.37499539664439        1.87278947993972
C           12.70744763693758       -4.34293777943073       -1.25330593311843
H           13.03478603576629       -4.86344504913398       -2.14863618804804
C           11.73612423862656        2.06265535194502        4.71065052269030
H           12.47379177028466        2.86758726447451        4.78944206645903
H           11.61426093304859        1.61331527242917        5.70284553922397
H           10.77976710204282        2.50098051580172        4.40304468761607
C           14.43641133640906        2.06106566085234        2.96482656862138
H           14.90764371775007        2.10927602227046        1.97827649288617
H           15.20644449138201        1.81199901359125        3.70442701861195
H           14.02958691073411        3.05029714056452        3.19851087753595
C            7.65945418877457       -1.40142554513860        5.35650533983764
H            7.82907849072182       -0.32309246988828        5.27435997360516
H            8.07195889519552       -1.73802450125475        6.31619255470874
H            6.58002146520271       -1.58422272073356        5.35173765747231
C            6.78246509354057       -4.17572079173607        3.93208557534733
H            6.33125280037927       -4.75151605130930        3.12366689204068
C            6.26317157082616       -4.30003867183631        5.14984881201056
H            6.67977680316903       -3.76483958200216        5.99308722822074
H            5.41582427022667       -4.95231112756280        5.33997784750860
C            8.38232819284165       -6.81400319373390       -0.48280196454777
H            7.48773995494070       -6.33848534640589       -0.06652635643177
H            8.56556689705432       -7.74291016973317        0.07091079976764
H            8.18733097643246       -7.06158286485984       -1.53167688361553
C           10.91209416291372       -6.58348400618266       -2.47685903427550
H           11.38365889208700       -6.06007822717483       -3.30916367880997
C           10.62383208256110       -7.86802045000878       -2.65129912999754
H           10.16715597180057       -8.45518486491058       -1.86427746254637
H           10.84904158944308       -8.37422946985538       -3.58685484566475
C           15.66416508923655       -3.97499684222246       -2.19927083825810
H           15.26119673404329       -3.83195269627819       -3.21187782797211
H           15.59527979161162       -5.04699084208329       -1.96941091979055
H           16.72244364627248       -3.69610599943811       -2.21642237365540
C           16.76453626978657       -1.38647167245198       -0.49616950555874
H           17.27002049340190       -1.64212740976347       -1.43353602931430
H           17.40056753190374       -1.72802206131605        0.33289875135722
H           16.70226566505335       -0.29146353194404       -0.43885933723147
O           10.59449102267100       -1.32091417080490        0.15660111132604
H           10.87073752955159       -0.42258973033362        0.33770284606164
H            9.96656400749346       -1.54713625844595       -0.50540551871825
C           14.76160578930129       -6.42535106209016        3.96853645686941
H           14.28249296963731       -7.37801017698888        4.22047531424463
H           15.36819582325128       -6.10119667571140        4.82203510107494
H           15.41117411304863       -6.57503950720691        3.10233838345680
N           12.77736243151439       -5.00753385415306        4.55463019437216
H           12.67274872382690       -5.37669314770537        5.48303474012875
C           13.73300357799601       -5.39989293139045        3.65018662714002
C           12.02028075590756       -4.06130500511364        3.98432601414262
H           11.18609388571667       -3.58145856892738        4.46851338979344
N           12.44651406920082       -3.82750943406032        2.76226343080004
C           13.50402214050215       -4.65913184284840        2.52933111992514
H           14.00381653179297       -4.66068235532759        1.57776282900267
78
 energy: -116.042733991781 gnorm: 0.036226951549 xtb: 6.7.1 (edcfbbe)
Fe          11.56539477092057       -2.57780219244736        1.44784368208085
N           12.16888164102508       -0.88394453752110        2.39416181285420
N            9.87710803156153       -2.58890579996204        2.56619671300815
N           10.91154219725087       -4.17724515900595        0.39483510694268
N           13.22769049028473       -2.48134383795344        0.26181791092763
C           13.31832255137428       -0.18737922745131        2.16203177726770
C           13.34390100620459        1.01918995659277        2.96968656361049
C           12.19340716793782        1.02274480375382        3.70132277920967
C           11.46983539773009       -0.17860531118175        3.32710255365097
C            9.52925785466599       -1.69977544306500        3.53832930216592
C            8.32365427452304       -2.13445542095381        4.21186153197969
C            7.94784808350471       -3.31512764370104        3.61738245918133
C            8.93292765391141       -3.56712841578847        2.57189684423039
C            9.77392276910759       -4.88076564137890        0.63830925037560
C            9.58482336300641       -5.89907964437596       -0.37558817897018
C           10.64779645231530       -5.79479504497170       -1.23913866110233
C           11.48013246926037       -4.71267438965871       -0.72110218891752
C           13.56508012699566       -3.35390941003689       -0.72491684156480
C           14.92225279837416       -3.11199683386492       -1.16834253245713
C           15.37822736346408       -2.05730107330926       -0.45913144472499
C           14.30081118289863       -1.66016831114853        0.42195993227775
C           14.32726422267221       -0.56687409965807        1.28635215345164
H           15.21324543323598        0.05433190208470        1.27359941942203
C           10.24419724064939       -0.55043280611819        3.85943927407287
H            9.81842632662397        0.10958388010191        4.60320229239884
C            8.90218863032428       -4.64483275818168        1.69982761003463
H            8.10505887644705       -5.36059386432328        1.84829500295696
C           12.71272545595862       -4.33576738237881       -1.23877937898621
H           13.05247131492472       -4.87021589017424       -2.11735912504077
C           11.73914980669210        2.04287120293346        4.69372645316161
H           12.46774019389549        2.84517915656282        4.77882538525374
H           11.61352152317093        1.60107619138573        5.68126798235293
H           10.78606648076953        2.48076858187587        4.39852982690606
C           14.42761759071979        2.04664473789115        2.96154406036904
H           14.90040741427462        2.10440505670579        1.98514317326811
H           15.19580032622735        1.80690616486412        3.69687786275226
H           14.02923313938889        3.03008038414998        3.20035965584598
C            7.66596862350515       -1.40600730573497        5.33623256379505
H            7.83064277691670       -0.33438410965905        5.26042609391132
H            8.06940077267064       -1.73494838910822        6.29584442253334
H            6.59424715694653       -1.58983081605865        5.33916644375830
C            6.81229532943765       -4.15886499915004        3.93229034469355
H            6.37979267561386       -4.72536464475730        3.11496672246347
C            6.27658042036571       -4.29364343401290        5.14276847184098
H            6.67755589868975       -3.78390885500216        5.99885285810722
H            5.42937451705543       -4.93443657781973        5.32482037929152
C            8.40102309424764       -6.80263129131465       -0.47843615308562
H            7.51051164574717       -6.33111663357247       -0.06933820991503
H            8.57000931229510       -7.73003487116582        0.06954761251518
H            8.20758930524947       -7.05594701105160       -1.51889374793256
C           10.91134847572287       -6.56241454057372       -2.44410467300692
H           11.38889169183799       -6.02966246749081       -3.25974045044808
C           10.61911701319975       -7.84710075062750       -2.63129433422324
H           10.17354031039003       -8.45131107266187       -1.86236479822147
H           10.83858273310392       -8.34912111477048       -3.56078997235503
C           15.65046710444616       -3.94605629585940       -2.17890681413570
H           15.24436589320129       -3.80975500724451       -3.18338682316992
H           15.57748855253979       -5.00953472375368       -1.94436113829426
H           16.70547723234235       -3.68409710806748       -2.20572761132077
C           16.73040457144613       -1.40955544904288       -0.50599323547731
H           17.24751561360277       -1.65360353189517       -1.43127452972594
H           17.35905343421540       -1.74106659528974        0.32446789274531
H           16.66248540426409       -0.32320293015586       -0.44180904709712
O           10.60047836410689       -1.30093387204722        0.13057484684688
H           10.82951014820029       -0.38270113037597        0.29002737069538
H            9.94491734962430       -1.51257104747445       -0.53408955206523
C           14.76023249725449       -6.42947469037325        3.96822714843723
H           14.29077705217807       -7.37828381024893        4.22021711389112
H           15.36795555751262       -6.11217910446902        4.81408608980660
H           15.40589607241047       -6.57535356266776        3.11014421045819
N           12.78805196150524       -5.01429233839792        4.56067105339994
H           12.67954341349142       -5.38421627224806        5.49091326865861
C           13.73560215100403       -5.40402811145207        3.65263852192199
C           12.03182873999049       -4.05654871537464        3.98206235824210
H           11.20590427340213       -3.57845250967987        4.46395701477158
N           12.44278820474080       -3.81644589930634        2.76126035409001
C           13.49894011183988       -4.64926816604133        2.53843172805921
H           14.00091292139361       -4.65231212429416        1.59354618529427
78
 energy: -116.047280954220 gnorm: 0.022598486787 xtb: 6.7.1 (edcfbbe)
Fe          11.56368147257393       -2.57509319923606        1.44302126460714
N           12.17016996935053       -0.89192217714568        2.39160804704305
N            9.88601916900907       -2.59561035194183        2.56550360044506
N           10.90587594060583       -4.16203958509484        0.39505460144220
N           13.23323314388584       -2.50468409299218        0.28608845569958
C           13.31703291535676       -0.19811793964111        2.16333672301341
C           13.34441017087687        1.00967565882012        2.96425822137104
C           12.19293302578898        1.01329763651538        3.69363996630448
C           11.47341662282254       -0.18719836161256        3.32195360497788
C            9.54131799338092       -1.70872157232020        3.53742489542979
C            8.33900367176083       -2.13677123150411        4.21210971861935
C            7.96339164331312       -3.31906911324159        3.62076107501479
C            8.94074244074205       -3.56834967947352        2.57163296073316
C            9.77177487215360       -4.86898114979269        0.63714137843179
C            9.58815523255795       -5.89258075423450       -0.36588978753261
C           10.65142649030009       -5.78562430956951       -1.22750854531700
C           11.47582238382392       -4.70135621144387       -0.71301763475034
C           13.56117341995851       -3.36834476235072       -0.70790840852162
C           14.91381733934821       -3.12006176861086       -1.16532300996820
C           15.37256513478051       -2.06140084807868       -0.45020439675641
C           14.29787746492338       -1.67706045110367        0.44243970380537
C           14.32667763217144       -0.58207657597716        1.29452162695269
H           15.21176624372604        0.03703798403449        1.27433905913075
C           10.25376063377545       -0.56106830396091        3.85944403100065
H            9.83503307847549        0.09119306039357        4.61224581404916
C            8.89796301948481       -4.63843118870874        1.69335709060232
H            8.08955233985965       -5.34418604249418        1.82511110864955
C           12.71408585665229       -4.34260465211901       -1.22414955474959
H           13.06726650426597       -4.89217509298529       -2.08729084585434
C           11.73502029337068        2.02720092742375        4.68395394790523
H           12.46244318808230        2.83001075886138        4.77106968946137
H           11.60915569153622        1.57966043057459        5.66889153258275
H           10.77987154951923        2.46096701947383        4.38908143815556
C           14.42625297294860        2.03475426103503        2.95831731301036
H           14.89881447702482        2.09846216915036        1.98196151738794
H           15.19497641616264        1.79281205284089        3.69257983581781
H           14.02668758944258        3.01619932465905        3.20393393341783
C            7.67172589367054       -1.40479415747755        5.32298347343032
H            7.83143067562672       -0.33288069376355        5.24027275138494
H            8.06969777837859       -1.72658542478545        6.28734808982579
H            6.60138483372239       -1.59733870644392        5.31904272310453
C            6.83110987035589       -4.15557540837920        3.93045312732080
H            6.41230269475663       -4.71722385487397        3.10354746245085
C            6.28258075617235       -4.29420142181196        5.13529313210721
H            6.68279042083778       -3.80492161638296        6.00533824431965
H            5.42936439059007       -4.92886695818917        5.30318271210889
C            8.41123698356909       -6.79701343434191       -0.47156205212413
H            7.51911503269658       -6.32195041653320       -0.07048745083351
H            8.57629385667337       -7.72273843396404        0.08048082603421
H            8.22880949699555       -7.05477427854805       -1.51307117028439
C           10.91941684171427       -6.54613770994301       -2.42437576568914
H           11.40985966408514       -6.00628283744670       -3.22718523090422
C           10.61822465079828       -7.82772386886218       -2.61819534528741
H           10.17547090489985       -8.43888579251944       -1.85247737245474
H           10.83376332595999       -8.32487231120464       -3.54916912108440
C           15.63556425975952       -3.94075571212212       -2.17963995236312
H           15.21819740374275       -3.79542241379583       -3.17598092587723
H           15.55948561671156       -4.99970424286135       -1.93548524331532
H           16.68901102574334       -3.67506684904227       -2.20701599739402
C           16.71471124531340       -1.41270684178103       -0.50567513167778
H           17.22818829453447       -1.66129431845916       -1.43078926458238
H           17.33479500592655       -1.74579165502301        0.32824563314643
H           16.63046453785721       -0.32969309202409       -0.44477704171817
O           10.61270522932657       -1.27829365965628        0.07924799595931
H           10.77609103108190       -0.34218699071676        0.24801572619958
H            9.92060493698522       -1.47876109590001       -0.55796088822624
C           14.75997263951868       -6.43229203024776        3.96443305291383
H           14.29161867615599       -7.38198295932180        4.21658792412563
H           15.37187523163168       -6.12050981997527        4.80969990368195
H           15.40448039360931       -6.57816140808812        3.10550417036972
N           12.79531326440110       -5.01118647876027        4.56541780585444
H           12.68692883092917       -5.38252835601727        5.49540562135451
C           13.73774689100766       -5.40201055592337        3.65296018801775
C           12.04069023581088       -4.04846481621555        3.98813121639039
H           11.22080031525824       -3.56625187020835        4.47457758233421
N           12.44357221888378       -3.80746487282528        2.76442692455400
C           13.49943192374514       -4.64189553675334        2.54244873139114
H           14.00500471675091       -4.64454896695969        1.60031296382404
78
 energy: -116.050321369086 gnorm: 0.039989623478 xtb: 6.7.1 (edcfbbe)
Fe          11.56709747158589       -2.57318274014045        1.44007754601766
N           12.17201405590781       -0.90242301412288        2.38418554319159
N            9.89507350217836       -2.59538000293976        2.55331553791239
N           10.90218283472981       -4.14180829086670        0.40086024261120
N           13.23012459952102       -2.52682659165626        0.31381668726075
C           13.31782548500880       -0.21114630622826        2.16253073970399
C           13.34613985834266        0.99626031862862        2.95761821277637
C           12.19404922496344        1.00058945470526        3.68349062763127
C           11.47716214901805       -0.19731386619570        3.31395079344601
C            9.55643641397438       -1.71499666563910        3.53297015493127
C            8.36172216276747       -2.13999343876821        4.21196813032241
C            7.98394042614057       -3.32106961201429        3.62235496064061
C            8.94934523474732       -3.56608192117944        2.56687809226282
C            9.76783759087068       -4.85156538396618        0.63782582035651
C            9.59364797829674       -5.88199943350980       -0.35212079775801
C           10.65996908377467       -5.77519436839217       -1.20791611905579
C           11.47528853069869       -4.68996411577854       -0.69715334638743
C           13.55359223472836       -3.38534732886663       -0.68414425555834
C           14.89973619271334       -3.12928706463069       -1.15636685831165
C           15.36067484207976       -2.06806841027850       -0.43713874086753
C           14.29030351863601       -1.69561849135784        0.46633818221085
C           14.32976065201005       -0.60063225431829        1.30443301858732
H           15.21742350496352        0.01214968712456        1.27747319585532
C           10.26631255331193       -0.57203719372385        3.86106628669759
H            9.85654573569125        0.06910426583685        4.62707739762254
C            8.88879089609033       -4.62699222550258        1.68364454053392
H            8.07113943725659       -5.32331175289371        1.79885565142574
C           12.72050343985140       -4.35700514821107       -1.20100643499454
H           13.08642828936524       -4.92137610686633       -2.04734516833234
C           11.72774063241955        2.00872873604598        4.67450790908566
H           12.45118320446197        2.81524108848266        4.76630829722242
H           11.60133640493537        1.55306358883893        5.65682682181319
H           10.76934025762427        2.43594292940185        4.37755446665047
C           14.42840966618016        2.01973391154345        2.95430957808135
H           14.89738855931546        2.09104794504777        1.97561318224302
H           15.20015092210673        1.77056388538277        3.68452460456647
H           14.02780253131732        2.99933239901447        3.21051399873570
C            7.68013108054035       -1.40329034383047        5.30952633467654
H            7.82914136749343       -0.32973093697752        5.21351861551055
H            8.07053707196999       -1.71018209867609        6.28273002645117
H            6.61113864173119       -1.60998807869412        5.29404251925426
C            6.85150451595764       -4.15741459588553        3.92720521770146
H            6.44055688803134       -4.70823648194829        3.08927225912077
C            6.29282349718975       -4.30334430149394        5.12618476743821
H            6.68055026032781       -3.82144291307741        6.00669444380064
H            5.42900129061198       -4.92898404955768        5.27518927122426
C            8.42195539336374       -6.79081534295348       -0.46206382951691
H            7.52350103380948       -6.31322409781252       -0.07570916433491
H            8.58264719770233       -7.71229288579292        0.10001382703680
H            8.25572801097330       -7.05770430221806       -1.50524245071708
C           10.93767544250200       -6.53044199116822       -2.40333574633066
H           11.44018773451991       -5.98240233504267       -3.19307879468191
C           10.62219502829756       -7.80695093249912       -2.60506772567116
H           10.16712688319714       -8.41804767453202       -1.84559459416219
H           10.83503648545967       -8.29916460241337       -3.53875802042793
C           15.61347098084398       -3.93615788182518       -2.18186086599686
H           15.18344635938119       -3.78211438159592       -3.17063094659497
H           15.54025743880483       -4.99459492032834       -1.93869795648093
H           16.66607833772840       -3.66610616751288       -2.21740997865540
C           16.69513987322729       -1.41508416156991       -0.50280848950583
H           17.20753932983464       -1.67049930793766       -1.42688510914463
H           17.31353356244645       -1.74001530949604        0.33488328360362
H           16.59816847797184       -0.33365391552164       -0.45276722013517
O           10.65990098764126       -1.24926689643935       -0.02027761280761
H           10.67955401910420       -0.28945464012363        0.20736254859480
H            9.86299886581924       -1.42131690923612       -0.56536406253457
C           14.76155081219656       -6.43625518876256        3.95938838975800