 Entering Gaussian System, Link 0=g16
 Input=1a2f12.com
 Output=1a2f12.log
 Initial command:
 /sw/chem/gaussian/g16_C02/a100/g16/l1.exe "/local/bebjones_7928829/Gau-3301928.inp" -scrdir="/local/bebjones_7928829/"
 Entering Link 1 = /sw/chem/gaussian/g16_C02/a100/g16/l1.exe PID=   3301929.
  
 Copyright (c) 1988-2021, Gaussian, Inc.  All Rights Reserved.
  
 This is part of the Gaussian(R) 16 program.  It is based on
 the Gaussian(R) 09 system (copyright 2009, Gaussian, Inc.),
 the Gaussian(R) 03 system (copyright 2003, Gaussian, Inc.),
 the Gaussian(R) 98 system (copyright 1998, Gaussian, Inc.),
 the Gaussian(R) 94 system (copyright 1995, Gaussian, Inc.),
 the Gaussian 92(TM) system (copyright 1992, Gaussian, Inc.),
 the Gaussian 90(TM) system (copyright 1990, Gaussian, Inc.),
 the Gaussian 88(TM) system (copyright 1988, Gaussian, Inc.),
 the Gaussian 86(TM) system (copyright 1986, Carnegie Mellon
 University), and the Gaussian 82(TM) system (copyright 1983,
 Carnegie Mellon University). Gaussian is a federally registered
 trademark of Gaussian, Inc.
  
 This software contains proprietary and confidential information,
 including trade secrets, belonging to Gaussian, Inc.
  
 This software is provided under written license and may be
 used, copied, transmitted, or stored only in accord with that
 written license.
  
 The following legend is applicable only to US Government
 contracts under FAR:
  
                    RESTRICTED RIGHTS LEGEND
  
 Use, reproduction and disclosure by the US Government is
 subject to restrictions as set forth in subparagraphs (a)
 and (c) of the Commercial Computer Software - Restricted
 Rights clause in FAR 52.227-19.
  
 Gaussian, Inc.
 340 Quinnipiac St., Bldg. 40, Wallingford CT 06492
  
  
 ---------------------------------------------------------------
 Warning -- This program may not be used in any manner that
 competes with the business of Gaussian, Inc. or will provide
 assistance to any competitor of Gaussian, Inc.  The licensee
 of this program is prohibited from giving any competitor of
 Gaussian, Inc. access to this program.  By using this program,
 the user acknowledges that Gaussian, Inc. is engaged in the
 business of creating and licensing software in the field of
 computational chemistry and represents and warrants to the
 licensee that it is not a competitor of Gaussian, Inc. and that
 it will not use this program in any manner prohibited above.
 ---------------------------------------------------------------
  

 Cite this work as:
 Gaussian 16, Revision C.02,
 M. J. Frisch, G. W. Trucks, H. B. Schlegel, G. E. Scuseria, 
 M. A. Robb, J. R. Cheeseman, G. Scalmani, V. Barone, 
 G. A. Petersson, H. Nakatsuji, X. Li, M. Caricato, A. V. Marenich, 
 J. Bloino, B. G. Janesko, R. Gomperts, B. Mennucci, H. P. Hratchian, 
 J. V. Ortiz, A. F. Izmaylov, J. L. Sonnenberg, D. Williams-Young, 
 F. Ding, F. Lipparini, F. Egidi, J. Goings, B. Peng, A. Petrone, 
 T. Henderson, D. Ranasinghe, V. G. Zakrzewski, J. Gao, N. Rega, 
 G. Zheng, W. Liang, M. Hada, M. Ehara, K. Toyota, R. Fukuda, 
 J. Hasegawa, M. Ishida, T. Nakajima, Y. Honda, O. Kitao, H. Nakai, 
 T. Vreven, K. Throssell, J. A. Montgomery, Jr., J. E. Peralta, 
 F. Ogliaro, M. J. Bearpark, J. J. Heyd, E. N. Brothers, K. N. Kudin, 
 V. N. Staroverov, T. A. Keith, R. Kobayashi, J. Normand, 
 K. Raghavachari, A. P. Rendell, J. C. Burant, S. S. Iyengar, 
 J. Tomasi, M. Cossi, J. M. Millam, M. Klene, C. Adamo, R. Cammi, 
 J. W. Ochterski, R. L. Martin, K. Morokuma, O. Farkas, 
 J. B. Foresman, and D. J. Fox, Gaussian, Inc., Wallingford CT, 2019.
 
 ******************************************
 Gaussian 16:  ES64L-G16RevC.02  7-Dec-2021
                11-Jul-2024 
 ******************************************
 %mem=16GB
 %CPU=0-71
 SetSPE:  set environment variable "OMP_PROC_BIND" = "true"
 SetSPE:  set environment variable "OMP_PLACES" = "{0},{1},{2},{3},{4},{5},{6},{7},{8},{9},{10},{11},{12},{13},{14},{15},{16},{17},{18},{19},{20},{21},{22},{23},{24},{25},{26},{27},{28},{29},{30},{31},{32},{33},{34},{35},{36},{37},{38},{39},{40},{41},{42},{43},{44},{45},{46},{47},{48},{49},{50},{51},{52},{53},{54},{55},{56},{57},{58},{59},{60},{61},{62},{63},{64},{65},{66},{67},{68},{69},{70},{71}"
 Will use up to   72 processors via shared memory.
 %gpucpu=0,1,2,3=0,1,2,3
 Will use    4 GPUs:
 Thread  CPU   GPU
      0    0     0
      1    1     1
      2    2     2
      3    3     3
      4    4    -1
      5    5    -1
      6    6    -1
      7    7    -1
      8    8    -1
      9    9    -1
     10   10    -1
     11   11    -1
     12   12    -1
     13   13    -1
     14   14    -1
     15   15    -1
     16   16    -1
     17   17    -1
     18   18    -1
     19   19    -1
     20   20    -1
     21   21    -1
     22   22    -1
     23   23    -1
     24   24    -1
     25   25    -1
     26   26    -1
     27   27    -1
     28   28    -1
     29   29    -1
     30   30    -1
     31   31    -1
     32   32    -1
     33   33    -1
     34   34    -1
     35   35    -1
     36   36    -1
     37   37    -1
     38   38    -1
     39   39    -1
     40   40    -1
     41   41    -1
     42   42    -1
     43   43    -1
     44   44    -1
     45   45    -1
     46   46    -1
     47   47    -1
     48   48    -1
     49   49    -1
     50   50    -1
     51   51    -1
     52   52    -1
     53   53    -1
     54   54    -1
     55   55    -1
     56   56    -1
     57   57    -1
     58   58    -1
     59   59    -1
     60   60    -1
     61   61    -1
     62   62    -1
     63   63    -1
     64   64    -1
     65   65    -1
     66   66    -1
     67   67    -1
     68   68    -1
     69   69    -1
     70   70    -1
     71   71    -1
 SetGPE:  set environment variable "OMP_PROC_BIND" = "true"
 SetGPE:  set environment variable "OMP_PLACES" = "{0},{1},{2},{3},{4},{5},{6},{7},{8},{9},{10},{11},{12},{13},{14},{15},{16},{17},{18},{19},{20},{21},{22},{23},{24},{25},{26},{27},{28},{29},{30},{31},{32},{33},{34},{35},{36},{37},{38},{39},{40},{41},{42},{43},{44},{45},{46},{47},{48},{49},{50},{51},{52},{53},{54},{55},{56},{57},{58},{59},{60},{61},{62},{63},{64},{65},{66},{67},{68},{69},{70},{71}"
 %oldchk=1a2f_II_Sre.chk
 %chk=1a2f_III_Dn.chk
 Properties for Device   0
 Minimum vector length:                              32
 Maximum vector length:                            1024
 Number of SMPs:                                    108
 Maximum number of threads per SMP:                2048
 Number of ASync Engines:                             5
 Memory:                                           9207742464
 Properties for Device   1
 Minimum vector length:                              32
 Maximum vector length:                            1024
 Number of SMPs:                                    108
 Maximum number of threads per SMP:                2048
 Number of ASync Engines:                             5
 Memory:                                           9207742464
 Properties for Device   2
 Minimum vector length:                              32
 Maximum vector length:                            1024
 Number of SMPs:                                    108
 Maximum number of threads per SMP:                2048
 Number of ASync Engines:                             5
 Memory:                                           9207742464
 Properties for Device   3
 Minimum vector length:                              32
 Maximum vector length:                            1024
 Number of SMPs:                                    108
 Maximum number of threads per SMP:                2048
 Number of ASync Engines:                             5
 Memory:                                           9207742464
   8286968217 words of memory will be used on each GPU.
 Copying data from "1a2f_II_Sre.chk" to current chk file "1a2f_III_Dn.chk"
 IOpt=  2 FromEx=T IUOpen= 4 IOptOp= 5 NList=   0 IFRang= 0 IUIn= 4 IUOut= 2.
 --------------------------------------------------------------
 # apfd/def2TZVP guess=read scf=maxcycle=999 geom=check pop=nbo
 --------------------------------------------------------------
 1/29=2,38=1,172=1/1;
 2/12=2,40=1/2;
 3/5=44,7=101,11=2,14=-4,25=1,30=1,74=-44,116=-2/1,2,3;
 4/5=1/1;
 5/5=2,7=999,38=6/2;
 6/7=2,8=2,9=2,10=2,28=1,40=1/1,7;
 99/5=1,9=1/99;
 ----------
 1a2f_III_D
 ----------
 Structure from the checkpoint file:  "1a2f_III_Dn.chk"
 Charge =  1 Multiplicity = 2
 Z-Matrix found in chk file.
 Fe,0,-5.9665344716,57.0578343634,111.7932817558
 N,0,-6.6500631977,56.1543855049,113.4454888891
 N,0,-6.9094873281,58.7444045312,112.3152776848
 N,0,-5.0510492072,58.0306184258,110.2964631231
 N,0,-4.9055830626,55.4161831009,111.3473915866
 C,0,-6.413503227,54.874924861,113.8399442641
 C,0,-7.0358671115,54.6107427117,115.1167526621
 C,0,-7.6736261256,55.7580987736,115.4772093415
 C,0,-7.4104071997,56.7159361875,114.4271027019
 C,0,-7.6164393512,58.9657263289,113.4588213787
 C,0,-8.1236274529,60.3127612141,113.4986282998
 C,0,-7.6607651253,60.930185232,112.3666629862
 C,0,-6.8461297928,59.9439045481,111.6807503019
 C,0,-5.2174611066,59.3363333629,109.9498938066
 C,0,-4.3553849756,59.692962777,108.8513028291
 C,0,-3.6361337022,58.5675021376,108.5486733839
 C,0,-4.1195894353,57.534011516,109.4438714166
 C,0,-4.1319552058,55.2220054147,110.2480448145
 C,0,-3.808162939,53.8210803974,110.0870784113
 C,0,-4.3442967591,53.1825674691,111.160943713
 C,0,-5.0240480583,54.1968878871,111.9376509459
 C,0,-5.695588254,53.9389881344,113.1174413261
 H,0,-5.6478531771,52.9351464373,113.5113755223
 C,0,-7.8630112844,58.0213863677,114.442107421
 H,0,-8.4532975401,58.3291079018,115.2919463665
 C,0,-6.088413499,60.2205225541,110.5606873423
 H,0,-6.1468186596,61.2178297513,110.1527094219
 C,0,-3.7079747896,56.2156345636,109.3859512602
 H,0,-3.0296871001,55.9353264682,108.5942532503
 C,0,-8.4707340897,56.050065224,116.7026784273
 H,0,-8.5370823652,55.171199461,117.3392576273
 H,0,-9.4824150722,56.3589412333,116.4385937373
 H,0,-8.011997295,56.8554352003,117.2774666375
 C,0,-6.9592577067,53.3073317298,115.8354796013
 H,0,-5.9205592631,53.0331850195,116.0206030681
 H,0,-7.4162703247,52.5146037872,115.2424508164
 H,0,-7.4749769863,53.3605049755,116.7912286031
 C,0,-8.9192488662,60.8994169094,114.6126199671
 H,0,-8.5650898326,60.5319157187,115.5746882955
 H,0,-9.9748453208,60.6378842408,114.5197864343
 H,0,-8.832619559,61.9840552009,114.6015601737
 C,0,-7.8635568842,62.2919410262,111.9267124322
 H,0,-7.0364362053,62.7426828567,111.3908290925
 C,0,-8.9685726566,63.0062383879,112.1170990936
 H,0,-9.0484766525,64.0233904588,111.7708235072
 H,0,-9.8400242537,62.5973425633,112.5981720515
 C,0,-4.2232002738,61.0582438419,108.2714901586
 H,0,-4.2967844736,61.8176107202,109.0486078971
 H,0,-5.0107865585,61.2468359999,107.5399934674
 H,0,-3.2606341122,61.1613883645,107.7745276081
 C,0,-2.6022056422,58.3750732208,107.5558488892
 H,0,-1.8209779906,57.6743084035,107.827903216
 C,0,-2.5473038803,58.9729645295,106.3699753435
 H,0,-3.3194273202,59.6401761816,106.0286052426
 H,0,-1.735292934,58.7925736875,105.6849852768
 C,0,-3.0037424741,53.2680536377,108.9609530644
 H,0,-1.9890765329,53.6673730344,108.9820601384
 H,0,-3.4506832305,53.53445702,108.0031333704
 H,0,-2.9449592228,52.1840913414,109.0229417955
 C,0,-4.3038473884,51.736002444,111.5174321
 H,0,-3.7455956338,51.1701673912,110.7756506889
 H,0,-5.31245311,51.3262824764,111.5762885019
 H,0,-3.8248946871,51.5944829652,112.4865879518
 O,0,-4.271,57.676,113.194
 H,0,-4.552,57.269,114.014
 H,0,-3.567,58.208,113.085
 C,0,-9.2289861327,55.0091859176,107.7693030729
 H,0,-8.4016764726,54.8095630445,107.0956690676
 H,0,-9.9239493805,55.6891348125,107.2766629024
 H,0,-9.7511973198,54.073537504,107.9686529603
 N,0,-9.5314571995,55.9372989837,110.075000547
 H,0,-10.5316576248,55.8248474255,110.0977474719
 C,0,-8.7124714634,55.6028645769,109.0285709835
 C,0,-8.7535633709,56.4450506345,111.0580305223
 H,0,-9.1221608754,56.7924571363,112.0010108041
 N,0,-7.4926300586,56.4513946029,110.6976102929
 C,0,-7.4513613947,55.9316394323,109.4369204736
 H,0,-6.5233351631,55.829718808,108.9129333706
 Recover connectivity data from disk.
 Stoichiometry    C34H36FeN6O(1+,2)
 Framework group  C1[X(C34H36FeN6O)]
 Deg. of freedom   228
 Full point group                 C1      NOp   1
 Largest Abelian subgroup         C1      NOp   1
 Largest concise Abelian subgroup C1      NOp   1
                         Standard orientation:                         
 ---------------------------------------------------------------------
 Center     Atomic      Atomic             Coordinates (Angstroms)
 Number     Number       Type             X           Y           Z
 ---------------------------------------------------------------------
      1         26           0        0.065985   -0.163884   -0.317873
      2          7           0        1.255404   -1.771527   -0.436128
      3          7           0        1.671483    1.026347   -0.208844
      4          7           0       -1.118680    1.446325   -0.487242
      5          7           0       -1.535205   -1.342921   -0.573836
      6          6           0        0.871657   -3.070934   -0.549510
      7          6           0        2.023540   -3.935685   -0.662382
      8          6           0        3.117379   -3.128254   -0.594095
      9          6           0        2.617787   -1.777883   -0.466164
     10          6           0        2.977601    0.647329   -0.291658
     11          6           0        3.851818    1.788131   -0.204233
     12          6           0        3.039414    2.887874   -0.118427
     13          6           0        1.680016    2.384709   -0.194035
     14          6           0       -0.730688    2.750758   -0.462516
     15          6           0       -1.856646    3.628307   -0.660986
     16          6           0       -2.947542    2.818095   -0.831488
     17          6           0       -2.461712    1.460051   -0.680177
     18          6           0       -2.837321   -0.956578   -0.575082
     19          6           0       -3.713715   -2.099378   -0.436213
     20          6           0       -2.908848   -3.195015   -0.426544
     21          6           0       -1.551428   -2.701402   -0.515643
     22          6           0       -0.437198   -3.518328   -0.538153
     23          1           0       -0.599223   -4.585307   -0.559677
     24          6           0        3.425945   -0.659018   -0.400622
     25          1           0        4.492894   -0.818054   -0.441668
     26          6           0        0.566067    3.195440   -0.277854
     27          1           0        0.721625    4.262560   -0.238668
     28          6           0       -3.281909    0.347335   -0.686506
     29          1           0       -4.347172    0.508702   -0.754400
     30          6           0        4.562354   -3.488388   -0.663028
     31          1           0        4.688874   -4.564783   -0.749079
     32          1           0        5.085324   -3.152512    0.232703
     33          1           0        5.035613   -3.017878   -1.525633
     34          6           0        1.951169   -5.416731   -0.812657
     35          1           0        1.371134   -5.683568   -1.696216
     36          1           0        1.469229   -5.867481    0.055398
     37          1           0        2.945319   -5.845434   -0.913302
     38          6           0        5.338377    1.740198   -0.281706
     39          1           0        5.663087    0.988576   -0.999822
     40          1           0        5.773023    1.490082    0.687740
     41          1           0        5.726805    2.708136   -0.592006
     42          6           0        3.405420    4.283129   -0.026976
     43          1           0        2.735906    4.979620   -0.518015
     44          6           0        4.470014    4.759771    0.610974
     45          1           0        4.689712    5.814403    0.630328
     46          1           0        5.143537    4.123134    1.157888
     47          6           0       -1.780895    5.111630   -0.768981
     48          1           0       -0.877082    5.415799   -1.294878
     49          1           0       -1.766704    5.572259    0.220244
     50          1           0       -2.643868    5.491099   -1.312511
     51          6           0       -4.323552    3.171765   -1.102139
     52          1           0       -4.869384    2.472534   -1.725473
     53          6           0       -4.947177    4.255240   -0.650523
     54          1           0       -4.469367    4.957669    0.009910
     55          1           0       -5.972941    4.463037   -0.906927
     56          6           0       -5.200081   -2.015581   -0.367064
     57          1           0       -5.605168   -1.612822   -1.296117
     58          1           0       -5.509948   -1.360689    0.447334
     59          1           0       -5.635974   -2.998042   -0.202625
     60          6           0       -3.275234   -4.635880   -0.321952
     61          1           0       -4.353549   -4.756964   -0.253914
     62          1           0       -2.821413   -5.084707    0.561915
     63          1           0       -2.924424   -5.183894   -1.196765
     64          8           0        0.333694   -0.170190   -2.586632
     65          1           0        0.907498   -0.928086   -2.702184
     66          1           0        0.070129    0.391939   -3.223080
     67          6           0       -1.741447   -0.291477    4.949941
     68          1           0       -2.775906   -0.105045    4.679366
     69          1           0       -1.409713    0.497217    5.625155
     70          1           0       -1.684741   -1.241329    5.481399
     71          7           0        0.443653   -0.563802    3.758179
     72          1           0        0.989390   -0.732845    4.587130
     73          6           0       -0.904878   -0.323260    3.723508
     74          6           0        0.899189   -0.527333    2.485215
     75          1           0        1.920625   -0.681599    2.204791
     76          7           0       -0.078919   -0.279280    1.647558
     77          6           0       -1.207260   -0.148572    2.403171
     78          1           0       -2.153786    0.060382    1.948627
 ---------------------------------------------------------------------
 Rotational constants (GHZ):           0.0930213           0.0910421           0.0592824
 Standard basis: def2TZVP (5D, 7F)
 There are  1744 symmetry adapted cartesian basis functions of A   symmetry.
 There are  1532 symmetry adapted basis functions of A   symmetry.
  1532 basis functions,  2481 primitive gaussians,  1744 cartesian basis functions
   158 alpha electrons      157 beta electrons
       nuclear repulsion energy      5963.8145622065 Hartrees.
 NAtoms=   78 NActive=   78 NUniq=   78 SFac= 1.00D+00 NAtFMM=   60 NAOKFM=T Big=T
 Integral buffers will be    131072 words long.
 Raffenetti 2 integral format.
 Two-electron integral symmetry is turned on.
 R6APFD:  NTU= -4 IXU= 1 FactS= 1.050
 Nuclear repulsion after empirical dispersion term =     5963.6619761431 Hartrees.
 One-electron integrals computed using PRISM.
   1 Symmetry operations used in ECPInt.
 ECPInt:  NShTT=  186355 NPrTT=  576197 LenC2=  147120 LenP2D=  301049.
 LDataN:  DoStor=T MaxTD1= 6 Len=  172
 Number of processors reduced to  23 by ecpmxn.
 NBasis=  1532 RedAO= T EigKep=  3.25D-06  NBF=  1532
 NBsUse=  1532 1.00D-06 EigRej= -1.00D+00 NBFU=  1532
 Initial guess from the checkpoint file:  "1a2f_III_Dn.chk"
 B after Tr=     0.000000    0.000000   -0.000000
         Rot=    1.000000    0.000000    0.000000   -0.000000 Ang=   0.00 deg.
 Initial guess <Sx>= 0.0000 <Sy>= 0.0000 <Sz>= 0.5000 <S**2>= 0.8004 S= 0.5249
 Requested convergence on RMS density matrix=1.00D-08 within 999 cycles.
 Requested convergence on MAX density matrix=1.00D-06.
 Requested convergence on             energy=1.00D-06.
 No special actions if energy rises.
 Restarting incremental Fock formation.
 Restarting incremental Fock formation.
 SCF Done:  E(UAPFD) =  -2983.83319502     A.U. after   54 cycles
            NFock= 54  Conv=0.13D-08     -V/T= 2.0035
 <Sx>= 0.0000 <Sy>= 0.0000 <Sz>= 0.5000 <S**2>= 0.8018 S= 0.5256
 <L.S>=  0.00000000000    
 Annihilation of the first spin contaminant:
 S**2 before annihilation     0.8018,   after     0.7508

 **********************************************************************

            Population analysis using the SCF Density.

 **********************************************************************

 Orbital symmetries:
 Alpha Orbitals:
       Occupied  (A) (A) (A) (A) (A) (A) (A) (A) (A) (A) (A) (A)
                 (A) (A) (A) (A) (A) (A) (A) (A) (A) (A) (A) (A)
                 (A) (A) (A) (A) (A) (A) (A) (A) (A) (A) (A) (A)
                 (A) (A) (A) (A) (A) (A) (A) (A) (A) (A) (A) (A)
                 (A) (A) (A) (A) (A) (A) (A) (A) (A) (A) (A) (A)
                 (A) (A) (A) (A) (A) (A) (A) (A) (A) (A) (A) (A)
                 (A) (A) (A) (A) (A) (A) (A) (A) (A) (A) (A) (A)
                 (A) (A) (A) (A) (A) (A) (A) (A) (A) (A) (A) (A)
                 (A) (A) (A) (A) (A) (A) (A) (A) (A) (A) (A) (A)
                 (A) (A) (A) (A) (A) (A) (A) (A) (A) (A) (A) (A)
                 (A) (A) (A) (A) (A) (A) (A) (A) (A) (A) (A) (A)
                 (A) (A) (A) (A) (A) (A) (A) (A) (A) (A) (A) (A)
                 (A) (A) (A) (A) (A) (A) (A) (A) (A) (A) (A) (A)
                 (A) (A)
       Virtual   (A) (A) (A) (A) (A) (A) (A) (A) (A) (A) (A) (A)
                 (A) (A) (A) (A) (A) (A) (A) (A) (A) (A) (A) (A)
                 (A) (A) (A) (A) (A) (A) (A) (A) (A) (A) (A) (A)
                 (A) (A) (A) (A) (A) (A) (A) (A) (A) (A) (A) (A)
                 (A) (A) (A) (A) (A) (A) (A) (A) (A) (A) (A) (A)
                 (A) (A) (A) (A) (A) (A) (A) (A) (A) (A) (A) (A)
                 (A) (A) (A) (A) (A) (A) (A) (A) (A) (A) (A) (A)
                 (A) (A) (A) (A) (A) (A) (A) (A) (A) (A) (A) (A)
                 (A) (A) (A) (A) (A) (A) (A) (A) (A) (A) (A) (A)
                 (A) (A) (A) (A) (A) (A) (A) (A) (A) (A) (A) (A)
                 (A) (A) (A) (A) (A) (A) (A) (A) (A) (A) (A) (A)
                 (A) (A) (A) (A) (A) (A) (A) (A) (A) (A) (A) (A)
                 (A) (A) (A) (A) (A) (A) (A) (A) (A) (A) (A) (A)
                 (A) (A) (A) (A) (A) (A) (A) (A) (A) (A) (A) (A)
                 (A) (A) (A) (A) (A) (A) (A) (A) (A) (A) (A) (A)
                 (A) (A) (A) (A) (A) (A) (A) (A) (A) (A) (A) (A)
                 (A) (A) (A) (A) (A) (A) (A) (A) (A) (A) (A) (A)
                 (A) (A) (A) (A) (A) (A) (A) (A) (A) (A) (A) (A)
                 (A) (A) (A) (A) (A) (A) (A) (A) (A) (A) (A) (A)
                 (A) (A) (A) (A) (A) (A) (A) (A) (A) (A) (A) (A)
                 (A) (A) (A) (A) (A) (A) (A) (A) (A) (A) (A) (A)
                 (A) (A) (A) (A) (A) (A) (A) (A) (A) (A) (A) (A)
                 (A) (A) (A) (A) (A) (A) (A) (A) (A) (A) (A) (A)
                 (A) (A) (A) (A) (A) (A) (A) (A) (A) (A) (A) (A)
                 (A) (A) (A) (A) (A) (A) (A) (A) (A) (A) (A) (A)
                 (A) (A) (A) (A) (A) (A) (A) (A) (A) (A) (A) (A)
                 (A) (A) (A) (A) (A) (A) (A) (A) (A) (A) (A) (A)
                 (A) (A) (A) (A) (A) (A) (A) (A) (A) (A) (A) (A)
                 (A) (A) (A) (A) (A) (A) (A) (A) (A) (A) (A) (A)
                 (A) (A) (A) (A) (A) (A) (A) (A) (A) (A) (A) (A)
                 (A) (A) (A) (A) (A) (A) (A) (A) (A) (A) (A) (A)
                 (A) (A) (A) (A) (A) (A) (A) (A) (A) (A) (A) (A)
                 (A) (A) (A) (A) (A) (A) (A) (A) (A) (A) (A) (A)
                 (A) (A) (A) (A) (A) (A) (A) (A) (A) (A) (A) (A)
                 (A) (A) (A) (A) (A) (A) (A) (A) (A) (A) (A) (A)
                 (A) (A) (A) (A) (A) (A) (A) (A) (A) (A) (A) (A)
                 (A) (A) (A) (A) (A) (A) (A) (A) (A) (A) (A) (A)
                 (A) (A) (A) (A) (A) (A) (A) (A) (A) (A) (A) (A)
                 (A) (A) (A) (A) (A) (A) (A) (A) (A) (A) (A) (A)
                 (A) (A) (A) (A) (A) (A) (A) (A) (A) (A) (A) (A)
                 (A) (A) (A) (A) (A) (A) (A) (A) (A) (A) (A) (A)
                 (A) (A) (A) (A) (A) (A) (A) (A) (A) (A) (A) (A)
                 (A) (A) (A) (A) (A) (A) (A) (A) (A) (A) (A) (A)
                 (A) (A) (A) (A) (A) (A) (A) (A) (A) (A) (A) (A)
                 (A) (A) (A) (A) (A) (A) (A) (A) (A) (A) (A) (A)
                 (A) (A) (A) (A) (A) (A) (A) (A) (A) (A) (A) (A)
                 (A) (A) (A) (A) (A) (A) (A) (A) (A) (A) (A) (A)
                 (A) (A) (A) (A) (A) (A) (A) (A) (A) (A) (A) (A)
                 (A) (A) (A) (A) (A) (A) (A) (A) (A) (A) (A) (A)
                 (A) (A) (A) (A) (A) (A) (A) (A) (A) (A) (A) (A)
                 (A) (A) (A) (A) (A) (A) (A) (A) (A) (A) (A) (A)
                 (A) (A) (A) (A) (A) (A) (A) (A) (A) (A) (A) (A)
                 (A) (A) (A) (A) (A) (A) (A) (A) (A) (A) (A) (A)
                 (A) (A) (A) (A) (A) (A) (A) (A) (A) (A) (A) (A)
                 (A) (A) (A) (A) (A) (A) (A) (A) (A) (A) (A) (A)
                 (A) (A) (A) (A) (A) (A) (A) (A) (A) (A) (A) (A)
                 (A) (A) (A) (A) (A) (A) (A) (A) (A) (A) (A) (A)
                 (A) (A) (A) (A) (A) (A) (A) (A) (A) (A) (A) (A)
                 (A) (A) (A) (A) (A) (A) (A) (A) (A) (A) (A) (A)
                 (A) (A) (A) (A) (A) (A) (A) (A) (A) (A) (A) (A)
                 (A) (A) (A) (A) (A) (A) (A) (A) (A) (A) (A) (A)
                 (A) (A) (A) (A) (A) (A) (A) (A) (A) (A) (A) (A)
                 (A) (A) (A) (A) (A) (A) (A) (A) (A) (A) (A) (A)
                 (A) (A) (A) (A) (A) (A) (A) (A) (A) (A) (A) (A)
                 (A) (A) (A) (A) (A) (A) (A) (A) (A) (A) (A) (A)
                 (A) (A) (A) (A) (A) (A) (A) (A) (A) (A) (A) (A)
                 (A) (A) (A) (A) (A) (A) (A) (A) (A) (A) (A) (A)
                 (A) (A) (A) (A) (A) (A) (A) (A) (A) (A) (A) (A)
                 (A) (A) (A) (A) (A) (A) (A) (A) (A) (A) (A) (A)
                 (A) (A) (A) (A) (A) (A) (A) (A) (A) (A) (A) (A)
                 (A) (A) (A) (A) (A) (A) (A) (A) (A) (A) (A) (A)
                 (A) (A) (A) (A) (A) (A) (A) (A) (A) (A) (A) (A)
                 (A) (A) (A) (A) (A) (A) (A) (A) (A) (A) (A) (A)
                 (A) (A) (A) (A) (A) (A) (A) (A) (A) (A) (A) (A)
                 (A) (A) (A) (A) (A) (A) (A) (A) (A) (A) (A) (A)
                 (A) (A) (A) (A) (A) (A) (A) (A) (A) (A) (A) (A)
                 (A) (A) (A) (A) (A) (A) (A) (A) (A) (A) (A) (A)
                 (A) (A) (A) (A) (A) (A) (A) (A) (A) (A) (A) (A)
                 (A) (A) (A) (A) (A) (A) (A) (A) (A) (A) (A) (A)
                 (A) (A) (A) (A) (A) (A) (A) (A) (A) (A) (A) (A)
                 (A) (A) (A) (A) (A) (A) (A) (A) (A) (A) (A) (A)
                 (A) (A) (A) (A) (A) (A) (A) (A) (A) (A) (A) (A)
                 (A) (A) (A) (A) (A) (A) (A) (A) (A) (A) (A) (A)
                 (A) (A) (A) (A) (A) (A) (A) (A) (A) (A) (A) (A)
                 (A) (A) (A) (A) (A) (A) (A) (A) (A) (A) (A) (A)
                 (A) (A) (A) (A) (A) (A) (A) (A) (A) (A) (A) (A)
                 (A) (A) (A) (A) (A) (A) (A) (A) (A) (A) (A) (A)
                 (A) (A) (A) (A) (A) (A) (A) (A) (A) (A) (A) (A)
                 (A) (A) (A) (A) (A) (A) (A) (A) (A) (A) (A) (A)
                 (A) (A) (A) (A) (A) (A) (A) (A) (A) (A) (A) (A)
                 (A) (A) (A) (A) (A) (A) (A) (A) (A) (A) (A) (A)
                 (A) (A) (A) (A) (A) (A) (A) (A) (A) (A) (A) (A)
                 (A) (A) (A) (A) (A) (A) (A) (A) (A) (A) (A) (A)
                 (A) (A) (A) (A) (A) (A) (A) (A) (A) (A) (A) (A)
                 (A) (A) (A) (A) (A) (A) (A) (A) (A) (A) (A) (A)
                 (A) (A) (A) (A) (A) (A) (A) (A) (A) (A) (A) (A)
                 (A) (A) (A) (A) (A) (A) (A) (A) (A) (A) (A) (A)
                 (A) (A) (A) (A) (A) (A) (A) (A) (A) (A) (A) (A)
                 (A) (A) (A) (A) (A) (A) (A) (A) (A) (A) (A) (A)
                 (A) (A) (A) (A) (A) (A) (A) (A) (A) (A) (A) (A)
                 (A) (A) (A) (A) (A) (A) (A) (A) (A) (A) (A) (A)
                 (A) (A) (A) (A) (A) (A) (A) (A) (A) (A) (A) (A)
                 (A) (A) (A) (A) (A) (A) (A) (A) (A) (A) (A) (A)
                 (A) (A) (A) (A) (A) (A) (A) (A) (A) (A) (A) (A)
                 (A) (A) (A) (A) (A) (A) (A) (A) (A) (A) (A) (A)
                 (A) (A) (A) (A) (A) (A) (A) (A) (A) (A) (A) (A)
                 (A) (A) (A) (A) (A) (A) (A) (A) (A) (A) (A) (A)
                 (A) (A) (A) (A) (A) (A) (A) (A) (A) (A) (A) (A)
                 (A) (A) (A) (A) (A) (A) (A) (A) (A) (A) (A) (A)
                 (A) (A) (A) (A) (A) (A) (A) (A) (A) (A) (A) (A)
                 (A) (A) (A) (A) (A) (A) (A) (A) (A) (A) (A) (A)
                 (A) (A) (A) (A) (A) (A) (A) (A) (A) (A) (A) (A)
                 (A) (A) (A) (A) (A) (A) (A) (A) (A) (A) (A) (A)
                 (A) (A) (A) (A) (A) (A) (A) (A) (A) (A) (A) (A)
                 (A) (A) (A) (A) (A) (A)
 Beta  Orbitals:
       Occupied  (A) (A) (A) (A) (A) (A) (A) (A) (A) (A) (A) (A)
                 (A) (A) (A) (A) (A) (A) (A) (A) (A) (A) (A) (A)
                 (A) (A) (A) (A) (A) (A) (A) (A) (A) (A) (A) (A)
                 (A) (A) (A) (A) (A) (A) (A) (A) (A) (A) (A) (A)
                 (A) (A) (A) (A) (A) (A) (A) (A) (A) (A) (A) (A)
                 (A) (A) (A) (A) (A) (A) (A) (A) (A) (A) (A) (A)
                 (A) (A) (A) (A) (A) (A) (A) (A) (A) (A) (A) (A)
                 (A) (A) (A) (A) (A) (A) (A) (A) (A) (A) (A) (A)
                 (A) (A) (A) (A) (A) (A) (A) (A) (A) (A) (A) (A)
                 (A) (A) (A) (A) (A) (A) (A) (A) (A) (A) (A) (A)
                 (A) (A) (A) (A) (A) (A) (A) (A) (A) (A) (A) (A)
                 (A) (A) (A) (A) (A) (A) (A) (A) (A) (A) (A) (A)
                 (A) (A) (A) (A) (A) (A) (A) (A) (A) (A) (A) (A)
                 (A)
       Virtual   (A) (A) (A) (A) (A) (A) (A) (A) (A) (A) (A) (A)
                 (A) (A) (A) (A) (A) (A) (A) (A) (A) (A) (A) (A)
                 (A) (A) (A) (A) (A) (A) (A) (A) (A) (A) (A) (A)
                 (A) (A) (A) (A) (A) (A) (A) (A) (A) (A) (A) (A)
                 (A) (A) (A) (A) (A) (A) (A) (A) (A) (A) (A) (A)
                 (A) (A) (A) (A) (A) (A) (A) (A) (A) (A) (A) (A)
                 (A) (A) (A) (A) (A) (A) (A) (A) (A) (A) (A) (A)
                 (A) (A) (A) (A) (A) (A) (A) (A) (A) (A) (A) (A)
                 (A) (A) (A) (A) (A) (A) (A) (A) (A) (A) (A) (A)
                 (A) (A) (A) (A) (A) (A) (A) (A) (A) (A) (A) (A)
                 (A) (A) (A) (A) (A) (A) (A) (A) (A) (A) (A) (A)
                 (A) (A) (A) (A) (A) (A) (A) (A) (A) (A) (A) (A)
                 (A) (A) (A) (A) (A) (A) (A) (A) (A) (A) (A) (A)
                 (A) (A) (A) (A) (A) (A) (A) (A) (A) (A) (A) (A)
                 (A) (A) (A) (A) (A) (A) (A) (A) (A) (A) (A) (A)
                 (A) (A) (A) (A) (A) (A) (A) (A) (A) (A) (A) (A)
                 (A) (A) (A) (A) (A) (A) (A) (A) (A) (A) (A) (A)
                 (A) (A) (A) (A) (A) (A) (A) (A) (A) (A) (A) (A)
                 (A) (A) (A) (A) (A) (A) (A) (A) (A) (A) (A) (A)
                 (A) (A) (A) (A) (A) (A) (A) (A) (A) (A) (A) (A)
                 (A) (A) (A) (A) (A) (A) (A) (A) (A) (A) (A) (A)
                 (A) (A) (A) (A) (A) (A) (A) (A) (A) (A) (A) (A)
                 (A) (A) (A) (A) (A) (A) (A) (A) (A) (A) (A) (A)
                 (A) (A) (A) (A) (A) (A) (A) (A) (A) (A) (A) (A)
                 (A) (A) (A) (A) (A) (A) (A) (A) (A) (A) (A) (A)
                 (A) (A) (A) (A) (A) (A) (A) (A) (A) (A) (A) (A)
                 (A) (A) (A) (A) (A) (A) (A) (A) (A) (A) (A) (A)
                 (A) (A) (A) (A) (A) (A) (A) (A) (A) (A) (A) (A)
                 (A) (A) (A) (A) (A) (A) (A) (A) (A) (A) (A) (A)
                 (A) (A) (A) (A) (A) (A) (A) (A) (A) (A) (A) (A)
                 (A) (A) (A) (A) (A) (A) (A) (A) (A) (A) (A) (A)
                 (A) (A) (A) (A) (A) (A) (A) (A) (A) (A) (A) (A)
                 (A) (A) (A) (A) (A) (A) (A) (A) (A) (A) (A) (A)
                 (A) (A) (A) (A) (A) (A) (A) (A) (A) (A) (A) (A)
                 (A) (A) (A) (A) (A) (A) (A) (A) (A) (A) (A) (A)
                 (A) (A) (A) (A) (A) (A) (A) (A) (A) (A) (A) (A)
                 (A) (A) (A) (A) (A) (A) (A) (A) (A) (A) (A) (A)
                 (A) (A) (A) (A) (A) (A) (A) (A) (A) (A) (A) (A)
                 (A) (A) (A) (A) (A) (A) (A) (A) (A) (A) (A) (A)
                 (A) (A) (A) (A) (A) (A) (A) (A) (A) (A) (A) (A)
                 (A) (A) (A) (A) (A) (A) (A) (A) (A) (A) (A) (A)
                 (A) (A) (A) (A) (A) (A) (A) (A) (A) (A) (A) (A)
                 (A) (A) (A) (A) (A) (A) (A) (A) (A) (A) (A) (A)
                 (A) (A) (A) (A) (A) (A) (A) (A) (A) (A) (A) (A)
                 (A) (A) (A) (A) (A) (A) (A) (A) (A) (A) (A) (A)
                 (A) (A) (A) (A) (A) (A) (A) (A) (A) (A) (A) (A)
                 (A) (A) (A) (A) (A) (A) (A) (A) (A) (A) (A) (A)
                 (A) (A) (A) (A) (A) (A) (A) (A) (A) (A) (A) (A)
                 (A) (A) (A) (A) (A) (A) (A) (A) (A) (A) (A) (A)
                 (A) (A) (A) (A) (A) (A) (A) (A) (A) (A) (A) (A)
                 (A) (A) (A) (A) (A) (A) (A) (A) (A) (A) (A) (A)
                 (A) (A) (A) (A) (A) (A) (A) (A) (A) (A) (A) (A)
                 (A) (A) (A) (A) (A) (A) (A) (A) (A) (A) (A) (A)
                 (A) (A) (A) (A) (A) (A) (A) (A) (A) (A) (A) (A)
                 (A) (A) (A) (A) (A) (A) (A) (A) (A) (A) (A) (A)
                 (A) (A) (A) (A) (A) (A) (A) (A) (A) (A) (A) (A)
                 (A) (A) (A) (A) (A) (A) (A) (A) (A) (A) (A) (A)
                 (A) (A) (A) (A) (A) (A) (A) (A) (A) (A) (A) (A)
                 (A) (A) (A) (A) (A) (A) (A) (A) (A) (A) (A) (A)
                 (A) (A) (A) (A) (A) (A) (A) (A) (A) (A) (A) (A)
                 (A) (A) (A) (A) (A) (A) (A) (A) (A) (A) (A) (A)
                 (A) (A) (A) (A) (A) (A) (A) (A) (A) (A) (A) (A)
                 (A) (A) (A) (A) (A) (A) (A) (A) (A) (A) (A) (A)
                 (A) (A) (A) (A) (A) (A) (A) (A) (A) (A) (A) (A)
                 (A) (A) (A) (A) (A) (A) (A) (A) (A) (A) (A) (A)
                 (A) (A) (A) (A) (A) (A) (A) (A) (A) (A) (A) (A)
                 (A) (A) (A) (A) (A) (A) (A) (A) (A) (A) (A) (A)
                 (A) (A) (A) (A) (A) (A) (A) (A) (A) (A) (A) (A)
                 (A) (A) (A) (A) (A) (A) (A) (A) (A) (A) (A) (A)
                 (A) (A) (A) (A) (A) (A) (A) (A) (A) (A) (A) (A)
                 (A) (A) (A) (A) (A) (A) (A) (A) (A) (A) (A) (A)
                 (A) (A) (A) (A) (A) (A) (A) (A) (A) (A) (A) (A)
                 (A) (A) (A) (A) (A) (A) (A) (A) (A) (A) (A) (A)
                 (A) (A) (A) (A) (A) (A) (A) (A) (A) (A) (A) (A)
                 (A) (A) (A) (A) (A) (A) (A) (A) (A) (A) (A) (A)
                 (A) (A) (A) (A) (A) (A) (A) (A) (A) (A) (A) (A)
                 (A) (A) (A) (A) (A) (A) (A) (A) (A) (A) (A) (A)
                 (A) (A) (A) (A) (A) (A) (A) (A) (A) (A) (A) (A)
                 (A) (A) (A) (A) (A) (A) (A) (A) (A) (A) (A) (A)
                 (A) (A) (A) (A) (A) (A) (A) (A) (A) (A) (A) (A)
                 (A) (A) (A) (A) (A) (A) (A) (A) (A) (A) (A) (A)
                 (A) (A) (A) (A) (A) (A) (A) (A) (A) (A) (A) (A)
                 (A) (A) (A) (A) (A) (A) (A) (A) (A) (A) (A) (A)
                 (A) (A) (A) (A) (A) (A) (A) (A) (A) (A) (A) (A)
                 (A) (A) (A) (A) (A) (A) (A) (A) (A) (A) (A) (A)
                 (A) (A) (A) (A) (A) (A) (A) (A) (A) (A) (A) (A)
                 (A) (A) (A) (A) (A) (A) (A) (A) (A) (A) (A) (A)
                 (A) (A) (A) (A) (A) (A) (A) (A) (A) (A) (A) (A)
                 (A) (A) (A) (A) (A) (A) (A) (A) (A) (A) (A) (A)
                 (A) (A) (A) (A) (A) (A) (A) (A) (A) (A) (A) (A)
                 (A) (A) (A) (A) (A) (A) (A) (A) (A) (A) (A) (A)
                 (A) (A) (A) (A) (A) (A) (A) (A) (A) (A) (A) (A)
                 (A) (A) (A) (A) (A) (A) (A) (A) (A) (A) (A) (A)
                 (A) (A) (A) (A) (A) (A) (A) (A) (A) (A) (A) (A)
                 (A) (A) (A) (A) (A) (A) (A) (A) (A) (A) (A) (A)
                 (A) (A) (A) (A) (A) (A) (A) (A) (A) (A) (A) (A)
                 (A) (A) (A) (A) (A) (A) (A) (A) (A) (A) (A) (A)
                 (A) (A) (A) (A) (A) (A) (A) (A) (A) (A) (A) (A)
                 (A) (A) (A) (A) (A) (A) (A) (A) (A) (A) (A) (A)
                 (A) (A) (A) (A) (A) (A) (A) (A) (A) (A) (A) (A)
                 (A) (A) (A) (A) (A) (A) (A) (A) (A) (A) (A) (A)
                 (A) (A) (A) (A) (A) (A) (A) (A) (A) (A) (A) (A)
                 (A) (A) (A) (A) (A) (A) (A) (A) (A) (A) (A) (A)
                 (A) (A) (A) (A) (A) (A) (A) (A) (A) (A) (A) (A)
                 (A) (A) (A) (A) (A) (A) (A) (A) (A) (A) (A) (A)
                 (A) (A) (A) (A) (A) (A) (A) (A) (A) (A) (A) (A)
                 (A) (A) (A) (A) (A) (A) (A) (A) (A) (A) (A) (A)
                 (A) (A) (A) (A) (A) (A) (A) (A) (A) (A) (A) (A)
                 (A) (A) (A) (A) (A) (A) (A) (A) (A) (A) (A) (A)
                 (A) (A) (A) (A) (A) (A) (A) (A) (A) (A) (A) (A)
                 (A) (A) (A) (A) (A) (A) (A) (A) (A) (A) (A) (A)
                 (A) (A) (A) (A) (A) (A) (A) (A) (A) (A) (A) (A)
                 (A) (A) (A) (A) (A) (A) (A) (A) (A) (A) (A) (A)
                 (A) (A) (A) (A) (A) (A) (A) (A) (A) (A) (A) (A)
                 (A) (A) (A) (A) (A) (A) (A)
 The electronic state is 2-A.
 Alpha  occ. eigenvalues -- -256.38985 -30.25732 -26.10456 -26.10222 -26.07429
 Alpha  occ. eigenvalues --  -19.29168 -14.53433 -14.50344 -14.46189 -14.45945
 Alpha  occ. eigenvalues --  -14.45838 -14.45613 -10.38110 -10.35214 -10.32822
 Alpha  occ. eigenvalues --  -10.32782 -10.32781 -10.32596 -10.32558 -10.32554
 Alpha  occ. eigenvalues --  -10.32551 -10.32519 -10.32329 -10.30525 -10.29995
 Alpha  occ. eigenvalues --  -10.29765 -10.29681 -10.29679 -10.29606 -10.29506
 Alpha  occ. eigenvalues --  -10.29501 -10.29488 -10.29475 -10.29466 -10.29420
 Alpha  occ. eigenvalues --  -10.29091 -10.28865 -10.28553 -10.27972 -10.27926
 Alpha  occ. eigenvalues --  -10.27914 -10.27864 -10.27825 -10.27524 -10.27391
 Alpha  occ. eigenvalues --  -10.27233  -3.64207  -2.42570  -2.42010  -2.36121
 Alpha  occ. eigenvalues --   -1.17497  -1.16801  -1.08907  -1.08020  -1.07773
 Alpha  occ. eigenvalues --   -1.06894  -1.03376  -0.93502  -0.92317  -0.91792
 Alpha  occ. eigenvalues --   -0.91419  -0.91254  -0.91059  -0.90725  -0.90623
 Alpha  occ. eigenvalues --   -0.86749  -0.85501  -0.85231  -0.84325  -0.82979
 Alpha  occ. eigenvalues --   -0.82761  -0.81197  -0.80156  -0.78561  -0.78366
 Alpha  occ. eigenvalues --   -0.78162  -0.76532  -0.75132  -0.75103  -0.73010
 Alpha  occ. eigenvalues --   -0.72341  -0.70715  -0.70005  -0.68856  -0.68174
 Alpha  occ. eigenvalues --   -0.67559  -0.65202  -0.64468  -0.63594  -0.63369
 Alpha  occ. eigenvalues --   -0.61938  -0.61813  -0.61442  -0.59601  -0.59333
 Alpha  occ. eigenvalues --   -0.59029  -0.58328  -0.58101  -0.56059  -0.55635
 Alpha  occ. eigenvalues --   -0.55316  -0.54885  -0.54463  -0.54340  -0.54183
 Alpha  occ. eigenvalues --   -0.54018  -0.53483  -0.53400  -0.53339  -0.52880
 Alpha  occ. eigenvalues --   -0.52681  -0.52504  -0.52301  -0.52066  -0.51769
 Alpha  occ. eigenvalues --   -0.50767  -0.50693  -0.50572  -0.50513  -0.50290
 Alpha  occ. eigenvalues --   -0.50197  -0.49922  -0.49705  -0.49421  -0.49151
 Alpha  occ. eigenvalues --   -0.48699  -0.48466  -0.48389  -0.48104  -0.47973
 Alpha  occ. eigenvalues --   -0.47582  -0.47245  -0.46915  -0.46682  -0.46270
 Alpha  occ. eigenvalues --   -0.45864  -0.45316  -0.44934  -0.44393  -0.43744
 Alpha  occ. eigenvalues --   -0.43495  -0.43070  -0.42617  -0.42220  -0.41485
 Alpha  occ. eigenvalues --   -0.40034  -0.39756  -0.39731  -0.39282  -0.37625
 Alpha  occ. eigenvalues --   -0.37289  -0.35468  -0.34069  -0.33561  -0.32533
 Alpha  occ. eigenvalues --   -0.31988  -0.30008  -0.28922
 Alpha virt. eigenvalues --   -0.19630  -0.17803  -0.17744  -0.14739  -0.12192
 Alpha virt. eigenvalues --   -0.10430  -0.08945  -0.07700  -0.07266  -0.06501
 Alpha virt. eigenvalues --   -0.06125  -0.05582  -0.04178  -0.03946  -0.03148
 Alpha virt. eigenvalues --   -0.02695  -0.02684  -0.02327  -0.02134  -0.01364
 Alpha virt. eigenvalues --   -0.00577  -0.00474  -0.00288  -0.00169   0.00362
 Alpha virt. eigenvalues --    0.00675   0.00764   0.01644   0.02002   0.02252
 Alpha virt. eigenvalues --    0.02611   0.02744   0.03000   0.03075   0.03264
 Alpha virt. eigenvalues --    0.03422   0.03563   0.03861   0.04032   0.04211
 Alpha virt. eigenvalues --    0.04393   0.04570   0.04790   0.05169   0.05343
 Alpha virt. eigenvalues --    0.05508   0.05700   0.05906   0.06123   0.06279
 Alpha virt. eigenvalues --    0.06889   0.07058   0.07222   0.07511   0.07672
 Alpha virt. eigenvalues --    0.07879   0.08019   0.08357   0.08489   0.08641
 Alpha virt. eigenvalues --    0.08848   0.09052   0.09384   0.09601   0.10114
 Alpha virt. eigenvalues --    0.10335   0.10608   0.11079   0.11267   0.11382
 Alpha virt. eigenvalues --    0.11573   0.11726   0.11878   0.12176   0.12652
 Alpha virt. eigenvalues --    0.13032   0.13185   0.13505   0.13863   0.13892
 Alpha virt. eigenvalues --    0.14212   0.14398   0.14906   0.15109   0.15261
 Alpha virt. eigenvalues --    0.15754   0.16030   0.16542   0.16685   0.17012
 Alpha virt. eigenvalues --    0.17183   0.17480   0.17538   0.17633   0.18057
 Alpha virt. eigenvalues --    0.18174   0.18558   0.18703   0.19576   0.19667
 Alpha virt. eigenvalues --    0.19804   0.20229   0.20269   0.20545   0.20703
 Alpha virt. eigenvalues --    0.20966   0.21257   0.21426   0.21722   0.21830
 Alpha virt. eigenvalues --    0.22370   0.22548   0.22608   0.23309   0.23480
 Alpha virt. eigenvalues --    0.23636   0.24041   0.24073   0.24313   0.24415
 Alpha virt. eigenvalues --    0.24822   0.25087   0.25489   0.25774   0.25932
 Alpha virt. eigenvalues --    0.26097   0.26652   0.27014   0.27038   0.27337
 Alpha virt. eigenvalues --    0.27746   0.27840   0.28314   0.28507   0.29143
 Alpha virt. eigenvalues --    0.29336   0.29502   0.29712   0.29876   0.29905
 Alpha virt. eigenvalues --    0.30249   0.30410   0.30527   0.30848   0.31201
 Alpha virt. eigenvalues --    0.31370   0.31670   0.31727   0.32082   0.32238
 Alpha virt. eigenvalues --    0.32405   0.32595   0.32777   0.33175   0.33350
 Alpha virt. eigenvalues --    0.33434   0.33729   0.33827   0.33901   0.34586
 Alpha virt. eigenvalues --    0.34772   0.35037   0.35324   0.35427   0.35617
 Alpha virt. eigenvalues --    0.35971   0.36359   0.36646   0.36834   0.37109
 Alpha virt. eigenvalues --    0.37448   0.37564   0.37878   0.37925   0.37993
 Alpha virt. eigenvalues --    0.38389   0.38557   0.38766   0.38837   0.39164
 Alpha virt. eigenvalues --    0.39431   0.39584   0.39751   0.40120   0.40289
 Alpha virt. eigenvalues --    0.40682   0.40962   0.40993   0.41064   0.41536
 Alpha virt. eigenvalues --    0.41669   0.41843   0.41900   0.42339   0.42425
 Alpha virt. eigenvalues --    0.42631   0.43062   0.43135   0.43448   0.43496
 Alpha virt. eigenvalues --    0.43612   0.43842   0.43894   0.44458   0.44543
 Alpha virt. eigenvalues --    0.44849   0.45176   0.45360   0.45509   0.45785
 Alpha virt. eigenvalues --    0.46003   0.46245   0.46562   0.46913   0.47050
 Alpha virt. eigenvalues --    0.47137   0.47556   0.47757   0.47847   0.48124
 Alpha virt. eigenvalues --    0.48393   0.48979   0.49017   0.49337   0.49576
 Alpha virt. eigenvalues --    0.49978   0.50529   0.50949   0.51200   0.51536
 Alpha virt. eigenvalues --    0.51981   0.52301   0.52590   0.52808   0.53156
 Alpha virt. eigenvalues --    0.53425   0.53793   0.54110   0.54510   0.54541
 Alpha virt. eigenvalues --    0.54747   0.55004   0.55400   0.55542   0.55650
 Alpha virt. eigenvalues --    0.55806   0.56226   0.56376   0.56606   0.57304
 Alpha virt. eigenvalues --    0.57446   0.57797   0.58240   0.58531   0.59191
 Alpha virt. eigenvalues --    0.59196   0.59684   0.60122   0.60358   0.60528
 Alpha virt. eigenvalues --    0.60960   0.61187   0.61286   0.61760   0.61859
 Alpha virt. eigenvalues --    0.62285   0.62930   0.63065   0.63330   0.63752
 Alpha virt. eigenvalues --    0.64115   0.64315   0.64361   0.64726   0.65405
 Alpha virt. eigenvalues --    0.65734   0.66052   0.66503   0.66734   0.67000
 Alpha virt. eigenvalues --    0.67119   0.67556   0.68087   0.68198   0.68473
 Alpha virt. eigenvalues --    0.69243   0.69423   0.69696   0.69769   0.70023
 Alpha virt. eigenvalues --    0.70285   0.70941   0.71216   0.71361   0.72048
 Alpha virt. eigenvalues --    0.72499   0.72901   0.73484   0.74031   0.74237
 Alpha virt. eigenvalues --    0.74493   0.75113   0.75235   0.75662   0.76112
 Alpha virt. eigenvalues --    0.76566   0.76949   0.77229   0.77577   0.77819
 Alpha virt. eigenvalues --    0.78452   0.78725   0.78782   0.79975   0.80301
 Alpha virt. eigenvalues --    0.80445   0.80933   0.81078   0.81721   0.81793
 Alpha virt. eigenvalues --    0.82494   0.83050   0.83228   0.83574   0.84516
 Alpha virt. eigenvalues --    0.84732   0.84852   0.85111   0.85298   0.85727
 Alpha virt. eigenvalues --    0.86115   0.86535   0.86892   0.86980   0.87449
 Alpha virt. eigenvalues --    0.87912   0.88056   0.88662   0.88988   0.89406
 Alpha virt. eigenvalues --    0.89706   0.89947   0.90342   0.90472   0.90807
 Alpha virt. eigenvalues --    0.91225   0.91776   0.91909   0.92379   0.92389
 Alpha virt. eigenvalues --    0.92696   0.93002   0.93211   0.93559   0.93728
 Alpha virt. eigenvalues --    0.94194   0.94393   0.94707   0.94992   0.95383
 Alpha virt. eigenvalues --    0.95572   0.95908   0.96311   0.96473   0.97311
 Alpha virt. eigenvalues --    0.97447   0.98298   0.98466   0.98998   0.99356
 Alpha virt. eigenvalues --    0.99483   0.99956   1.00260   1.00869   1.01416
 Alpha virt. eigenvalues --    1.01844   1.02629   1.02717   1.03101   1.03665
 Alpha virt. eigenvalues --    1.03869   1.04428   1.05909   1.05939   1.06052
 Alpha virt. eigenvalues --    1.06308   1.06982   1.07507   1.07857   1.08208
 Alpha virt. eigenvalues --    1.08414   1.08896   1.09441   1.09582   1.09707
 Alpha virt. eigenvalues --    1.10468   1.10919   1.10970   1.11336   1.11726
 Alpha virt. eigenvalues --    1.11881   1.12278   1.12719   1.13025   1.13286
 Alpha virt. eigenvalues --    1.14253   1.14627   1.15185   1.15835   1.16093
 Alpha virt. eigenvalues --    1.16624   1.16948   1.17220   1.17921   1.18055
 Alpha virt. eigenvalues --    1.18399   1.18787   1.18946   1.19240   1.19457
 Alpha virt. eigenvalues --    1.19791   1.19824   1.20290   1.20750   1.21481
 Alpha virt. eigenvalues --    1.21564   1.21976   1.22104   1.23062   1.23469
 Alpha virt. eigenvalues --    1.24094   1.25418   1.25644   1.26132   1.26494
 Alpha virt. eigenvalues --    1.27261   1.27594   1.28012   1.28517   1.29316
 Alpha virt. eigenvalues --    1.30564   1.30693   1.31237   1.32406   1.32484
 Alpha virt. eigenvalues --    1.32975   1.33488   1.33840   1.34465   1.34597
 Alpha virt. eigenvalues --    1.34779   1.35287   1.36449   1.36570   1.36768
 Alpha virt. eigenvalues --    1.37137   1.37294   1.37881   1.38562   1.38954
 Alpha virt. eigenvalues --    1.39014   1.39259   1.39411   1.39660   1.40046
 Alpha virt. eigenvalues --    1.40323   1.40745   1.41091   1.41592   1.41698
 Alpha virt. eigenvalues --    1.42172   1.42261   1.42756   1.42942   1.43258
 Alpha virt. eigenvalues --    1.43540   1.43897   1.43998   1.44451   1.44745
 Alpha virt. eigenvalues --    1.44976   1.45188   1.45575   1.45654   1.46091
 Alpha virt. eigenvalues --    1.46291   1.46450   1.46514   1.46596   1.46904
 Alpha virt. eigenvalues --    1.47496   1.47772   1.48120   1.48238   1.48834
 Alpha virt. eigenvalues --    1.48942   1.49078   1.49278   1.49554   1.50089
 Alpha virt. eigenvalues --    1.50285   1.51097   1.51162   1.51357   1.51479
 Alpha virt. eigenvalues --    1.51910   1.52250   1.52452   1.52608   1.52833
 Alpha virt. eigenvalues --    1.53209   1.53679   1.54028   1.54355   1.54642
 Alpha virt. eigenvalues --    1.55163   1.55257   1.55392   1.55992   1.56175
 Alpha virt. eigenvalues --    1.56263   1.56733   1.57067   1.57630   1.57917
 Alpha virt. eigenvalues --    1.58336   1.58817   1.59018   1.59322   1.59931
 Alpha virt. eigenvalues --    1.60314   1.60445   1.60544   1.60983   1.61177
 Alpha virt. eigenvalues --    1.61742   1.62279   1.62607   1.63046   1.63400
 Alpha virt. eigenvalues --    1.63884   1.64208   1.64677   1.65006   1.66103
 Alpha virt. eigenvalues --    1.66374   1.66784   1.67794   1.68775   1.69117
 Alpha virt. eigenvalues --    1.69643   1.70349   1.70435   1.70660   1.71451
 Alpha virt. eigenvalues --    1.72429   1.72533   1.72808   1.73594   1.73753
 Alpha virt. eigenvalues --    1.74319   1.74725   1.75038   1.75170   1.75552
 Alpha virt. eigenvalues --    1.76466   1.76535   1.76856   1.77448   1.77631
 Alpha virt. eigenvalues --    1.78224   1.78433   1.78942   1.79244   1.79935
 Alpha virt. eigenvalues --    1.80213   1.80376   1.81130   1.81848   1.81944
 Alpha virt. eigenvalues --    1.82386   1.82779   1.83630   1.84156   1.84463
 Alpha virt. eigenvalues --    1.85019   1.85714   1.86262   1.86666   1.86999
 Alpha virt. eigenvalues --    1.87679   1.88158   1.88485   1.89188   1.89281
 Alpha virt. eigenvalues --    1.89448   1.90052   1.90633   1.91067   1.91411
 Alpha virt. eigenvalues --    1.91693   1.91873   1.92481   1.92705   1.93412
 Alpha virt. eigenvalues --    1.93547   1.94490   1.94752   1.95393   1.96031
 Alpha virt. eigenvalues --    1.96602   1.97123   1.97900   1.98384   1.98815
 Alpha virt. eigenvalues --    1.99075   1.99431   1.99637   2.00236   2.00552
 Alpha virt. eigenvalues --    2.01272   2.01398   2.01820   2.02388   2.02877
 Alpha virt. eigenvalues --    2.03234   2.03638   2.04287   2.04470   2.05047
 Alpha virt. eigenvalues --    2.05494   2.05846   2.06062   2.07010   2.07400
 Alpha virt. eigenvalues --    2.07849   2.08239   2.08366   2.08837   2.09467
 Alpha virt. eigenvalues --    2.09865   2.10623   2.10844   2.11055   2.11735
 Alpha virt. eigenvalues --    2.12038   2.13248   2.13727   2.14241   2.14738
 Alpha virt. eigenvalues --    2.15222   2.15755   2.16709   2.16838   2.17692
 Alpha virt. eigenvalues --    2.17899   2.18153   2.18381   2.18850   2.19602
 Alpha virt. eigenvalues --    2.19653   2.20378   2.20616   2.20860   2.21216
 Alpha virt. eigenvalues --    2.21285   2.21545   2.22738   2.23038   2.23360
 Alpha virt. eigenvalues --    2.23949   2.24620   2.25348   2.25521   2.25776
 Alpha virt. eigenvalues --    2.26368   2.27020   2.27113   2.27736   2.27905
 Alpha virt. eigenvalues --    2.28116   2.28601   2.29035   2.29337   2.29973
 Alpha virt. eigenvalues --    2.30464   2.30820   2.31136   2.31774   2.32151
 Alpha virt. eigenvalues --    2.32429   2.32881   2.33397   2.33933   2.34323
 Alpha virt. eigenvalues --    2.34894   2.35092   2.35642   2.36047   2.36394
 Alpha virt. eigenvalues --    2.36754   2.36801   2.37274   2.37661   2.38248
 Alpha virt. eigenvalues --    2.38670   2.39223   2.39596   2.40267   2.40545
 Alpha virt. eigenvalues --    2.41171   2.41599   2.41896   2.42554   2.42931
 Alpha virt. eigenvalues --    2.43757   2.44139   2.44378   2.44692   2.45153
 Alpha virt. eigenvalues --    2.45690   2.46302   2.46511   2.46970   2.47341
 Alpha virt. eigenvalues --    2.47496   2.47814   2.48181   2.48273   2.48814
 Alpha virt. eigenvalues --    2.49306   2.49646   2.50010   2.50465   2.50675
 Alpha virt. eigenvalues --    2.50909   2.51234   2.51522   2.51990   2.52419
 Alpha virt. eigenvalues --    2.52827   2.53105   2.53398   2.54262   2.54422
 Alpha virt. eigenvalues --    2.55285   2.55465   2.55530   2.55821   2.56443
 Alpha virt. eigenvalues --    2.56765   2.57019   2.57192   2.57758   2.58497
 Alpha virt. eigenvalues --    2.58645   2.59020   2.59365   2.60346   2.60428
 Alpha virt. eigenvalues --    2.60702   2.60837   2.61368   2.61744   2.62088
 Alpha virt. eigenvalues --    2.62507   2.62665   2.63735   2.63894   2.64355
 Alpha virt. eigenvalues --    2.64888   2.65255   2.65567   2.65740   2.66759
 Alpha virt. eigenvalues --    2.67428   2.67647   2.67915   2.68355   2.68576
 Alpha virt. eigenvalues --    2.69532   2.69766   2.69864   2.70265   2.71199
 Alpha virt. eigenvalues --    2.71572   2.72118   2.72318   2.72579   2.73226
 Alpha virt. eigenvalues --    2.73596   2.74080   2.74310   2.74524   2.74713
 Alpha virt. eigenvalues --    2.75318   2.75917   2.76478   2.76591   2.77107
 Alpha virt. eigenvalues --    2.77525   2.77655   2.78497   2.78948   2.79330
 Alpha virt. eigenvalues --    2.79521   2.79769   2.79894   2.80380   2.80957
 Alpha virt. eigenvalues --    2.81383   2.81501   2.81932   2.82195   2.82733
 Alpha virt. eigenvalues --    2.83089   2.83749   2.83948   2.84113   2.84606
 Alpha virt. eigenvalues --    2.84954   2.85305   2.85459   2.86311   2.86858
 Alpha virt. eigenvalues --    2.87146   2.87299   2.87409   2.87769   2.88368
 Alpha virt. eigenvalues --    2.88588   2.89063   2.89364   2.89774   2.90095
 Alpha virt. eigenvalues --    2.90211   2.90741   2.91404   2.91454   2.92210
 Alpha virt. eigenvalues --    2.92447   2.92768   2.93176   2.93621   2.93854
 Alpha virt. eigenvalues --    2.94583   2.94934   2.95313   2.95505   2.96090
 Alpha virt. eigenvalues --    2.96233   2.96629   2.96904   2.97243   2.97892
 Alpha virt. eigenvalues --    2.98139   2.98526   2.98576   2.99046   2.99692
 Alpha virt. eigenvalues --    3.00034   3.00209   3.00748   3.01181   3.01209
 Alpha virt. eigenvalues --    3.01815   3.01930   3.02211   3.02423   3.02884
 Alpha virt. eigenvalues --    3.03228   3.03444   3.03917   3.04196   3.04387
 Alpha virt. eigenvalues --    3.04607   3.05345   3.05537   3.06198   3.06249
 Alpha virt. eigenvalues --    3.06754   3.07299   3.07536   3.07780   3.08105
 Alpha virt. eigenvalues --    3.08551   3.08933   3.09424   3.09693   3.09784
 Alpha virt. eigenvalues --    3.10197   3.10316   3.10654   3.11020   3.11324
 Alpha virt. eigenvalues --    3.12075   3.12179   3.12340   3.12457   3.13047
 Alpha virt. eigenvalues --    3.13338   3.13463   3.13968   3.14221   3.14752
 Alpha virt. eigenvalues --    3.15025   3.15213   3.15325   3.15656   3.15870
 Alpha virt. eigenvalues --    3.16119   3.16293   3.16688   3.16970   3.17289
 Alpha virt. eigenvalues --    3.17801   3.18104   3.18437   3.18727   3.19185
 Alpha virt. eigenvalues --    3.19258   3.19617   3.19836   3.20153   3.20529
 Alpha virt. eigenvalues --    3.20811   3.20893   3.21312   3.21360   3.21690
 Alpha virt. eigenvalues --    3.22184   3.22498   3.22868   3.22885   3.23131
 Alpha virt. eigenvalues --    3.23578   3.24011   3.24241   3.24334   3.24889
 Alpha virt. eigenvalues --    3.25031   3.25062   3.25478   3.25698   3.26165
 Alpha virt. eigenvalues --    3.26242   3.26624   3.26918   3.27259   3.27571
 Alpha virt. eigenvalues --    3.27815   3.27993   3.28452   3.28739   3.28769
 Alpha virt. eigenvalues --    3.28851   3.29263   3.29527   3.29774   3.30099
 Alpha virt. eigenvalues --    3.30663   3.30856   3.31383   3.32020   3.32322
 Alpha virt. eigenvalues --    3.32634   3.33279   3.33444   3.34034   3.34212
 Alpha virt. eigenvalues --    3.34610   3.34865   3.35483   3.35781   3.36000
 Alpha virt. eigenvalues --    3.36587   3.36849   3.37240   3.37653   3.37977
 Alpha virt. eigenvalues --    3.38404   3.39133   3.39810   3.40163   3.40949
 Alpha virt. eigenvalues --    3.41649   3.41957   3.41967   3.42491   3.43247
 Alpha virt. eigenvalues --    3.43449   3.43808   3.44126   3.44328   3.45055
 Alpha virt. eigenvalues --    3.45220   3.45504   3.46521   3.46720   3.47347
 Alpha virt. eigenvalues --    3.47735   3.48029   3.48705   3.49037   3.49740
 Alpha virt. eigenvalues --    3.50283   3.50524   3.50790   3.51703   3.52163
 Alpha virt. eigenvalues --    3.53038   3.53342   3.53617   3.54254   3.54418
 Alpha virt. eigenvalues --    3.55000   3.55157   3.55506   3.55969   3.56770
 Alpha virt. eigenvalues --    3.57042   3.57370   3.58061   3.58945   3.59229
 Alpha virt. eigenvalues --    3.59565   3.59812   3.60485   3.60787   3.61194
 Alpha virt. eigenvalues --    3.61567   3.61626   3.62367   3.62982   3.63218
 Alpha virt. eigenvalues --    3.63653   3.63778   3.64194   3.64516   3.64756
 Alpha virt. eigenvalues --    3.65415   3.65533   3.66692   3.67101   3.67567
 Alpha virt. eigenvalues --    3.67911   3.68570   3.69124   3.69547   3.69898
 Alpha virt. eigenvalues --    3.70261   3.70851   3.71780   3.72174   3.73135
 Alpha virt. eigenvalues --    3.73192   3.73986   3.74285   3.75604   3.75677
 Alpha virt. eigenvalues --    3.76237   3.77175   3.77285   3.78222   3.79183
 Alpha virt. eigenvalues --    3.79911   3.79931   3.80189   3.80621   3.81296
 Alpha virt. eigenvalues --    3.81635   3.81950   3.82646   3.82979   3.83442
 Alpha virt. eigenvalues --    3.84410   3.85525   3.86013   3.87395   3.87891
 Alpha virt. eigenvalues --    3.88266   3.88539   3.89314   3.89680   3.90114
 Alpha virt. eigenvalues --    3.90533   3.90706   3.91997   3.92090   3.92728
 Alpha virt. eigenvalues --    3.93628   3.93728   3.94391   3.94679   3.95535
 Alpha virt. eigenvalues --    3.96300   3.96655   3.97508   3.98289   3.98785
 Alpha virt. eigenvalues --    3.99555   4.00706   4.01059   4.01439   4.01736
 Alpha virt. eigenvalues --    4.02367   4.02880   4.03654   4.04002   4.04768
 Alpha virt. eigenvalues --    4.04892   4.05841   4.06664   4.07055   4.07441
 Alpha virt. eigenvalues --    4.08084   4.09118   4.09242   4.09728   4.09927
 Alpha virt. eigenvalues --    4.10626   4.11058   4.11642   4.12695   4.13922
 Alpha virt. eigenvalues --    4.14200   4.14593   4.14928   4.15481   4.16275
 Alpha virt. eigenvalues --    4.16352   4.16619   4.17534   4.17781   4.19505
 Alpha virt. eigenvalues --    4.20155   4.20642   4.21292   4.21523   4.21617
 Alpha virt. eigenvalues --    4.22631   4.23565   4.23813   4.24355   4.24960
 Alpha virt. eigenvalues --    4.25212   4.27063   4.27461   4.28338   4.28427
 Alpha virt. eigenvalues --    4.29874   4.30069   4.30575   4.30816   4.31050
 Alpha virt. eigenvalues --    4.31629   4.32296   4.32691   4.33199   4.33761
 Alpha virt. eigenvalues --    4.34099   4.34779   4.35308   4.35389   4.35925
 Alpha virt. eigenvalues --    4.36283   4.36622   4.37170   4.37951   4.38924
 Alpha virt. eigenvalues --    4.39445   4.41179   4.41703   4.42598   4.43158
 Alpha virt. eigenvalues --    4.43961   4.44841   4.45756   4.46254   4.47557
 Alpha virt. eigenvalues --    4.47953   4.48238   4.48658   4.51410   4.51537
 Alpha virt. eigenvalues --    4.53317   4.53821   4.55225   4.55314   4.57485
 Alpha virt. eigenvalues --    4.58146   4.58345   4.58828   4.58885   4.59773
 Alpha virt. eigenvalues --    4.61021   4.61999   4.62562   4.63679   4.64185
 Alpha virt. eigenvalues --    4.64507   4.65335   4.66493   4.66981   4.68407
 Alpha virt. eigenvalues --    4.69122   4.69913   4.71167   4.71968   4.72409
 Alpha virt. eigenvalues --    4.72851   4.73451   4.73477   4.74310   4.74966
 Alpha virt. eigenvalues --    4.75259   4.76198   4.76645   4.77811   4.78942
 Alpha virt. eigenvalues --    4.79762   4.80876   4.81893   4.82473   4.82921
 Alpha virt. eigenvalues --    4.83880   4.84017   4.84341   4.85451   4.86133
 Alpha virt. eigenvalues --    4.86724   4.88067   4.89206   4.89957   4.90682
 Alpha virt. eigenvalues --    4.91326   4.92438   4.93070   4.93495   4.95146
 Alpha virt. eigenvalues --    4.95301   4.96731   4.97290   4.98041   4.98540
 Alpha virt. eigenvalues --    4.99186   4.99656   5.03060   5.03874   5.04522
 Alpha virt. eigenvalues --    5.06480   5.07476   5.08054   5.08798   5.09464
 Alpha virt. eigenvalues --    5.10141   5.11771   5.12375   5.12701   5.13955
 Alpha virt. eigenvalues --    5.14731   5.15456   5.17648   5.17963   5.19746
 Alpha virt. eigenvalues --    5.21113   5.23362   5.24521   5.25425   5.25638
 Alpha virt. eigenvalues --    5.26547   5.26735   5.27873   5.28557   5.29238
 Alpha virt. eigenvalues --    5.29575   5.31021   5.31452   5.32609   5.35370
 Alpha virt. eigenvalues --    5.37241   5.38198   5.38865   5.39883   5.40192
 Alpha virt. eigenvalues --    5.40523   5.41596   5.44663   5.44958   5.47440
 Alpha virt. eigenvalues --    5.50573   5.50811   5.51383   5.52220   5.53053
 Alpha virt. eigenvalues --    5.54261   5.55515   5.56243   5.56564   5.57294
 Alpha virt. eigenvalues --    5.58142   5.60934   5.65598   5.66209   5.66821
 Alpha virt. eigenvalues --    5.69170   5.70734   5.77368   5.80081   5.80703
 Alpha virt. eigenvalues --    5.82860   5.84961   5.89856   5.90631   5.90966
 Alpha virt. eigenvalues --    5.96732   5.99558   6.00331   6.01836   6.02334
 Alpha virt. eigenvalues --    6.04986   6.07225   6.12364   6.15688   6.22949
 Alpha virt. eigenvalues --    6.23527   6.29901   6.35343   6.40614   6.42744
 Alpha virt. eigenvalues --    6.52883   6.85489   7.17357  22.26796  22.27637
 Alpha virt. eigenvalues --   22.34534  22.36795  22.37556  22.43120  22.44451
 Alpha virt. eigenvalues --   22.52940  22.53551  22.66116  22.75388  22.77800
 Alpha virt. eigenvalues --   22.82441  22.83597  22.84508  22.85459  22.86972
 Alpha virt. eigenvalues --   22.93374  22.93823  22.96341  23.04762  23.16694
 Alpha virt. eigenvalues --   23.17064  23.19632  23.20966  23.30499  23.31192
 Alpha virt. eigenvalues --   23.40194  23.40540  23.45168  23.63780  23.68598
 Alpha virt. eigenvalues --   23.69466  23.78552  32.28918  32.59846  32.77304
 Alpha virt. eigenvalues --   32.85646  32.88399  33.00518  43.92243
  Beta  occ. eigenvalues -- -256.38951 -30.23542 -26.08050 -26.07843 -26.06735
  Beta  occ. eigenvalues --  -19.29164 -14.53430 -14.50424 -14.46226 -14.45977
  Beta  occ. eigenvalues --  -14.45899 -14.45676 -10.38094 -10.35217 -10.32817
  Beta  occ. eigenvalues --  -10.32778 -10.32773 -10.32593 -10.32552 -10.32551
  Beta  occ. eigenvalues --  -10.32539 -10.32518 -10.32326 -10.30525 -10.29972
  Beta  occ. eigenvalues --  -10.29774 -10.29662 -10.29661 -10.29586 -10.29511
  Beta  occ. eigenvalues --  -10.29509 -10.29497 -10.29485 -10.29470 -10.29423
  Beta  occ. eigenvalues --  -10.29093 -10.28874 -10.28553 -10.27972 -10.27927
  Beta  occ. eigenvalues --  -10.27916 -10.27865 -10.27826 -10.27510 -10.27392
  Beta  occ. eigenvalues --  -10.27233  -3.58893  -2.35006  -2.34977  -2.33762
  Beta  occ. eigenvalues --   -1.17511  -1.16793  -1.08924  -1.08002  -1.07830
  Beta  occ. eigenvalues --   -1.06917  -1.03419  -0.93507  -0.92289  -0.91804
  Beta  occ. eigenvalues --   -0.91404  -0.91252  -0.91060  -0.90736  -0.90632
  Beta  occ. eigenvalues --   -0.86742  -0.85498  -0.85252  -0.84323  -0.82977
  Beta  occ. eigenvalues --   -0.82760  -0.81196  -0.80160  -0.78566  -0.78374
  Beta  occ. eigenvalues --   -0.78174  -0.76559  -0.75132  -0.75101  -0.73011
  Beta  occ. eigenvalues --   -0.72336  -0.70711  -0.70011  -0.68850  -0.68177
  Beta  occ. eigenvalues --   -0.67559  -0.65206  -0.64477  -0.63594  -0.63367
  Beta  occ. eigenvalues --   -0.61949  -0.61836  -0.61456  -0.59583  -0.59303
  Beta  occ. eigenvalues --   -0.58962  -0.58338  -0.58090  -0.56053  -0.55606
  Beta  occ. eigenvalues --   -0.55232  -0.54837  -0.54385  -0.54245  -0.54112
  Beta  occ. eigenvalues --   -0.53977  -0.53470  -0.53387  -0.53334  -0.52819
  Beta  occ. eigenvalues --   -0.52644  -0.52480  -0.52301  -0.52057  -0.51782
  Beta  occ. eigenvalues --   -0.50746  -0.50617  -0.50530  -0.50295  -0.50187
  Beta  occ. eigenvalues --   -0.49959  -0.49884  -0.49690  -0.49338  -0.49058
  Beta  occ. eigenvalues --   -0.48650  -0.48485  -0.48302  -0.48009  -0.47792
  Beta  occ. eigenvalues --   -0.47490  -0.47103  -0.46695  -0.46285  -0.45916
  Beta  occ. eigenvalues --   -0.45550  -0.44980  -0.44433  -0.44069  -0.43550
  Beta  occ. eigenvalues --   -0.43012  -0.42481  -0.41989  -0.41645  -0.39887
  Beta  occ. eigenvalues --   -0.39401  -0.38818  -0.37816  -0.37455  -0.37013
  Beta  occ. eigenvalues --   -0.35430  -0.34215  -0.33629  -0.32637  -0.31825
  Beta  occ. eigenvalues --   -0.30012  -0.28844
  Beta virt. eigenvalues --   -0.20842  -0.17716  -0.17497  -0.16747  -0.12169
  Beta virt. eigenvalues --   -0.11749  -0.10210  -0.08841  -0.07672  -0.07225
  Beta virt. eigenvalues --   -0.06409  -0.06113  -0.05559  -0.04175  -0.03932
  Beta virt. eigenvalues --   -0.03138  -0.02680  -0.02530  -0.02311  -0.02034
  Beta virt. eigenvalues --   -0.01337  -0.00560  -0.00442  -0.00280  -0.00156
  Beta virt. eigenvalues --    0.00366   0.00700   0.00771   0.01650   0.02035
  Beta virt. eigenvalues --    0.02265   0.02616   0.02756   0.03008   0.03093
  Beta virt. eigenvalues --    0.03272   0.03452   0.03588   0.03886   0.04039
  Beta virt. eigenvalues --    0.04224   0.04397   0.04579   0.04803   0.05183
  Beta virt. eigenvalues --    0.05343   0.05522   0.05702   0.05922   0.06133
  Beta virt. eigenvalues --    0.06281   0.06915   0.07062   0.07235   0.07518
  Beta virt. eigenvalues --    0.07679   0.07887   0.08020   0.08382   0.08507
  Beta virt. eigenvalues --    0.08654   0.08858   0.09057   0.09405   0.09612
  Beta virt. eigenvalues --    0.10124   0.10339   0.10617   0.11086   0.11271
  Beta virt. eigenvalues --    0.11396   0.11586   0.11730   0.11902   0.12205
  Beta virt. eigenvalues --    0.12659   0.13052   0.13186   0.13525   0.13872
  Beta virt. eigenvalues --    0.13936   0.14246   0.14418   0.15001   0.15131
  Beta virt. eigenvalues --    0.15292   0.15797   0.16053   0.16577   0.16694
  Beta virt. eigenvalues --    0.17017   0.17197   0.17497   0.17580   0.17678
  Beta virt. eigenvalues --    0.18079   0.18229   0.18580   0.18755   0.19629
  Beta virt. eigenvalues --    0.19676   0.19839   0.20246   0.20291   0.20585
  Beta virt. eigenvalues --    0.20747   0.21012   0.21264   0.21444   0.21732
  Beta virt. eigenvalues --    0.21861   0.22385   0.22617   0.22628   0.23328
  Beta virt. eigenvalues --    0.23489   0.23661   0.24072   0.24213   0.24341
  Beta virt. eigenvalues --    0.24433   0.24863   0.25155   0.25559   0.25802
  Beta virt. eigenvalues --    0.25951   0.26143   0.26679   0.27041   0.27077
  Beta virt. eigenvalues --    0.27351   0.27785   0.27854   0.28348   0.28563
  Beta virt. eigenvalues --    0.29168   0.29386   0.29509   0.29742   0.29895
  Beta virt. eigenvalues --    0.29973   0.30272   0.30436   0.30582   0.30866
  Beta virt. eigenvalues --    0.31214   0.31438   0.31686   0.31777   0.32108
  Beta virt. eigenvalues --    0.32299   0.32410   0.32628   0.32817   0.33205
  Beta virt. eigenvalues --    0.33395   0.33465   0.33778   0.33882   0.33969
  Beta virt. eigenvalues --    0.34609   0.34793   0.35080   0.35358   0.35449
  Beta virt. eigenvalues --    0.35652   0.35996   0.36391   0.36679   0.36849
  Beta virt. eigenvalues --    0.37160   0.37470   0.37580   0.37899   0.37936
  Beta virt. eigenvalues --    0.38016   0.38404   0.38567   0.38773   0.38851
  Beta virt. eigenvalues --    0.39228   0.39451   0.39620   0.39755   0.40127
  Beta virt. eigenvalues --    0.40301   0.40733   0.40974   0.41019   0.41078
  Beta virt. eigenvalues --    0.41555   0.41687   0.41852   0.41924   0.42350
  Beta virt. eigenvalues --    0.42431   0.42659   0.43084   0.43192   0.43464
  Beta virt. eigenvalues --    0.43508   0.43624   0.43848   0.43909   0.44466
  Beta virt. eigenvalues --    0.44583   0.44867   0.45193   0.45419   0.45529
  Beta virt. eigenvalues --    0.45827   0.46051   0.46286   0.46576   0.46921
  Beta virt. eigenvalues --    0.47055   0.47142   0.47598   0.47779   0.47861
  Beta virt. eigenvalues --    0.48130   0.48400   0.49002   0.49028   0.49347
  Beta virt. eigenvalues --    0.49592   0.50032   0.50531   0.50962   0.51224
  Beta virt. eigenvalues --    0.51562   0.52002   0.52331   0.52601   0.52828
  Beta virt. eigenvalues --    0.53183   0.53464   0.53803   0.54172   0.54520
  Beta virt. eigenvalues --    0.54548   0.54784   0.55012   0.55433   0.55559
  Beta virt. eigenvalues --    0.55721   0.55831   0.56249   0.56397   0.56628
  Beta virt. eigenvalues --    0.57332   0.57492   0.57803   0.58264   0.58544
  Beta virt. eigenvalues --    0.59217   0.59239   0.59755   0.60165   0.60425
  Beta virt. eigenvalues --    0.60584   0.61001   0.61206   0.61299   0.61770
  Beta virt. eigenvalues --    0.61897   0.62402   0.62998   0.63079   0.63363
  Beta virt. eigenvalues --    0.63788   0.64157   0.64325   0.64381   0.64783
  Beta virt. eigenvalues --    0.65416   0.65757   0.66062   0.66518   0.66776
  Beta virt. eigenvalues --    0.67014   0.67142   0.67568   0.68113   0.68208
  Beta virt. eigenvalues --    0.68487   0.69293   0.69465   0.69724   0.69772
  Beta virt. eigenvalues --    0.70044   0.70359   0.70946   0.71231   0.71389
  Beta virt. eigenvalues --    0.72079   0.72532   0.72917   0.73500   0.74046
  Beta virt. eigenvalues --    0.74266   0.74511   0.75143   0.75299   0.75690
  Beta virt. eigenvalues --    0.76141   0.76597   0.77031   0.77242   0.77590
  Beta virt. eigenvalues --    0.77851   0.78486   0.78746   0.78806   0.80012
  Beta virt. eigenvalues --    0.80322   0.80463   0.80946   0.81099   0.81745
  Beta virt. eigenvalues --    0.81825   0.82517   0.83069   0.83248   0.83619
  Beta virt. eigenvalues --    0.84540   0.84786   0.84875   0.85125   0.85342
  Beta virt. eigenvalues --    0.85747   0.86131   0.86557   0.86921   0.87026
  Beta virt. eigenvalues --    0.87483   0.87967   0.88078   0.88751   0.89006
  Beta virt. eigenvalues --    0.89419   0.89757   0.89985   0.90357   0.90504
  Beta virt. eigenvalues --    0.90857   0.91259   0.91790   0.91924   0.92394
  Beta virt. eigenvalues --    0.92416   0.92719   0.93033   0.93263   0.93587
  Beta virt. eigenvalues --    0.93761   0.94208   0.94434   0.94759   0.95018
  Beta virt. eigenvalues --    0.95387   0.95598   0.95980   0.96362   0.96615
  Beta virt. eigenvalues --    0.97397   0.97489   0.98321   0.98518   0.99125
  Beta virt. eigenvalues --    0.99372   0.99505   0.99983   1.00619   1.00901
  Beta virt. eigenvalues --    1.01504   1.01890   1.02760   1.02779   1.03154
  Beta virt. eigenvalues --    1.03689   1.04047   1.04476   1.05953   1.05989
  Beta virt. eigenvalues --    1.06124   1.06355   1.07034   1.07515   1.07934
  Beta virt. eigenvalues --    1.08231   1.08449   1.08969   1.09465   1.09653
  Beta virt. eigenvalues --    1.09763   1.10497   1.10927   1.11005   1.11380
  Beta virt. eigenvalues --    1.11742   1.11934   1.12332   1.12769   1.13076
  Beta virt. eigenvalues --    1.13344   1.14330   1.14661   1.15205   1.16044
  Beta virt. eigenvalues --    1.16215   1.16664   1.16988   1.17247   1.17963
  Beta virt. eigenvalues --    1.18135   1.18462   1.18806   1.18977   1.19273
  Beta virt. eigenvalues --    1.19481   1.19813   1.19863   1.20316   1.20830
  Beta virt. eigenvalues --    1.21503   1.21565   1.22052   1.22173   1.23098
  Beta virt. eigenvalues --    1.23500   1.24140   1.25499   1.25673   1.26145
  Beta virt. eigenvalues --    1.26518   1.27298   1.27620   1.28027   1.28601
  Beta virt. eigenvalues --    1.29349   1.30593   1.30780   1.31270   1.32420
  Beta virt. eigenvalues --    1.32517   1.33001   1.33547   1.33879   1.34498
  Beta virt. eigenvalues --    1.34648   1.34792   1.35319   1.36506   1.36620
  Beta virt. eigenvalues --    1.36859   1.37151   1.37351   1.37914   1.38573
  Beta virt. eigenvalues --    1.38970   1.39037   1.39296   1.39435   1.39678
  Beta virt. eigenvalues --    1.40062   1.40334   1.40772   1.41127   1.41613
  Beta virt. eigenvalues --    1.41726   1.42195   1.42336   1.42787   1.42960
  Beta virt. eigenvalues --    1.43270   1.43558   1.43936   1.44031   1.44506
  Beta virt. eigenvalues --    1.44754   1.44994   1.45228   1.45593   1.45681
  Beta virt. eigenvalues --    1.46117   1.46308   1.46467   1.46546   1.46625
  Beta virt. eigenvalues --    1.46917   1.47512   1.47777   1.48128   1.48245
  Beta virt. eigenvalues --    1.48845   1.48962   1.49102   1.49294   1.49566
  Beta virt. eigenvalues --    1.50091   1.50302   1.51112   1.51177   1.51377
  Beta virt. eigenvalues --    1.51500   1.51939   1.52262   1.52464   1.52631
  Beta virt. eigenvalues --    1.52851   1.53215   1.53695   1.54044   1.54364
  Beta virt. eigenvalues --    1.54652   1.55171   1.55284   1.55439   1.56007
  Beta virt. eigenvalues --    1.56191   1.56286   1.56744   1.57085   1.57658
  Beta virt. eigenvalues --    1.57925   1.58372   1.58821   1.59032   1.59347
  Beta virt. eigenvalues --    1.59959   1.60332   1.60464   1.60563   1.60992
  Beta virt. eigenvalues --    1.61197   1.61781   1.62292   1.62620   1.63050
  Beta virt. eigenvalues --    1.63415   1.63897   1.64239   1.64703   1.65017
  Beta virt. eigenvalues --    1.66192   1.66400   1.66792   1.67807   1.68781
  Beta virt. eigenvalues --    1.69136   1.69678   1.70374   1.70459   1.70670
  Beta virt. eigenvalues --    1.71460   1.72437   1.72545   1.72820   1.73627
  Beta virt. eigenvalues --    1.73767   1.74321   1.74744   1.75046   1.75231
  Beta virt. eigenvalues --    1.75563   1.76482   1.76543   1.76862   1.77462
  Beta virt. eigenvalues --    1.77652   1.78233   1.78449   1.78961   1.79271
  Beta virt. eigenvalues --    1.79968   1.80236   1.80409   1.81158   1.81907
  Beta virt. eigenvalues --    1.81958   1.82409   1.82821   1.83710   1.84227
  Beta virt. eigenvalues --    1.84507   1.85073   1.85734   1.86307   1.86687
  Beta virt. eigenvalues --    1.87020   1.87763   1.88258   1.88508   1.89248
  Beta virt. eigenvalues --    1.89334   1.89493   1.90065   1.90678   1.91088
  Beta virt. eigenvalues --    1.91426   1.91720   1.91914   1.92532   1.92766
  Beta virt. eigenvalues --    1.93445   1.93568   1.94511   1.94848   1.95486
  Beta virt. eigenvalues --    1.96088   1.96636   1.97161   1.97922   1.98413
  Beta virt. eigenvalues --    1.98837   1.99114   1.99464   1.99657   2.00260
  Beta virt. eigenvalues --    2.00617   2.01298   2.01429   2.01849   2.02403
  Beta virt. eigenvalues --    2.02925   2.03292   2.03672   2.04344   2.04493
  Beta virt. eigenvalues --    2.05127   2.05520   2.05883   2.06100   2.07060
  Beta virt. eigenvalues --    2.07418   2.07887   2.08284   2.08385   2.08866
  Beta virt. eigenvalues --    2.09472   2.09885   2.10657   2.10859   2.11066
  Beta virt. eigenvalues --    2.11767   2.12065   2.13291   2.13760   2.14269
  Beta virt. eigenvalues --    2.14762   2.15238   2.15779   2.16723   2.16865
  Beta virt. eigenvalues --    2.17708   2.17916   2.18171   2.18396   2.18917
  Beta virt. eigenvalues --    2.19672   2.19677   2.20410   2.20647   2.20924
  Beta virt. eigenvalues --    2.21234   2.21426   2.21560   2.22778   2.23056
  Beta virt. eigenvalues --    2.23397   2.23962   2.24642   2.25374   2.25535
  Beta virt. eigenvalues --    2.25811   2.26382   2.27027   2.27126   2.27762
  Beta virt. eigenvalues --    2.27917   2.28120   2.28642   2.29055   2.29374
  Beta virt. eigenvalues --    2.30017   2.30488   2.30842   2.31151   2.31802
  Beta virt. eigenvalues --    2.32191   2.32441   2.32922   2.33417   2.34001
  Beta virt. eigenvalues --    2.34370   2.34918   2.35105   2.35788   2.36122
  Beta virt. eigenvalues --    2.36430   2.36767   2.36825   2.37292   2.37701
  Beta virt. eigenvalues --    2.38335   2.38702   2.39254   2.39607   2.40320
  Beta virt. eigenvalues --    2.40640   2.41204   2.41652   2.42034   2.42683
  Beta virt. eigenvalues --    2.42955   2.43766   2.44145   2.44438   2.44752
  Beta virt. eigenvalues --    2.45226   2.45711   2.46313   2.46529   2.47000
  Beta virt. eigenvalues --    2.47361   2.47541   2.47840   2.48224   2.48321
  Beta virt. eigenvalues --    2.48899   2.49338   2.49680   2.50064   2.50480
  Beta virt. eigenvalues --    2.50685   2.50945   2.51258   2.51526   2.52020
  Beta virt. eigenvalues --    2.52428   2.52877   2.53134   2.53425   2.54301
  Beta virt. eigenvalues --    2.54458   2.55338   2.55516   2.55546   2.55856
  Beta virt. eigenvalues --    2.56461   2.56804   2.57079   2.57236   2.57801
  Beta virt. eigenvalues --    2.58517   2.58685   2.59030   2.59374   2.60372
  Beta virt. eigenvalues --    2.60455   2.60740   2.60876   2.61389   2.61763
  Beta virt. eigenvalues --    2.62132   2.62534   2.62716   2.63780   2.63911
  Beta virt. eigenvalues --    2.64430   2.64917   2.65271   2.65611   2.65817
  Beta virt. eigenvalues --    2.66802   2.67445   2.67660   2.67923   2.68380
  Beta virt. eigenvalues --    2.68595   2.69544   2.69803   2.69867   2.70299
  Beta virt. eigenvalues --    2.71213   2.71600   2.72153   2.72337   2.72606
  Beta virt. eigenvalues --    2.73234   2.73629   2.74094   2.74355   2.74593
  Beta virt. eigenvalues --    2.74792   2.75338   2.75961   2.76496   2.76609
  Beta virt. eigenvalues --    2.77124   2.77549   2.77663   2.78586   2.79014
  Beta virt. eigenvalues --    2.79345   2.79541   2.79808   2.79905   2.80394
  Beta virt. eigenvalues --    2.81049   2.81405   2.81543   2.81954   2.82265
  Beta virt. eigenvalues --    2.82778   2.83108   2.83774   2.84008   2.84135
  Beta virt. eigenvalues --    2.84640   2.84997   2.85322   2.85570   2.86329
  Beta virt. eigenvalues --    2.86894   2.87159   2.87337   2.87447   2.87789
  Beta virt. eigenvalues --    2.88386   2.88606   2.89091   2.89379   2.89796
  Beta virt. eigenvalues --    2.90132   2.90240   2.90778   2.91431   2.91479
  Beta virt. eigenvalues --    2.92237   2.92466   2.92805   2.93194   2.93661
  Beta virt. eigenvalues --    2.93900   2.94622   2.94976   2.95345   2.95533
  Beta virt. eigenvalues --    2.96117   2.96247   2.96655   2.96927   2.97266
  Beta virt. eigenvalues --    2.97902   2.98169   2.98568   2.98592   2.99068
  Beta virt. eigenvalues --    2.99716   3.00062   3.00242   3.00767   3.01216
  Beta virt. eigenvalues --    3.01233   3.01832   3.01966   3.02232   3.02442
  Beta virt. eigenvalues --    3.02906   3.03255   3.03469   3.03938   3.04215
  Beta virt. eigenvalues --    3.04400   3.04629   3.05397   3.05557   3.06222
  Beta virt. eigenvalues --    3.06284   3.06778   3.07311   3.07556   3.07797
  Beta virt. eigenvalues --    3.08131   3.08597   3.08950   3.09456   3.09710
  Beta virt. eigenvalues --    3.09807   3.10237   3.10329   3.10685   3.11043
  Beta virt. eigenvalues --    3.11338   3.12095   3.12198   3.12356   3.12485
  Beta virt. eigenvalues --    3.13065   3.13366   3.13492   3.14023   3.14239
  Beta virt. eigenvalues --    3.14772   3.15047   3.15229   3.15336   3.15687
  Beta virt. eigenvalues --    3.15902   3.16139   3.16306   3.16706   3.16982
  Beta virt. eigenvalues --    3.17324   3.17816   3.18144   3.18451   3.18749
  Beta virt. eigenvalues --    3.19212   3.19290   3.19625   3.19849   3.20169
  Beta virt. eigenvalues --    3.20542   3.20830   3.20909   3.21324   3.21368
  Beta virt. eigenvalues --    3.21719   3.22189   3.22522   3.22882   3.22919
  Beta virt. eigenvalues --    3.23147   3.23590   3.24037   3.24260   3.24355
  Beta virt. eigenvalues --    3.24933   3.25051   3.25095   3.25519   3.25712
  Beta virt. eigenvalues --    3.26187   3.26274   3.26646   3.26935   3.27304
  Beta virt. eigenvalues --    3.27614   3.27828   3.28013   3.28469   3.28760
  Beta virt. eigenvalues --    3.28791   3.28868   3.29285   3.29543   3.29809
  Beta virt. eigenvalues --    3.30133   3.30728   3.30882   3.31406   3.32054
  Beta virt. eigenvalues --    3.32359   3.32658   3.33324   3.33491   3.34049
  Beta virt. eigenvalues --    3.34239   3.34632   3.34927   3.35519   3.35799
  Beta virt. eigenvalues --    3.36073   3.36641   3.36873   3.37256   3.37677
  Beta virt. eigenvalues --    3.38019   3.38470   3.39164   3.39836   3.40169
  Beta virt. eigenvalues --    3.40995   3.41671   3.41983   3.42027   3.42513
  Beta virt. eigenvalues --    3.43273   3.43488   3.43852   3.44171   3.44337
  Beta virt. eigenvalues --    3.45100   3.45280   3.45624   3.46573   3.46769
  Beta virt. eigenvalues --    3.47395   3.47786   3.48057   3.48790   3.49051
  Beta virt. eigenvalues --    3.49785   3.50313   3.50650   3.50834   3.51767
[...]
  1384. RY*(   9) N  76                  0.00006     3.04827   
  1385. RY*(  10) N  76                  0.00005     2.63956   
  1386. RY*(  11) N  76                  0.00003     3.45027   
  1387. RY*(  12) N  76                  0.00004     2.88835   
  1388. RY*(  13) N  76                  0.00003     2.86826   
  1389. RY*(  14) N  76                  0.00001     3.75705   
  1390. RY*(  15) N  76                  0.00000     4.35028   
  1391. RY*(  16) N  76                  0.00000    31.27419   
  1392. RY*(  17) N  76                  0.00001     4.15143   
  1393. RY*(  18) N  76                  0.00001     4.59344   
  1394. RY*(  19) N  76                  0.00001     3.70418   
  1395. RY*(  20) N  76                  0.00000     4.24709   
  1396. RY*(  21) N  76                  0.00001     4.63903   
  1397. RY*(  22) N  76                  0.00000     3.98966   
  1398. RY*(  23) N  76                  0.00000     4.75369   
  1399. RY*(  24) N  76                  0.00000     4.53595   
  1400. RY*(  25) N  76                  0.00000     4.59334   
  1401. RY*(  26) N  76                  0.00000     4.44137   
  1402. RY*(   1) C  77                  0.00197     1.41447   
  1403. RY*(   2) C  77                  0.00123     0.62448   
  1404. RY*(   3) C  77                  0.00082     1.77351   
  1405. RY*(   4) C  77                  0.00036     1.92750   
  1406. RY*(   5) C  77                  0.00028     1.53406   
  1407. RY*(   6) C  77                  0.00024     1.65992   
  1408. RY*(   7) C  77                  0.00021     1.69344   
  1409. RY*(   8) C  77                  0.00013     1.62357   
  1410. RY*(   9) C  77                  0.00010     1.85205   
  1411. RY*(  10) C  77                  0.00008     1.73788   
  1412. RY*(  11) C  77                  0.00007     1.25575   
  1413. RY*(  12) C  77                  0.00002     2.46423   
  1414. RY*(  13) C  77                  0.00003     1.93802   
  1415. RY*(  14) C  77                  0.00001     1.29234   
  1416. RY*(  15) C  77                  0.00002     3.28804   
  1417. RY*(  16) C  77                  0.00002     3.19598   
  1418. RY*(  17) C  77                  0.00000     3.80339   
  1419. RY*(  18) C  77                  0.00000     3.17701   
  1420. RY*(  19) C  77                  0.00000    20.25639   
  1421. RY*(  20) C  77                  0.00000     3.84361   
  1422. RY*(  21) C  77                  0.00001     3.73428   
  1423. RY*(  22) C  77                  0.00000     3.37463   
  1424. RY*(  23) C  77                  0.00000     3.67578   
  1425. RY*(  24) C  77                  0.00000     3.31719   
  1426. RY*(  25) C  77                  0.00000     3.49997   
  1427. RY*(  26) C  77                  0.00000     3.37550   
  1428. RY*(   1) H  78                  0.00027     0.71107   
  1429. RY*(   2) H  78                  0.00017     2.16088   
  1430. RY*(   3) H  78                  0.00011     2.19233   
  1431. RY*(   4) H  78                  0.00004     2.64608   
  1432. RY*(   5) H  78                  0.00001     2.98770   
  1433. BD*(   1)Fe   1 - N   2          0.03067     0.28813   
  1434. BD*(   1)Fe   1 - N   3          0.04037     0.26673   
  1435. BD*(   1)Fe   1 - N   4          0.03018     0.27938   
  1436. BD*(   1)Fe   1 - N   5          0.03891     0.26701   
  1437. BD*(   1)Fe   1 - N  76          0.03877     0.14877   
  1438. BD*(   1) N   2 - C   6          0.01359     0.39926   
  1439. BD*(   2) N   2 - C   6          0.32289    -0.10393  1484(v),1452(v),1457(v)
                                                    293(g),187(g),155(v),707(v)
  1440. BD*(   1) N   2 - C   9          0.01388     0.39390   
  1441. BD*(   1) N   3 - C  10          0.01375     0.39205   
  1442. BD*(   1) N   3 - C  13          0.01320     0.39935   
  1443. BD*(   1) N   4 - C  14          0.01359     0.39926   
  1444. BD*(   2) N   4 - C  14          0.32222    -0.09946  1466(v),1470(v),1475(v)
                                                    501(g),239(g),155(v),243(g)
  1445. BD*(   1) N   4 - C  17          0.01306     0.40462   
  1446. BD*(   1) N   5 - C  18          0.01336     0.40009   
  1447. BD*(   2) N   5 - C  18          0.33028    -0.10162  1475(v),1479(v),1484(v)
                                                    154(v),605(g),267(g),155(v)
                                                    604(g),800(v)
  1448. BD*(   1) N   5 - C  21          0.01340     0.39854   
  1449. BD*(   1) C   6 - C   7          0.01727     0.38609   
  1450. BD*(   1) C   6 - C  22          0.01030     0.46834   
  1451. BD*(   1) C   7 - C   8          0.01150     0.50380   
  1452. BD*(   2) C   7 - C   8          0.12022    -0.03315  1457(v),1439(v),1493(v)
                                                    1491(v),1490(v),1492(v)
  1453. BD*(   1) C   7 - C  34          0.00808     0.31997   
  1454. BD*(   1) C   8 - C   9          0.01750     0.38508   
  1455. BD*(   1) C   8 - C  30          0.00813     0.31872   
  1456. BD*(   1) C   9 - C  24          0.01034     0.46806   
  1457. BD*(   2) C   9 - C  24          0.20275    -0.06274  11(v),1452(v),1439(v),738(g)
                                                    373(g),1484(r),1466(r)
  1458. BD*(   1) C  10 - C  11          0.01691     0.39084   
  1459. BD*(   1) C  10 - C  24          0.01052     0.46253   
  1460. BD*(   1) C  11 - C  12          0.01249     0.48794   
  1461. BD*(   2) C  11 - C  12          0.14079    -0.03670  1500(v),1466(v),11(v)
                                                    1496(v),1495(v)
  1462. BD*(   1) C  11 - C  38          0.00778     0.31971   
  1463. BD*(   1) C  12 - C  13          0.01678     0.37832   
  1464. BD*(   1) C  12 - C  42          0.01325     0.40124   
  1465. BD*(   1) C  13 - C  26          0.01017     0.47161   
  1466. BD*(   2) C  13 - C  26          0.19418    -0.05684  1444(v),1461(v),11(v)
                                                    1475(r),477(g),770(g)
                                                    1457(r)
  1467. BD*(   1) C  14 - C  15          0.01690     0.39269   
  1468. BD*(   1) C  14 - C  26          0.01041     0.46940   
  1469. BD*(   1) C  15 - C  16          0.01263     0.49358   
  1470. BD*(   2) C  15 - C  16          0.13470    -0.03299  1508(v),1475(v),1444(v)
                                                    1504(v),1503(v)
  1471. BD*(   1) C  15 - C  47          0.00773     0.32444   
  1472. BD*(   1) C  16 - C  17          0.01715     0.38377   
  1473. BD*(   1) C  16 - C  51          0.01332     0.40374   
  1474. BD*(   1) C  17 - C  28          0.01029     0.46841   
  1475. BD*(   2) C  17 - C  28          0.20102    -0.05835  1447(v),1470(v),1444(v)
                                                    1484(r),1466(r),800(g)
                                                    581(g)
  1476. BD*(   1) C  18 - C  19          0.01756     0.38385   
  1477. BD*(   1) C  18 - C  28          0.01050     0.46931   
  1478. BD*(   1) C  19 - C  20          0.01150     0.50574   
  1479. BD*(   2) C  19 - C  20          0.12020    -0.03182  1484(v),1447(v),1511(v)
                                                    1515(v),1516(v),1512(v)
  1480. BD*(   1) C  19 - C  56          0.00815     0.31930   
  1481. BD*(   1) C  20 - C  21          0.01724     0.38315   
  1482. BD*(   1) C  20 - C  60          0.00815     0.31938   
  1483. BD*(   1) C  21 - C  22          0.01018     0.47028   
  1484. BD*(   2) C  21 - C  22          0.19638    -0.05774  1439(v),1479(v),1447(v)
                                                    1475(r),707(g),685(g)
                                                    1457(r)
  1485. BD*(   1) C  22 - H  23          0.00615     0.33146   
  1486. BD*(   1) C  24 - H  25          0.00641     0.33224   
  1487. BD*(   1) C  26 - H  27          0.00652     0.33309   
  1488. BD*(   1) C  28 - H  29          0.00644     0.33399   
  1489. BD*(   1) C  30 - H  31          0.00302     0.30541   
  1490. BD*(   1) C  30 - H  32          0.00465     0.29143   
  1491. BD*(   1) C  30 - H  33          0.00481     0.29196   
  1492. BD*(   1) C  34 - H  35          0.00455     0.29401   
  1493. BD*(   1) C  34 - H  36          0.00481     0.29246   
  1494. BD*(   1) C  34 - H  37          0.00301     0.30577   
  1495. BD*(   1) C  38 - H  39          0.00436     0.29722   
  1496. BD*(   1) C  38 - H  40          0.00534     0.28982   
  1497. BD*(   1) C  38 - H  41          0.00377     0.30666   
  1498. BD*(   1) C  42 - H  43          0.01029     0.33435   
  1499. BD*(   1) C  42 - C  44          0.00365     0.54226   
  1500. BD*(   2) C  42 - C  44          0.02990    -0.02883   
  1501. BD*(   1) C  44 - H  45          0.00384     0.35444   
  1502. BD*(   1) C  44 - H  46          0.00516     0.34921   
  1503. BD*(   1) C  47 - H  48          0.00452     0.30086   
  1504. BD*(   1) C  47 - H  49          0.00546     0.29495   
  1505. BD*(   1) C  47 - H  50          0.00376     0.31028   
  1506. BD*(   1) C  51 - H  52          0.01032     0.33650   
  1507. BD*(   1) C  51 - C  53          0.00370     0.54628   
  1508. BD*(   2) C  51 - C  53          0.03042    -0.02656   
  1509. BD*(   1) C  53 - H  54          0.00517     0.35256   
  1510. BD*(   1) C  53 - H  55          0.00391     0.35650   
  1511. BD*(   1) C  56 - H  57          0.00471     0.29273   
  1512. BD*(   1) C  56 - H  58          0.00432     0.29281   
  1513. BD*(   1) C  56 - H  59          0.00300     0.30503   
  1514. BD*(   1) C  60 - H  61          0.00301     0.30534   
  1515. BD*(   1) C  60 - H  62          0.00454     0.29271   
  1516. BD*(   1) C  60 - H  63          0.00447     0.29294   
  1519. BD*(   1) C  67 - H  68          0.00153     0.28099   
  1520. BD*(   1) C  67 - H  69          0.00499     0.26946   
  1521. BD*(   1) C  67 - H  70          0.00488     0.26893   
  1522. BD*(   1) C  67 - C  73          0.00606     0.28646   
  1523. BD*(   1) N  71 - H  72          0.00638     0.26188   
  1524. BD*(   1) N  71 - C  73          0.01365     0.31580   
  1525. BD*(   1) N  71 - C  74          0.01012     0.32581   
  1526. BD*(   1) C  73 - C  77          0.01028     0.44896   
  1527. BD*(   2) C  73 - C  77          0.13881    -0.07990  1530(v),1520(v),1521(v)
  1528. BD*(   1) C  74 - H  75          0.00809     0.27020   
  1529. BD*(   1) C  74 - N  76          0.00915     0.40455   
  1530. BD*(   2) C  74 - N  76          0.22244    -0.13305  1527(v),154(v),1346(g)
                                                    1529(g)
  1531. BD*(   1) N  76 - C  77          0.00819     0.35419   
  1532. BD*(   1) C  77 - H  78          0.00685     0.31311   
       -------------------------------
              Total Lewis  147.79763  ( 97.1730%)
        Valence non-Lewis    4.00478  (  2.6330%)
        Rydberg non-Lewis    0.29498  (  0.1939%)
       -------------------------------
            Total unit  1  152.09738  (100.0000%)
           Charge unit  1    0.90262
 
 Molecular unit  2  (H2O)
    87. BD (   1) O  64 - H  65          0.99624    -0.92423  155(r),161(r),1243(v)
                                                    1437(r),163(r),1376(r)
                                                    191(r),244(r),1433(r),168(r)
                                                    1379(r),265(r),162(r),242(r)
    88. BD (   1) O  64 - H  66          0.99784    -0.98556  155(r),161(r),1239(v),163(r)
                                                    1437(r),162(r),191(r)
                                                    1379(r),1377(r),165(r)
   146. CR (   1) O  64                  0.99990   -19.08675  155(r),1243(v),1239(v)
                                                    1437(r),163(r)
   157. LP (   1) O  64                  0.98753    -0.45024  154(r),1242(v),1436(r)
                                                    1434(r),1238(v),166(r)
                                                    1378(r),155(r),1447(r)
   158. LP (   2) O  64                  0.91452    -0.62556  155(r),1437(r),1243(v)
                                                    1239(v),1517(g),168(r)
                                                    266(r),163(r),1379(r),214(r)
                                                    165(r),216(r),154(r),190(r)
                                                    189(r),187(r),241(r),1433(r)
                                                    268(r),164(r),239(r),215(r)
                                                    242(r)
  1211. RY*(   1) O  64                  0.00067     1.09198   
  1212. RY*(   2) O  64                  0.00021     1.17043   
  1213. RY*(   3) O  64                  0.00014     0.52740   
  1214. RY*(   4) O  64                  0.00009     1.00024   
  1215. RY*(   5) O  64                  0.00002     1.98670   
  1216. RY*(   6) O  64                  0.00002     2.25607   
  1217. RY*(   7) O  64                  0.00000     3.16119   
  1218. RY*(   8) O  64                  0.00001     5.03857   
  1219. RY*(   9) O  64                  0.00001     3.09106   
  1220. RY*(  10) O  64                  0.00001     2.60602   
  1221. RY*(  11) O  64                  0.00000     6.30442   
  1222. RY*(  12) O  64                  0.00000     2.76725   
  1223. RY*(  13) O  64                  0.00000     6.32581   
  1224. RY*(  14) O  64                  0.00000    42.20247   
  1225. RY*(  15) O  64                  0.00000     6.39380   
  1226. RY*(  16) O  64                  0.00000     2.07854   
  1227. RY*(  17) O  64                  0.00000     6.11136   
  1228. RY*(  18) O  64                  0.00001     2.36034   
  1229. RY*(  19) O  64                  0.00000     6.43337   
  1230. RY*(  20) O  64                  0.00000     5.24632   
  1231. RY*(  21) O  64                  0.00000     5.21045   
  1232. RY*(  22) O  64                  0.00000     5.54099   
  1233. RY*(  23) O  64                  0.00000     5.27274   
  1234. RY*(  24) O  64                  0.00000     5.42813   
  1235. RY*(  25) O  64                  0.00000     5.48371   
  1236. RY*(  26) O  64                  0.00000     5.26429   
  1237. RY*(   1) H  65                  0.00045     0.82580   
  1238. RY*(   2) H  65                  0.00039     1.90666   
  1239. RY*(   3) H  65                  0.00036     2.21077   
  1240. RY*(   4) H  65                  0.00009     1.94335   
  1241. RY*(   5) H  65                  0.00001     2.76587   
  1242. RY*(   1) H  66                  0.00045     1.90380   
  1243. RY*(   2) H  66                  0.00038     1.95811   
  1244. RY*(   3) H  66                  0.00019     1.99999   
  1245. RY*(   4) H  66                  0.00006     1.10939   
  1246. RY*(   5) H  66                  0.00000     2.91135   
  1517. BD*(   1) O  64 - H  65          0.00194     0.31977   
  1518. BD*(   1) O  64 - H  66          0.00097     0.50219   
       -------------------------------
              Total Lewis    4.89603  ( 99.8677%)
        Valence non-Lewis    0.00291  (  0.0594%)
        Rydberg non-Lewis    0.00357  (  0.0729%)
       -------------------------------
            Total unit  2    4.90252  (100.0000%)
           Charge unit  2    0.09748
 Unable to Open any file for archive entry.
 1\1\GINC-BGN1021\SP\UAPFD\def2TZVP\C34H36Fe1N6O1(1+,2)\BEBJONES\11-Jul
 -2024\0\\# apfd/def2TZVP guess=read scf=maxcycle=999 geom=check pop=nb
 o\\1a2f_III_D\\1,2\Fe,0,-5.9665344716,57.0578343634,111.7932817558\N,0
 ,-6.6500631977,56.1543855049,113.4454888891\N,0,-6.9094873281,58.74440
 45312,112.3152776848\N,0,-5.0510492072,58.0306184258,110.2964631231\N,
 0,-4.9055830626,55.4161831009,111.3473915866\C,0,-6.413503227,54.87492
 4861,113.8399442641\C,0,-7.0358671115,54.6107427117,115.1167526621\C,0
 ,-7.6736261256,55.7580987736,115.4772093415\C,0,-7.4104071997,56.71593
 61875,114.4271027019\C,0,-7.6164393512,58.9657263289,113.4588213787\C,
 0,-8.1236274529,60.3127612141,113.4986282998\C,0,-7.6607651253,60.9301
 85232,112.3666629862\C,0,-6.8461297928,59.9439045481,111.6807503019\C,
 0,-5.2174611066,59.3363333629,109.9498938066\C,0,-4.3553849756,59.6929
 62777,108.8513028291\C,0,-3.6361337022,58.5675021376,108.5486733839\C,
 0,-4.1195894353,57.534011516,109.4438714166\C,0,-4.1319552058,55.22200
 54147,110.2480448145\C,0,-3.808162939,53.8210803974,110.0870784113\C,0
 ,-4.3442967591,53.1825674691,111.160943713\C,0,-5.0240480583,54.196887
 8871,111.9376509459\C,0,-5.695588254,53.9389881344,113.1174413261\H,0,
 -5.6478531771,52.9351464373,113.5113755223\C,0,-7.8630112844,58.021386
 3677,114.442107421\H,0,-8.4532975401,58.3291079018,115.2919463665\C,0,
 -6.088413499,60.2205225541,110.5606873423\H,0,-6.1468186596,61.2178297
 513,110.1527094219\C,0,-3.7079747896,56.2156345636,109.3859512602\H,0,
 -3.0296871001,55.9353264682,108.5942532503\C,0,-8.4707340897,56.050065
 224,116.7026784273\H,0,-8.5370823652,55.171199461,117.3392576273\H,0,-
 9.4824150722,56.3589412333,116.4385937373\H,0,-8.011997295,56.85543520
 03,117.2774666375\C,0,-6.9592577067,53.3073317298,115.8354796013\H,0,-
 5.9205592631,53.0331850195,116.0206030681\H,0,-7.4162703247,52.5146037
 872,115.2424508164\H,0,-7.4749769863,53.3605049755,116.7912286031\C,0,
 -8.9192488662,60.8994169094,114.6126199671\H,0,-8.5650898326,60.531915
 7187,115.5746882955\H,0,-9.9748453208,60.6378842408,114.5197864343\H,0
 ,-8.832619559,61.9840552009,114.6015601737\C,0,-7.8635568842,62.291941
 0262,111.9267124322\H,0,-7.0364362053,62.7426828567,111.3908290925\C,0
 ,-8.9685726566,63.0062383879,112.1170990936\H,0,-9.0484766525,64.02339
 04588,111.7708235072\H,0,-9.8400242537,62.5973425633,112.5981720515\C,
 0,-4.2232002738,61.0582438419,108.2714901586\H,0,-4.2967844736,61.8176
 107202,109.0486078971\H,0,-5.0107865585,61.2468359999,107.5399934674\H
 ,0,-3.2606341122,61.1613883645,107.7745276081\C,0,-2.6022056422,58.375
 0732208,107.5558488892\H,0,-1.8209779906,57.6743084035,107.827903216\C
 ,0,-2.5473038803,58.9729645295,106.3699753435\H,0,-3.3194273202,59.640
 1761816,106.0286052426\H,0,-1.735292934,58.7925736875,105.6849852768\C
 ,0,-3.0037424741,53.2680536377,108.9609530644\H,0,-1.9890765329,53.667
 3730344,108.9820601384\H,0,-3.4506832305,53.53445702,108.0031333704\H,
 0,-2.9449592228,52.1840913414,109.0229417955\C,0,-4.3038473884,51.7360
 02444,111.5174321\H,0,-3.7455956338,51.1701673912,110.7756506889\H,0,-
 5.31245311,51.3262824764,111.5762885019\H,0,-3.8248946871,51.594482965
 2,112.4865879518\O,0,-4.271,57.676,113.194\H,0,-4.552,57.269,114.014\H
 ,0,-3.567,58.208,113.085\C,0,-9.2289861327,55.0091859176,107.769303072
 9\H,0,-8.4016764726,54.8095630445,107.0956690676\H,0,-9.9239493805,55.
 6891348125,107.2766629024\H,0,-9.7511973198,54.073537504,107.968652960
 3\N,0,-9.5314571995,55.9372989837,110.075000547\H,0,-10.5316576248,55.
 8248474255,110.0977474719\C,0,-8.7124714634,55.6028645769,109.02857098
 35\C,0,-8.7535633709,56.4450506345,111.0580305223\H,0,-9.1221608754,56
 .7924571363,112.0010108041\N,0,-7.4926300586,56.4513946029,110.6976102
 929\C,0,-7.4513613947,55.9316394323,109.4369204736\H,0,-6.5233351631,5
 5.829718808,108.9129333706\\Version=ES64L-G16RevC.02\State=2-A\HF=-298
 3.833195\S2=0.801771\S2-1=0.\S2A=0.75084\RMSD=1.263e-09\Dipole=-1.5239
 815,-0.9051849,-0.2462747\Quadrupole=-0.8027811,0.9603928,-0.1576117,-
 0.9703374,-5.9642898,0.4861754\PG=C01 [X(C34H36Fe1N6O1)]\\@
 The archive entry for this job was punched.


 I DON'T EXACTLY UNDERSTAND WHAT YOU ARE SAYING,
 BUT YOU ARE ABSOLUTELY RIGHT.
     M.S.GORDON, IN A NDSU FACULTY MEETING
 Job cpu time:       1 days 13 hours  7 minutes 41.3 seconds.
 Elapsed time:       0 days  0 hours 34 minutes 11.9 seconds.
 File lengths (MBytes):  RWF=   2166 Int=      0 D2E=      0 Chk=    197 Scr=      1
 Normal termination of Gaussian 16 at Thu Jul 11 05:29:50 2024.
