 Entering Gaussian System, Link 0=g16
 Input=1aen12re.com
 Output=1aen12re.log
 Initial command:
 /sw/chem/gaussian/g16_C02/a100/g16/l1.exe "/local/bebjones_7928492/Gau-879196.inp" -scrdir="/local/bebjones_7928492/"
 Entering Link 1 = /sw/chem/gaussian/g16_C02/a100/g16/l1.exe PID=    879197.
  
 Copyright (c) 1988-2021, Gaussian, Inc.  All Rights Reserved.
  
 This is part of the Gaussian(R) 16 program.  It is based on
 the Gaussian(R) 09 system (copyright 2009, Gaussian, Inc.),
 the Gaussian(R) 03 system (copyright 2003, Gaussian, Inc.),
 the Gaussian(R) 98 system (copyright 1998, Gaussian, Inc.),
 the Gaussian(R) 94 system (copyright 1995, Gaussian, Inc.),
 the Gaussian 92(TM) system (copyright 1992, Gaussian, Inc.),
 the Gaussian 90(TM) system (copyright 1990, Gaussian, Inc.),
 the Gaussian 88(TM) system (copyright 1988, Gaussian, Inc.),
 the Gaussian 86(TM) system (copyright 1986, Carnegie Mellon
 University), and the Gaussian 82(TM) system (copyright 1983,
 Carnegie Mellon University). Gaussian is a federally registered
 trademark of Gaussian, Inc.
  
 This software contains proprietary and confidential information,
 including trade secrets, belonging to Gaussian, Inc.
  
 This software is provided under written license and may be
 used, copied, transmitted, or stored only in accord with that
 written license.
  
 The following legend is applicable only to US Government
 contracts under FAR:
  
                    RESTRICTED RIGHTS LEGEND
  
 Use, reproduction and disclosure by the US Government is
 subject to restrictions as set forth in subparagraphs (a)
 and (c) of the Commercial Computer Software - Restricted
 Rights clause in FAR 52.227-19.
  
 Gaussian, Inc.
 340 Quinnipiac St., Bldg. 40, Wallingford CT 06492
  
  
 ---------------------------------------------------------------
 Warning -- This program may not be used in any manner that
 competes with the business of Gaussian, Inc. or will provide
 assistance to any competitor of Gaussian, Inc.  The licensee
 of this program is prohibited from giving any competitor of
 Gaussian, Inc. access to this program.  By using this program,
 the user acknowledges that Gaussian, Inc. is engaged in the
 business of creating and licensing software in the field of
 computational chemistry and represents and warrants to the
 licensee that it is not a competitor of Gaussian, Inc. and that
 it will not use this program in any manner prohibited above.
 ---------------------------------------------------------------
  

 Cite this work as:
 Gaussian 16, Revision C.02,
 M. J. Frisch, G. W. Trucks, H. B. Schlegel, G. E. Scuseria, 
 M. A. Robb, J. R. Cheeseman, G. Scalmani, V. Barone, 
 G. A. Petersson, H. Nakatsuji, X. Li, M. Caricato, A. V. Marenich, 
 J. Bloino, B. G. Janesko, R. Gomperts, B. Mennucci, H. P. Hratchian, 
 J. V. Ortiz, A. F. Izmaylov, J. L. Sonnenberg, D. Williams-Young, 
 F. Ding, F. Lipparini, F. Egidi, J. Goings, B. Peng, A. Petrone, 
 T. Henderson, D. Ranasinghe, V. G. Zakrzewski, J. Gao, N. Rega, 
 G. Zheng, W. Liang, M. Hada, M. Ehara, K. Toyota, R. Fukuda, 
 J. Hasegawa, M. Ishida, T. Nakajima, Y. Honda, O. Kitao, H. Nakai, 
 T. Vreven, K. Throssell, J. A. Montgomery, Jr., J. E. Peralta, 
 F. Ogliaro, M. J. Bearpark, J. J. Heyd, E. N. Brothers, K. N. Kudin, 
 V. N. Staroverov, T. A. Keith, R. Kobayashi, J. Normand, 
 K. Raghavachari, A. P. Rendell, J. C. Burant, S. S. Iyengar, 
 J. Tomasi, M. Cossi, J. M. Millam, M. Klene, C. Adamo, R. Cammi, 
 J. W. Ochterski, R. L. Martin, K. Morokuma, O. Farkas, 
 J. B. Foresman, and D. J. Fox, Gaussian, Inc., Wallingford CT, 2019.
 
 ******************************************
 Gaussian 16:  ES64L-G16RevC.02  7-Dec-2021
                10-Jul-2024 
 ******************************************
 %mem=16GB
 %CPU=0-71
 SetSPE:  set environment variable "OMP_PROC_BIND" = "true"
 SetSPE:  set environment variable "OMP_PLACES" = "{0},{1},{2},{3},{4},{5},{6},{7},{8},{9},{10},{11},{12},{13},{14},{15},{16},{17},{18},{19},{20},{21},{22},{23},{24},{25},{26},{27},{28},{29},{30},{31},{32},{33},{34},{35},{36},{37},{38},{39},{40},{41},{42},{43},{44},{45},{46},{47},{48},{49},{50},{51},{52},{53},{54},{55},{56},{57},{58},{59},{60},{61},{62},{63},{64},{65},{66},{67},{68},{69},{70},{71}"
 Will use up to   72 processors via shared memory.
 %gpucpu=0,1,2,3=0,1,2,3
 Will use    4 GPUs:
 Thread  CPU   GPU
      0    0     0
      1    1     1
      2    2     2
      3    3     3
      4    4    -1
      5    5    -1
      6    6    -1
      7    7    -1
      8    8    -1
      9    9    -1
     10   10    -1
     11   11    -1
     12   12    -1
     13   13    -1
     14   14    -1
     15   15    -1
     16   16    -1
     17   17    -1
     18   18    -1
     19   19    -1
     20   20    -1
     21   21    -1
     22   22    -1
     23   23    -1
     24   24    -1
     25   25    -1
     26   26    -1
     27   27    -1
     28   28    -1
     29   29    -1
     30   30    -1
     31   31    -1
     32   32    -1
     33   33    -1
     34   34    -1
     35   35    -1
     36   36    -1
     37   37    -1
     38   38    -1
     39   39    -1
     40   40    -1
     41   41    -1
     42   42    -1
     43   43    -1
     44   44    -1
     45   45    -1
     46   46    -1
     47   47    -1
     48   48    -1
     49   49    -1
     50   50    -1
     51   51    -1
     52   52    -1
     53   53    -1
     54   54    -1
     55   55    -1
     56   56    -1
     57   57    -1
     58   58    -1
     59   59    -1
     60   60    -1
     61   61    -1
     62   62    -1
     63   63    -1
     64   64    -1
     65   65    -1
     66   66    -1
     67   67    -1
     68   68    -1
     69   69    -1
     70   70    -1
     71   71    -1
 SetGPE:  set environment variable "OMP_PROC_BIND" = "true"
 SetGPE:  set environment variable "OMP_PLACES" = "{0},{1},{2},{3},{4},{5},{6},{7},{8},{9},{10},{11},{12},{13},{14},{15},{16},{17},{18},{19},{20},{21},{22},{23},{24},{25},{26},{27},{28},{29},{30},{31},{32},{33},{34},{35},{36},{37},{38},{39},{40},{41},{42},{43},{44},{45},{46},{47},{48},{49},{50},{51},{52},{53},{54},{55},{56},{57},{58},{59},{60},{61},{62},{63},{64},{65},{66},{67},{68},{69},{70},{71}"
 %oldchk=1aen_II_S.chk
 %chk=1aen_II_Sre.chk
 Properties for Device   0
 Minimum vector length:                              32
 Maximum vector length:                            1024
 Number of SMPs:                                    108
 Maximum number of threads per SMP:                2048
 Number of ASync Engines:                             5
 Memory:                                           9207742464
 Properties for Device   1
 Minimum vector length:                              32
 Maximum vector length:                            1024
 Number of SMPs:                                    108
 Maximum number of threads per SMP:                2048
 Number of ASync Engines:                             5
 Memory:                                           9207742464
 Properties for Device   2
 Minimum vector length:                              32
 Maximum vector length:                            1024
 Number of SMPs:                                    108
 Maximum number of threads per SMP:                2048
 Number of ASync Engines:                             5
 Memory:                                           9207742464
 Properties for Device   3
 Minimum vector length:                              32
 Maximum vector length:                            1024
 Number of SMPs:                                    108
 Maximum number of threads per SMP:                2048
 Number of ASync Engines:                             5
 Memory:                                           9207742464
   8286968217 words of memory will be used on each GPU.
 Copying data from "1aen_II_S.chk" to current chk file "1aen_II_Sre.chk"
 IOpt=  2 FromEx=T IUOpen= 4 IOptOp= 5 NList=   0 IFRang= 0 IUIn= 4 IUOut= 2.
 --------------------------------------
 # apfd/gen scf=maxcycle=999 geom=check
 --------------------------------------
 1/29=2,38=1,172=1/1;
 2/12=2,40=1/2;
 3/5=7,11=2,14=-4,25=1,30=1,74=-44/1,2,3;
 4//1;
 5/5=2,7=999,38=5/2;
 6/7=2,8=2,9=2,10=2,28=1/1;
 99/5=1,9=1/99;
 ----------
 1aen_III_D
 ----------
 Structure from the checkpoint file:  "1aen_II_Sre.chk"
 Charge =  1 Multiplicity = 2
 Z-Matrix found in chk file.
 Fe,0,-6.1365928737,57.153879087,111.84806504
 N,0,-6.9462211747,56.2338198077,113.4335551197
 N,0,-7.082135336,58.8533898874,112.37246727
 N,0,-5.2897798495,58.1186298262,110.3131566691
 N,0,-5.1362875592,55.4924532559,111.3786724198
 C,0,-6.7445951599,54.9395497183,113.8005991971
 C,0,-7.3329276704,54.677889762,115.0939501988
 C,0,-7.8867286025,55.850753638,115.5074657126
 C,0,-7.6245614818,56.8136803669,114.4622901159
 C,0,-7.7754620297,59.0768757025,113.5239344307
 C,0,-8.2889280747,60.4219780163,113.5623562688
 C,0,-7.8501416934,61.0330759273,112.4176082585
 C,0,-7.0387841217,60.0475619891,111.7276010254
 C,0,-5.4597876058,59.4212009704,109.9603692164
 C,0,-4.6553135438,59.7530509577,108.8114205934
 C,0,-3.9697551724,58.614521473,108.4815461293
 C,0,-4.3906356544,57.6058625621,109.4355469923
 C,0,-4.377936184,55.2993262961,110.268717788
 C,0,-4.1013713079,53.8925146038,110.0725060202
 C,0,-4.7352619907,53.2364602064,111.0806337291
 C,0,-5.3672779394,54.2540154202,111.8913034314
 C,0,-6.081660077,53.9884978982,113.0440012225
 H,0,-6.102375946,52.9684051424,113.396672223
 C,0,-8.0136657198,58.137823767,114.5140772352
 H,0,-8.56117847,58.4599468062,115.3867281464
 C,0,-6.3013982888,60.3178561767,110.5926351447
 H,0,-6.3653295667,61.3127071924,110.179637569
 C,0,-3.962757268,56.2911786757,109.3995734042
 H,0,-3.303784704,56.0021631742,108.594699084
 C,0,-8.6144843509,56.1585565156,116.7715231917
 H,0,-8.0982214553,56.9377987831,117.3331397643
 H,0,-8.6874193426,55.2750305521,117.4009121525
 H,0,-9.6238776043,56.5107552907,116.5572376937
 C,0,-7.2938175488,53.3572652432,115.7836794019
 H,0,-6.263411335,53.0382852601,115.9419954376
 H,0,-7.7932386707,52.596296393,115.1834445376
 H,0,-7.7885840231,53.4097887339,116.7504744381
 C,0,-9.0774696615,61.0098619675,114.6805906003
 H,0,-8.7001723276,60.6642939415,115.6420591166
 H,0,-10.1288988427,60.7256694102,114.6097434537
 H,0,-9.0129160596,62.0956183585,114.6517003545
 C,0,-8.0738290847,62.3878060248,111.9656405006
 H,0,-7.2571369185,62.8428425036,111.4176290843
 C,0,-9.1861240119,63.089955607,112.157897922
 H,0,-10.047932005,62.6752879971,112.651195204
 H,0,-9.2820203138,64.1022470424,111.8016353259
 C,0,-4.5535429178,61.1056290192,108.1971228723
 H,0,-4.56898881,61.8796934484,108.9629896839
 H,0,-5.3876151573,61.2873586293,107.5172110938
 H,0,-3.6262097509,61.1915948027,107.6343785145
 C,0,-3.0061876288,58.3977836157,107.4250044725
 H,0,-2.2092211679,57.6999978268,107.6553981962
 C,0,-3.0338802429,58.9707188959,106.2259449344
 H,0,-3.8266246043,59.6338624736,105.9264044659
 H,0,-2.2727286075,58.7736702368,105.4891366196
 C,0,-3.2885981064,53.3434944484,108.9503704039
 H,0,-2.2798838013,53.7565640427,108.9717743751
 H,0,-3.7367059538,53.5980603959,107.9894145147
 H,0,-3.2157834752,52.2607995151,109.0186565201
 C,0,-4.8008887716,51.7748835293,111.364388643
 H,0,-4.3375589858,51.5497917264,112.3258842948
 H,0,-4.2832093076,51.2071474663,110.5947892587
 H,0,-5.8373002681,51.438607649,111.4020744938
 O,0,-4.445,57.667,113.279
 H,0,-4.691,57.123,114.027
 H,0,-3.793,58.271,113.26
 C,0,-9.4455934444,55.2548176618,107.7702375286
 H,0,-8.6264350116,55.078410458,107.080192975
 H,0,-10.1524048543,55.9424713507,107.306187166
 H,0,-9.9583027206,54.3100320733,107.9518002283
 N,0,-9.7278068325,56.1853839432,110.0778422744
 H,0,-10.7322903835,56.1188516874,110.0915132977
 C,0,-8.9151688742,55.818875425,109.037214233
 C,0,-8.93707884,56.6519453117,111.0703257836
 H,0,-9.3001759336,57.0125021229,112.0102824214
 N,0,-7.6742145423,56.6022330706,110.7219407146
 C,0,-7.6443776653,56.0870959872,109.4594135385
 H,0,-6.7175982289,55.9452026573,108.9428243679
 Recover connectivity data from disk.
 Stoichiometry    C34H36FeN6O(1+,2)
 Framework group  C1[X(C34H36FeN6O)]
 Deg. of freedom   228
 Full point group                 C1      NOp   1
 Largest Abelian subgroup         C1      NOp   1
 Largest concise Abelian subgroup C1      NOp   1
                         Standard orientation:                         
 ---------------------------------------------------------------------
 Center     Atomic      Atomic             Coordinates (Angstroms)
 Number     Number       Type             X           Y           Z
 ---------------------------------------------------------------------
      1         26           0        0.083574   -0.177295   -0.409679
      2          7           0        1.398021   -1.688202   -0.337733
      3          7           0        1.606188    1.132555   -0.256956
      4          7           0       -1.197300    1.353720   -0.548010
      5          7           0       -1.414175   -1.474599   -0.644254
      6          6           0        1.102434   -3.014060   -0.410109
      7          6           0        2.309137   -3.801193   -0.518025
      8          6           0        3.344406   -2.917163   -0.521142
      9          6           0        2.754667   -1.601766   -0.419697
     10          6           0        2.936667    0.843720   -0.311028
     11          6           0        3.728158    2.041444   -0.195160
     12          6           0        2.840537    3.081614   -0.113936
     13          6           0        1.521461    2.487420   -0.226279
     14          6           0       -0.905437    2.681690   -0.511039
     15          6           0       -2.097401    3.475881   -0.671877
     16          6           0       -3.130004    2.590303   -0.828526
     17          6           0       -2.537810    1.268799   -0.741423
     18          6           0       -2.738382   -1.174437   -0.672069
     19          6           0       -3.540240   -2.366266   -0.496929
     20          6           0       -2.664097   -3.393469   -0.336385
     21          6           0       -1.341490   -2.817577   -0.441762
     22          6           0       -0.172740   -3.551585   -0.372411
     23          1           0       -0.258848   -4.625969   -0.311762
     24          6           0        3.480191   -0.426625   -0.409763
     25          1           0        4.555114   -0.507090   -0.465600
     26          6           0        0.355103    3.218746   -0.324845
     27          1           0        0.433392    4.293983   -0.278817
     28          6           0       -3.269417    0.096290   -0.793771
     29          1           0       -4.342885    0.180381   -0.872463
     30          6           0        4.808841   -3.176937   -0.621931
     31          1           0        5.225455   -2.694816   -1.506890
     32          1           0        5.008915   -4.243571   -0.687736
     33          1           0        5.329357   -2.784050    0.251877
     34          6           0        2.337165   -5.288324   -0.612684
     35          1           0        1.774684   -5.627326   -1.482881
     36          1           0        1.888648   -5.737450    0.273824
     37          1           0        3.357932   -5.652175   -0.701526
     38          6           0        5.215940    2.096013   -0.232324
     39          1           0        5.609922    1.386973   -0.959121
     40          1           0        5.641032    1.850118    0.742417
     41          1           0        5.545488    3.095659   -0.507957
     42          6           0        3.105782    4.497485    0.006722
     43          1           0        2.404242    5.153023   -0.495744
     44          6           0        4.114394    5.036996    0.684075
     45          1           0        4.813931    4.440231    1.243113
     46          1           0        4.259319    6.103879    0.724206
     47          6           0       -2.134834    4.962877   -0.739914
     48          1           0       -1.272800    5.346337   -1.283808
     49          1           0       -2.122951    5.398062    0.260813
     50          1           0       -3.040027    5.291035   -1.246823
     51          6           0       -4.535504    2.850086   -1.049435
     52          1           0       -5.049887    2.132989   -1.678978
     53          6           0       -5.220451    3.870597   -0.543304
     54          1           0       -4.772896    4.585143    0.125311
     55          1           0       -6.266151    4.011521   -0.761747
     56          6           0       -5.030476   -2.383498   -0.486461
     57          1           0       -5.423377   -2.000570   -1.428578
     58          1           0       -5.417455   -1.758519    0.318952
     59          1           0       -5.404970   -3.394551   -0.346036
     60          6           0       -2.934754   -4.840968   -0.107208
     61          1           0       -2.545259   -5.439142   -0.932008
     62          1           0       -4.003029   -5.027164   -0.025240
     63          1           0       -2.454643   -5.179233    0.811335
     64          8           0        0.412905   -0.280486   -2.657622
     65          1           0        0.918876   -1.090959   -2.713141
     66          1           0        0.254281    0.286936   -3.323318
     67          6           0       -1.844192   -0.255309    4.830763
     68          1           0       -2.879252   -0.114195    4.535740
     69          1           0       -1.559373    0.551569    5.505758
     70          1           0       -1.761213   -1.197929    5.372092
     71          7           0        0.383590   -0.377419    3.693787
     72          1           0        0.924111   -0.460046    4.539133
     73          6           0       -0.980052   -0.262835    3.623308
     74          6           0        0.862403   -0.354712    2.429597
     75          1           0        1.900094   -0.425320    2.177462
     76          7           0       -0.114488   -0.233787    1.563727
     77          6           0       -1.266793   -0.174481    2.290988
     78          1           0       -2.218071   -0.072629    1.810764
 ---------------------------------------------------------------------
 Rotational constants (GHZ):           0.0939921           0.0917022           0.0593075
 General basis read from cards:  (5D, 7F)
 There are   723 symmetry adapted cartesian basis functions of A   symmetry.
 There are   679 symmetry adapted basis functions of A   symmetry.
   679 basis functions,  1378 primitive gaussians,   723 cartesian basis functions
   158 alpha electrons      157 beta electrons
       nuclear repulsion energy      5974.1053661170 Hartrees.
 NAtoms=   78 NActive=   78 NUniq=   78 SFac= 1.00D+00 NAtFMM=   60 NAOKFM=T Big=T
 Integral buffers will be    131072 words long.
 Raffenetti 2 integral format.
 Two-electron integral symmetry is turned on.
 R6APFD:  NTU= -4 IXU= 1 FactS= 1.050
 Nuclear repulsion after empirical dispersion term =     5973.9519215584 Hartrees.
 One-electron integrals computed using PRISM.
 NBasis=   679 RedAO= T EigKep=  2.57D-04  NBF=   679
 NBsUse=   679 1.00D-06 EigRej= -1.00D+00 NBFU=   679
 ExpMin= 4.20D-02 ExpMax= 3.01D+05 ExpMxC= 2.91D+03 IAcc=3 IRadAn=         5 AccDes= 0.00D+00
 Harris functional with IExCor= 3731 and IRadAn=       5 diagonalized for initial guess.
 HarFok:  IExCor= 3731 AccDes= 0.00D+00 IRadAn=         5 IDoV= 1 UseB2=F ITyADJ=14
 ICtDFT=  3500011 ScaDFX=  1.000000  1.000000  1.000000  1.000000
 FoFCou: FMM=F IPFlag=           0 FMFlag=      100000 FMFlg1=        2001
         NFxFlg=           0 DoJE=T BraDBF=F KetDBF=T FulRan=T
         wScrn=  0.000000 ICntrl=       500 IOpCl=  0 I1Cent=   200000004 NGrid=           0
         NMat0=    1 NMatS0=      1 NMatT0=    0 NMatD0=    1 NMtDS0=    0 NMtDT0=    0
 Petite list used in FoFCou.
 Initial guess <Sx>= 0.0000 <Sy>= 0.0000 <Sz>= 0.5000 <S**2>= 0.7500 S= 0.5000
 Requested convergence on RMS density matrix=1.00D-08 within 999 cycles.
 Requested convergence on MAX density matrix=1.00D-06.
 Requested convergence on             energy=1.00D-06.
 No special actions if energy rises.
 EnCoef did   100 forward-backward iterations
 EnCoef did   100 forward-backward iterations
 EnCoef did   100 forward-backward iterations
 EnCoef did   100 forward-backward iterations
 EnCoef did     3 forward-backward iterations
 Restarting incremental Fock formation.
 Restarting incremental Fock formation.
 Restarting incremental Fock formation.
 SCF Done:  E(UAPFD) =  -2983.20724290     A.U. after   78 cycles
            NFock= 78  Conv=0.28D-08     -V/T= 2.0038
 <Sx>= 0.0000 <Sy>= 0.0000 <Sz>= 0.5000 <S**2>= 0.7965 S= 0.5230
 <L.S>=  0.00000000000    
 Annihilation of the first spin contaminant:
 S**2 before annihilation     0.7965,   after     0.7508

 **********************************************************************

            Population analysis using the SCF Density.

 **********************************************************************

 Orbital symmetries:
 Alpha Orbitals:
       Occupied  (A) (A) (A) (A) (A) (A) (A) (A) (A) (A) (A) (A)
                 (A) (A) (A) (A) (A) (A) (A) (A) (A) (A) (A) (A)
                 (A) (A) (A) (A) (A) (A) (A) (A) (A) (A) (A) (A)
                 (A) (A) (A) (A) (A) (A) (A) (A) (A) (A) (A) (A)
                 (A) (A) (A) (A) (A) (A) (A) (A) (A) (A) (A) (A)
                 (A) (A) (A) (A) (A) (A) (A) (A) (A) (A) (A) (A)
                 (A) (A) (A) (A) (A) (A) (A) (A) (A) (A) (A) (A)
                 (A) (A) (A) (A) (A) (A) (A) (A) (A) (A) (A) (A)
                 (A) (A) (A) (A) (A) (A) (A) (A) (A) (A) (A) (A)
                 (A) (A) (A) (A) (A) (A) (A) (A) (A) (A) (A) (A)
                 (A) (A) (A) (A) (A) (A) (A) (A) (A) (A) (A) (A)
                 (A) (A) (A) (A) (A) (A) (A) (A) (A) (A) (A) (A)
                 (A) (A) (A) (A) (A) (A) (A) (A) (A) (A) (A) (A)
                 (A) (A)
       Virtual   (A) (A) (A) (A) (A) (A) (A) (A) (A) (A) (A) (A)
                 (A) (A) (A) (A) (A) (A) (A) (A) (A) (A) (A) (A)
                 (A) (A) (A) (A) (A) (A) (A) (A) (A) (A) (A) (A)
                 (A) (A) (A) (A) (A) (A) (A) (A) (A) (A) (A) (A)
                 (A) (A) (A) (A) (A) (A) (A) (A) (A) (A) (A) (A)
                 (A) (A) (A) (A) (A) (A) (A) (A) (A) (A) (A) (A)
                 (A) (A) (A) (A) (A) (A) (A) (A) (A) (A) (A) (A)
                 (A) (A) (A) (A) (A) (A) (A) (A) (A) (A) (A) (A)
                 (A) (A) (A) (A) (A) (A) (A) (A) (A) (A) (A) (A)
                 (A) (A) (A) (A) (A) (A) (A) (A) (A) (A) (A) (A)
                 (A) (A) (A) (A) (A) (A) (A) (A) (A) (A) (A) (A)
                 (A) (A) (A) (A) (A) (A) (A) (A) (A) (A) (A) (A)
                 (A) (A) (A) (A) (A) (A) (A) (A) (A) (A) (A) (A)
                 (A) (A) (A) (A) (A) (A) (A) (A) (A) (A) (A) (A)
                 (A) (A) (A) (A) (A) (A) (A) (A) (A) (A) (A) (A)
                 (A) (A) (A) (A) (A) (A) (A) (A) (A) (A) (A) (A)
                 (A) (A) (A) (A) (A) (A) (A) (A) (A) (A) (A) (A)
                 (A) (A) (A) (A) (A) (A) (A) (A) (A) (A) (A) (A)
                 (A) (A) (A) (A) (A) (A) (A) (A) (A) (A) (A) (A)
                 (A) (A) (A) (A) (A) (A) (A) (A) (A) (A) (A) (A)
                 (A) (A) (A) (A) (A) (A) (A) (A) (A) (A) (A) (A)
                 (A) (A) (A) (A) (A) (A) (A) (A) (A) (A) (A) (A)
                 (A) (A) (A) (A) (A) (A) (A) (A) (A) (A) (A) (A)
                 (A) (A) (A) (A) (A) (A) (A) (A) (A) (A) (A) (A)
                 (A) (A) (A) (A) (A) (A) (A) (A) (A) (A) (A) (A)
                 (A) (A) (A) (A) (A) (A) (A) (A) (A) (A) (A) (A)
                 (A) (A) (A) (A) (A) (A) (A) (A) (A) (A) (A) (A)
                 (A) (A) (A) (A) (A) (A) (A) (A) (A) (A) (A) (A)
                 (A) (A) (A) (A) (A) (A) (A) (A) (A) (A) (A) (A)
                 (A) (A) (A) (A) (A) (A) (A) (A) (A) (A) (A) (A)
                 (A) (A) (A) (A) (A) (A) (A) (A) (A) (A) (A) (A)
                 (A) (A) (A) (A) (A) (A) (A) (A) (A) (A) (A) (A)
                 (A) (A) (A) (A) (A) (A) (A) (A) (A) (A) (A) (A)
                 (A) (A) (A) (A) (A) (A) (A) (A) (A) (A) (A) (A)
                 (A) (A) (A) (A) (A) (A) (A) (A) (A) (A) (A) (A)
                 (A) (A) (A) (A) (A) (A) (A) (A) (A) (A) (A) (A)
                 (A) (A) (A) (A) (A) (A) (A) (A) (A) (A) (A) (A)
                 (A) (A) (A) (A) (A) (A) (A) (A) (A) (A) (A) (A)
                 (A) (A) (A) (A) (A) (A) (A) (A) (A) (A) (A) (A)
                 (A) (A) (A) (A) (A) (A) (A) (A) (A) (A) (A) (A)
                 (A) (A) (A) (A) (A) (A) (A) (A) (A) (A) (A) (A)
                 (A) (A) (A) (A) (A) (A) (A) (A) (A) (A) (A) (A)
                 (A) (A) (A) (A) (A) (A) (A) (A) (A) (A) (A) (A)
                 (A) (A) (A) (A) (A)
 Beta  Orbitals:
       Occupied  (A) (A) (A) (A) (A) (A) (A) (A) (A) (A) (A) (A)
                 (A) (A) (A) (A) (A) (A) (A) (A) (A) (A) (A) (A)
                 (A) (A) (A) (A) (A) (A) (A) (A) (A) (A) (A) (A)
                 (A) (A) (A) (A) (A) (A) (A) (A) (A) (A) (A) (A)
                 (A) (A) (A) (A) (A) (A) (A) (A) (A) (A) (A) (A)
                 (A) (A) (A) (A) (A) (A) (A) (A) (A) (A) (A) (A)
                 (A) (A) (A) (A) (A) (A) (A) (A) (A) (A) (A) (A)
                 (A) (A) (A) (A) (A) (A) (A) (A) (A) (A) (A) (A)
                 (A) (A) (A) (A) (A) (A) (A) (A) (A) (A) (A) (A)
                 (A) (A) (A) (A) (A) (A) (A) (A) (A) (A) (A) (A)
                 (A) (A) (A) (A) (A) (A) (A) (A) (A) (A) (A) (A)
                 (A) (A) (A) (A) (A) (A) (A) (A) (A) (A) (A) (A)
                 (A) (A) (A) (A) (A) (A) (A) (A) (A) (A) (A) (A)
                 (A)
       Virtual   (A) (A) (A) (A) (A) (A) (A) (A) (A) (A) (A) (A)
                 (A) (A) (A) (A) (A) (A) (A) (A) (A) (A) (A) (A)
                 (A) (A) (A) (A) (A) (A) (A) (A) (A) (A) (A) (A)
                 (A) (A) (A) (A) (A) (A) (A) (A) (A) (A) (A) (A)
                 (A) (A) (A) (A) (A) (A) (A) (A) (A) (A) (A) (A)
                 (A) (A) (A) (A) (A) (A) (A) (A) (A) (A) (A) (A)
                 (A) (A) (A) (A) (A) (A) (A) (A) (A) (A) (A) (A)
                 (A) (A) (A) (A) (A) (A) (A) (A) (A) (A) (A) (A)
                 (A) (A) (A) (A) (A) (A) (A) (A) (A) (A) (A) (A)
                 (A) (A) (A) (A) (A) (A) (A) (A) (A) (A) (A) (A)
                 (A) (A) (A) (A) (A) (A) (A) (A) (A) (A) (A) (A)
                 (A) (A) (A) (A) (A) (A) (A) (A) (A) (A) (A) (A)
                 (A) (A) (A) (A) (A) (A) (A) (A) (A) (A) (A) (A)
                 (A) (A) (A) (A) (A) (A) (A) (A) (A) (A) (A) (A)
                 (A) (A) (A) (A) (A) (A) (A) (A) (A) (A) (A) (A)
                 (A) (A) (A) (A) (A) (A) (A) (A) (A) (A) (A) (A)
                 (A) (A) (A) (A) (A) (A) (A) (A) (A) (A) (A) (A)
                 (A) (A) (A) (A) (A) (A) (A) (A) (A) (A) (A) (A)
                 (A) (A) (A) (A) (A) (A) (A) (A) (A) (A) (A) (A)
                 (A) (A) (A) (A) (A) (A) (A) (A) (A) (A) (A) (A)
                 (A) (A) (A) (A) (A) (A) (A) (A) (A) (A) (A) (A)
                 (A) (A) (A) (A) (A) (A) (A) (A) (A) (A) (A) (A)
                 (A) (A) (A) (A) (A) (A) (A) (A) (A) (A) (A) (A)
                 (A) (A) (A) (A) (A) (A) (A) (A) (A) (A) (A) (A)
                 (A) (A) (A) (A) (A) (A) (A) (A) (A) (A) (A) (A)
                 (A) (A) (A) (A) (A) (A) (A) (A) (A) (A) (A) (A)
                 (A) (A) (A) (A) (A) (A) (A) (A) (A) (A) (A) (A)
                 (A) (A) (A) (A) (A) (A) (A) (A) (A) (A) (A) (A)
                 (A) (A) (A) (A) (A) (A) (A) (A) (A) (A) (A) (A)
                 (A) (A) (A) (A) (A) (A) (A) (A) (A) (A) (A) (A)
                 (A) (A) (A) (A) (A) (A) (A) (A) (A) (A) (A) (A)
                 (A) (A) (A) (A) (A) (A) (A) (A) (A) (A) (A) (A)
                 (A) (A) (A) (A) (A) (A) (A) (A) (A) (A) (A) (A)
                 (A) (A) (A) (A) (A) (A) (A) (A) (A) (A) (A) (A)
                 (A) (A) (A) (A) (A) (A) (A) (A) (A) (A) (A) (A)
                 (A) (A) (A) (A) (A) (A) (A) (A) (A) (A) (A) (A)
                 (A) (A) (A) (A) (A) (A) (A) (A) (A) (A) (A) (A)
                 (A) (A) (A) (A) (A) (A) (A) (A) (A) (A) (A) (A)
                 (A) (A) (A) (A) (A) (A) (A) (A) (A) (A) (A) (A)
                 (A) (A) (A) (A) (A) (A) (A) (A) (A) (A) (A) (A)
                 (A) (A) (A) (A) (A) (A) (A) (A) (A) (A) (A) (A)
                 (A) (A) (A) (A) (A) (A) (A) (A) (A) (A) (A) (A)
                 (A) (A) (A) (A) (A) (A) (A) (A) (A) (A) (A) (A)
                 (A) (A) (A) (A) (A) (A)
 The electronic state is 2-A.
 Alpha  occ. eigenvalues -- -256.38050 -30.24968 -26.09687 -26.09437 -26.06632
 Alpha  occ. eigenvalues --  -19.30300 -14.54346 -14.51275 -14.47244 -14.47122
 Alpha  occ. eigenvalues --  -14.46977 -14.46683 -10.38495 -10.35580 -10.33223
 Alpha  occ. eigenvalues --  -10.33220 -10.33062 -10.33059 -10.33050 -10.33038
 Alpha  occ. eigenvalues --  -10.33012 -10.33009 -10.32756 -10.30663 -10.30344
 Alpha  occ. eigenvalues --  -10.30193 -10.30159 -10.30085 -10.30027 -10.29974
 Alpha  occ. eigenvalues --  -10.29965 -10.29934 -10.29907 -10.29851 -10.29791
 Alpha  occ. eigenvalues --  -10.29433 -10.29257 -10.28925 -10.28197 -10.28186
 Alpha  occ. eigenvalues --  -10.28179 -10.28104 -10.28011 -10.27917 -10.27596
 Alpha  occ. eigenvalues --  -10.27557  -3.63669  -2.42053  -2.41473  -2.35550
 Alpha  occ. eigenvalues --   -1.17215  -1.16512  -1.08666  -1.07792  -1.07511
 Alpha  occ. eigenvalues --   -1.06659  -1.03019  -0.93168  -0.91930  -0.91408
 Alpha  occ. eigenvalues --   -0.91143  -0.90918  -0.90753  -0.90427  -0.90310
 Alpha  occ. eigenvalues --   -0.86420  -0.85119  -0.84899  -0.84023  -0.82762
 Alpha  occ. eigenvalues --   -0.82416  -0.80885  -0.79836  -0.78319  -0.78098
 Alpha  occ. eigenvalues --   -0.77934  -0.76176  -0.74801  -0.74764  -0.72580
 Alpha  occ. eigenvalues --   -0.72261  -0.70353  -0.69637  -0.68379  -0.67879
 Alpha  occ. eigenvalues --   -0.67141  -0.64867  -0.64096  -0.63228  -0.62932
 Alpha  occ. eigenvalues --   -0.61539  -0.61395  -0.61066  -0.59172  -0.58871
 Alpha  occ. eigenvalues --   -0.58344  -0.57905  -0.57722  -0.55644  -0.55124
 Alpha  occ. eigenvalues --   -0.54840  -0.54369  -0.53961  -0.53893  -0.53693
 Alpha  occ. eigenvalues --   -0.53499  -0.53165  -0.52992  -0.52919  -0.52342
 Alpha  occ. eigenvalues --   -0.52241  -0.52025  -0.51892  -0.51640  -0.51342
 Alpha  occ. eigenvalues --   -0.50496  -0.50410  -0.50196  -0.50078  -0.49893
 Alpha  occ. eigenvalues --   -0.49860  -0.49569  -0.49319  -0.48972  -0.48792
 Alpha  occ. eigenvalues --   -0.48393  -0.48113  -0.47935  -0.47675  -0.47522
 Alpha  occ. eigenvalues --   -0.47213  -0.46847  -0.46323  -0.46257  -0.45809
 Alpha  occ. eigenvalues --   -0.45459  -0.44608  -0.44457  -0.43829  -0.43320
 Alpha  occ. eigenvalues --   -0.42835  -0.42566  -0.42026  -0.41331  -0.40979
 Alpha  occ. eigenvalues --   -0.39715  -0.39268  -0.39065  -0.38578  -0.36950
 Alpha  occ. eigenvalues --   -0.36603  -0.34719  -0.33516  -0.33001  -0.31852
 Alpha  occ. eigenvalues --   -0.31259  -0.29206  -0.28289
 Alpha virt. eigenvalues --   -0.19174  -0.16968  -0.16920  -0.14101  -0.11289
 Alpha virt. eigenvalues --   -0.09068  -0.07580  -0.06359  -0.04921  -0.04404
 Alpha virt. eigenvalues --   -0.03296  -0.01751  -0.01497  -0.00515   0.01052
 Alpha virt. eigenvalues --    0.01445   0.02068   0.02566   0.03206   0.03461
 Alpha virt. eigenvalues --    0.04144   0.04270   0.04714   0.04825   0.05042
 Alpha virt. eigenvalues --    0.05377   0.05689   0.05932   0.06393   0.06590
 Alpha virt. eigenvalues --    0.06848   0.07097   0.07672   0.07843   0.08140
 Alpha virt. eigenvalues --    0.08269   0.08672   0.08897   0.09288   0.09353
 Alpha virt. eigenvalues --    0.09505   0.09694   0.10021   0.10495   0.10570
 Alpha virt. eigenvalues --    0.10783   0.11599   0.11776   0.11998   0.12328
 Alpha virt. eigenvalues --    0.12537   0.12905   0.12954   0.13498   0.13852
 Alpha virt. eigenvalues --    0.14371   0.15240   0.15329   0.15932   0.16351
 Alpha virt. eigenvalues --    0.16701   0.16960   0.17252   0.17555   0.18166
 Alpha virt. eigenvalues --    0.18179   0.19644   0.20042   0.20722   0.21064
 Alpha virt. eigenvalues --    0.21798   0.22214   0.23111   0.23808   0.23933
 Alpha virt. eigenvalues --    0.25296   0.25607   0.26004   0.26357   0.27318
 Alpha virt. eigenvalues --    0.27551   0.28977   0.29489   0.30572   0.31164
 Alpha virt. eigenvalues --    0.31714   0.33040   0.33689   0.34090   0.34412
 Alpha virt. eigenvalues --    0.34801   0.36340   0.38126   0.38248   0.38514
 Alpha virt. eigenvalues --    0.39208   0.39377   0.40074   0.40192   0.40767
 Alpha virt. eigenvalues --    0.41319   0.41836   0.42014   0.42155   0.42820
 Alpha virt. eigenvalues --    0.43065   0.43535   0.43804   0.44237   0.44664
 Alpha virt. eigenvalues --    0.45235   0.45580   0.45687   0.45805   0.46459
 Alpha virt. eigenvalues --    0.46618   0.47158   0.47722   0.48188   0.48956
 Alpha virt. eigenvalues --    0.48976   0.49485   0.49784   0.50627   0.50718
 Alpha virt. eigenvalues --    0.51062   0.51461   0.52194   0.52737   0.52786
 Alpha virt. eigenvalues --    0.53048   0.53569   0.54286   0.54629   0.54865
 Alpha virt. eigenvalues --    0.55442   0.55756   0.56197   0.56437   0.56599
 Alpha virt. eigenvalues --    0.57210   0.57241   0.57507   0.57791   0.57910
 Alpha virt. eigenvalues --    0.58297   0.58578   0.59952   0.60148   0.60421
 Alpha virt. eigenvalues --    0.61589   0.61776   0.61973   0.62775   0.62931
 Alpha virt. eigenvalues --    0.63515   0.63718   0.64434   0.64991   0.65421
 Alpha virt. eigenvalues --    0.66172   0.66340   0.66729   0.67265   0.67826
 Alpha virt. eigenvalues --    0.68086   0.68535   0.68712   0.69052   0.69375
 Alpha virt. eigenvalues --    0.69715   0.70013   0.70321   0.70560   0.71275
 Alpha virt. eigenvalues --    0.71526   0.72152   0.72750   0.73578   0.73910
 Alpha virt. eigenvalues --    0.74206   0.74822   0.76063   0.76429   0.76849
 Alpha virt. eigenvalues --    0.77500   0.77958   0.78429   0.78529   0.78962
 Alpha virt. eigenvalues --    0.79225   0.79376   0.79899   0.80174   0.80719
 Alpha virt. eigenvalues --    0.81014   0.81310   0.81583   0.82431   0.82504
 Alpha virt. eigenvalues --    0.83116   0.83425   0.83670   0.84150   0.84323
 Alpha virt. eigenvalues --    0.84614   0.84849   0.85746   0.85916   0.86263
 Alpha virt. eigenvalues --    0.86604   0.87079   0.87429   0.87616   0.88063
 Alpha virt. eigenvalues --    0.88408   0.88801   0.89223   0.89933   0.90316
 Alpha virt. eigenvalues --    0.90481   0.90893   0.91381   0.91604   0.91917
 Alpha virt. eigenvalues --    0.92409   0.92500   0.93191   0.93402   0.93952
 Alpha virt. eigenvalues --    0.94662   0.95187   0.95537   0.96231   0.96696
 Alpha virt. eigenvalues --    0.96869   0.97785   0.98161   0.99059   0.99659
 Alpha virt. eigenvalues --    0.99863   1.01466   1.01892   1.03616   1.04664
 Alpha virt. eigenvalues --    1.05202   1.05562   1.05851   1.07231   1.07762
 Alpha virt. eigenvalues --    1.08288   1.08413   1.08738   1.09465   1.10100
 Alpha virt. eigenvalues --    1.10363   1.10552   1.11072   1.11478   1.12114
 Alpha virt. eigenvalues --    1.12617   1.13495   1.14148   1.14620   1.15180
 Alpha virt. eigenvalues --    1.15670   1.17056   1.18038   1.19046   1.19644
 Alpha virt. eigenvalues --    1.20049   1.20905   1.21197   1.21341   1.22403
 Alpha virt. eigenvalues --    1.23105   1.23519   1.24393   1.25043   1.25911
 Alpha virt. eigenvalues --    1.26063   1.26894   1.27255   1.27948   1.28179
 Alpha virt. eigenvalues --    1.28471   1.28652   1.29284   1.29821   1.30422
 Alpha virt. eigenvalues --    1.30960   1.32118   1.32797   1.33404   1.34183
 Alpha virt. eigenvalues --    1.35381   1.35659   1.37216   1.37829   1.38286
 Alpha virt. eigenvalues --    1.38825   1.39504   1.40151   1.41398   1.42097
 Alpha virt. eigenvalues --    1.42426   1.43062   1.43238   1.44357   1.44862
 Alpha virt. eigenvalues --    1.45806   1.46150   1.47547   1.48363   1.50324
 Alpha virt. eigenvalues --    1.50509   1.51822   1.52040   1.53363   1.53854
 Alpha virt. eigenvalues --    1.54862   1.55643   1.56046   1.57737   1.58455
 Alpha virt. eigenvalues --    1.59686   1.60634   1.60819   1.61374   1.62704
 Alpha virt. eigenvalues --    1.63950   1.64723   1.65597   1.69454   1.69866
 Alpha virt. eigenvalues --    1.70264   1.70808   1.71302   1.71588   1.71712
 Alpha virt. eigenvalues --    1.72406   1.72830   1.72943   1.73498   1.74163
 Alpha virt. eigenvalues --    1.74613   1.75117   1.75889   1.76530   1.76945
 Alpha virt. eigenvalues --    1.77403   1.77857   1.78784   1.79345   1.79734
 Alpha virt. eigenvalues --    1.80362   1.81220   1.81831   1.82853   1.83381
 Alpha virt. eigenvalues --    1.84173   1.84555   1.85488   1.85659   1.85870
 Alpha virt. eigenvalues --    1.86808   1.87729   1.88646   1.88803   1.89002
 Alpha virt. eigenvalues --    1.90507   1.90697   1.91007   1.92087   1.92167
 Alpha virt. eigenvalues --    1.93781   1.94673   1.95284   1.95457   1.96350
 Alpha virt. eigenvalues --    1.96550   1.96940   1.97411   1.98039   1.98529
 Alpha virt. eigenvalues --    1.99709   2.00174   2.01538   2.02243   2.02894
 Alpha virt. eigenvalues --    2.03945   2.04603   2.04846   2.06048   2.06709
 Alpha virt. eigenvalues --    2.07028   2.07694   2.08324   2.09243   2.09464
 Alpha virt. eigenvalues --    2.11336   2.11761   2.12425   2.13069   2.13237
 Alpha virt. eigenvalues --    2.13958   2.14627   2.15505   2.16312   2.16517
 Alpha virt. eigenvalues --    2.16908   2.17145   2.17839   2.18762   2.19439
 Alpha virt. eigenvalues --    2.19805   2.19938   2.20429   2.20866   2.21185
 Alpha virt. eigenvalues --    2.22002   2.22564   2.22844   2.23328   2.24653
 Alpha virt. eigenvalues --    2.25179   2.25347   2.26373   2.26882   2.27238
 Alpha virt. eigenvalues --    2.27401   2.28225   2.28851   2.29080   2.29525
 Alpha virt. eigenvalues --    2.29864   2.31000   2.31546   2.32522   2.32775
 Alpha virt. eigenvalues --    2.33181   2.33446   2.34166   2.34614   2.35517
 Alpha virt. eigenvalues --    2.35734   2.36736   2.38398   2.38847   2.40312
 Alpha virt. eigenvalues --    2.40891   2.42630   2.43226   2.43438   2.43767
 Alpha virt. eigenvalues --    2.44418   2.45239   2.45913   2.46768   2.47307
 Alpha virt. eigenvalues --    2.47508   2.47941   2.48665   2.50196   2.50572
 Alpha virt. eigenvalues --    2.51411   2.53236   2.54710   2.55546   2.57038
 Alpha virt. eigenvalues --    2.58458   2.59367   2.59618   2.60904   2.61449
 Alpha virt. eigenvalues --    2.62362   2.64453   2.65330   2.66076   2.68992
 Alpha virt. eigenvalues --    2.69652   2.70612   2.71433   2.71699   2.77006
 Alpha virt. eigenvalues --    2.78015   2.78481   2.79784   2.81626   2.82601
 Alpha virt. eigenvalues --    2.83099   2.85961   2.87073   2.87236   2.89276
 Alpha virt. eigenvalues --    2.89853   2.90308   2.90559   2.93772   2.95110
 Alpha virt. eigenvalues --    2.96023   2.96708   3.02812   3.04368   3.04763
 Alpha virt. eigenvalues --    3.10938   3.13588   3.15243   3.20619   3.20681
 Alpha virt. eigenvalues --    3.28728   3.29569   3.30611   3.36587   3.36793
 Alpha virt. eigenvalues --    3.48292   3.54910   3.74160   3.77595   4.04403
 Alpha virt. eigenvalues --    4.15121
  Beta  occ. eigenvalues -- -256.38015 -30.22767 -26.07270 -26.07023 -26.05952
  Beta  occ. eigenvalues --  -19.30296 -14.54344 -14.51356 -14.47281 -14.47155
  Beta  occ. eigenvalues --  -14.47042 -14.46742 -10.38483 -10.35582 -10.33219
  Beta  occ. eigenvalues --  -10.33211 -10.33058 -10.33051 -10.33041 -10.33034
  Beta  occ. eigenvalues --  -10.33009 -10.33005 -10.32753 -10.30664 -10.30324
  Beta  occ. eigenvalues --  -10.30203 -10.30139 -10.30067 -10.30007 -10.29982
  Beta  occ. eigenvalues --  -10.29975 -10.29935 -10.29918 -10.29854 -10.29795
  Beta  occ. eigenvalues --  -10.29435 -10.29265 -10.28925 -10.28197 -10.28188
  Beta  occ. eigenvalues --  -10.28181 -10.28104 -10.28012 -10.27904 -10.27595
  Beta  occ. eigenvalues --  -10.27558  -3.58327  -2.34545  -2.34226  -2.33294
  Beta  occ. eigenvalues --   -1.17233  -1.16504  -1.08684  -1.07777  -1.07568
  Beta  occ. eigenvalues --   -1.06684  -1.03067  -0.93172  -0.91905  -0.91417
  Beta  occ. eigenvalues --   -0.91128  -0.90918  -0.90756  -0.90438  -0.90320
  Beta  occ. eigenvalues --   -0.86414  -0.85117  -0.84921  -0.84022  -0.82760
  Beta  occ. eigenvalues --   -0.82416  -0.80883  -0.79841  -0.78325  -0.78103
  Beta  occ. eigenvalues --   -0.77947  -0.76209  -0.74801  -0.74762  -0.72583
  Beta  occ. eigenvalues --   -0.72261  -0.70349  -0.69643  -0.68372  -0.67879
  Beta  occ. eigenvalues --   -0.67140  -0.64869  -0.64106  -0.63230  -0.62930
  Beta  occ. eigenvalues --   -0.61551  -0.61418  -0.61080  -0.59162  -0.58845
  Beta  occ. eigenvalues --   -0.58288  -0.57911  -0.57710  -0.55642  -0.55100
  Beta  occ. eigenvalues --   -0.54781  -0.54331  -0.53894  -0.53779  -0.53640
  Beta  occ. eigenvalues --   -0.53433  -0.53151  -0.53007  -0.52899  -0.52260
  Beta  occ. eigenvalues --   -0.52206  -0.52003  -0.51891  -0.51632  -0.51356
  Beta  occ. eigenvalues --   -0.50482  -0.50378  -0.50112  -0.49904  -0.49834
  Beta  occ. eigenvalues --   -0.49599  -0.49462  -0.49300  -0.48949  -0.48703
  Beta  occ. eigenvalues --   -0.48354  -0.48124  -0.47822  -0.47496  -0.47437
  Beta  occ. eigenvalues --   -0.47096  -0.46707  -0.46250  -0.45857  -0.45402
  Beta  occ. eigenvalues --   -0.44691  -0.44593  -0.43913  -0.43533  -0.43045
  Beta  occ. eigenvalues --   -0.42470  -0.41932  -0.41167  -0.41093  -0.39216
  Beta  occ. eigenvalues --   -0.38772  -0.38297  -0.37119  -0.36962  -0.36367
  Beta  occ. eigenvalues --   -0.34675  -0.33638  -0.33031  -0.31952  -0.31129
  Beta  occ. eigenvalues --   -0.29206  -0.28210
  Beta virt. eigenvalues --   -0.20282  -0.16953  -0.16815  -0.16015  -0.11270
  Beta virt. eigenvalues --   -0.11066  -0.08892  -0.07485  -0.06330  -0.04812
  Beta virt. eigenvalues --   -0.04388  -0.03245  -0.01709  -0.01366  -0.00408
  Beta virt. eigenvalues --    0.01095   0.01484   0.02068   0.02565   0.03215
  Beta virt. eigenvalues --    0.03469   0.04152   0.04307   0.04735   0.04845
  Beta virt. eigenvalues --    0.05064   0.05410   0.05697   0.05945   0.06400
  Beta virt. eigenvalues --    0.06613   0.06880   0.07103   0.07677   0.07856
  Beta virt. eigenvalues --    0.08148   0.08277   0.08686   0.08900   0.09304
  Beta virt. eigenvalues --    0.09355   0.09521   0.09705   0.10033   0.10524
  Beta virt. eigenvalues --    0.10580   0.10797   0.11613   0.11815   0.12007
  Beta virt. eigenvalues --    0.12337   0.12544   0.12917   0.12975   0.13523
  Beta virt. eigenvalues --    0.13880   0.14402   0.15267   0.15347   0.15953
  Beta virt. eigenvalues --    0.16381   0.16714   0.16957   0.17260   0.17614
  Beta virt. eigenvalues --    0.18172   0.18202   0.19901   0.20286   0.20887
  Beta virt. eigenvalues --    0.21086   0.21869   0.22262   0.23207   0.23831
  Beta virt. eigenvalues --    0.24022   0.25326   0.25648   0.26031   0.26385
  Beta virt. eigenvalues --    0.27347   0.27556   0.29031   0.29624   0.30646
  Beta virt. eigenvalues --    0.31265   0.31775   0.33177   0.33691   0.34099
  Beta virt. eigenvalues --    0.34423   0.34849   0.36534   0.38200   0.38359
  Beta virt. eigenvalues --    0.38536   0.39246   0.39452   0.40137   0.40228
  Beta virt. eigenvalues --    0.40784   0.41385   0.41853   0.42149   0.42225
  Beta virt. eigenvalues --    0.42842   0.43078   0.43546   0.43832   0.44247
  Beta virt. eigenvalues --    0.44684   0.45299   0.45629   0.45736   0.45832
  Beta virt. eigenvalues --    0.46493   0.46726   0.47241   0.47726   0.48199
  Beta virt. eigenvalues --    0.48974   0.49031   0.49546   0.49804   0.50637
  Beta virt. eigenvalues --    0.50726   0.51094   0.51547   0.52211   0.52751
  Beta virt. eigenvalues --    0.52805   0.53106   0.53575   0.54345   0.54659
  Beta virt. eigenvalues --    0.55000   0.55538   0.55811   0.56208   0.56461
  Beta virt. eigenvalues --    0.56633   0.57239   0.57430   0.57514   0.57793
  Beta virt. eigenvalues --    0.58054   0.58305   0.58594   0.59993   0.60179
  Beta virt. eigenvalues --    0.60465   0.61649   0.61824   0.62103   0.62828
  Beta virt. eigenvalues --    0.62998   0.63611   0.63777   0.64462   0.65051
  Beta virt. eigenvalues --    0.65461   0.66182   0.66355   0.66772   0.67292
  Beta virt. eigenvalues --    0.67847   0.68187   0.68569   0.68756   0.69074
  Beta virt. eigenvalues --    0.69456   0.69744   0.70087   0.70393   0.70817
  Beta virt. eigenvalues --    0.71363   0.71560   0.72210   0.72798   0.73611
  Beta virt. eigenvalues --    0.73928   0.74217   0.74823   0.76093   0.76450
  Beta virt. eigenvalues --    0.76878   0.77523   0.77963   0.78455   0.78542
  Beta virt. eigenvalues --    0.78989   0.79253   0.79391   0.79944   0.80192
  Beta virt. eigenvalues --    0.80766   0.81040   0.81338   0.81607   0.82453
  Beta virt. eigenvalues --    0.82526   0.83133   0.83464   0.83694   0.84290
  Beta virt. eigenvalues --    0.84380   0.84632   0.84896   0.85778   0.85919
  Beta virt. eigenvalues --    0.86570   0.86630   0.87144   0.87506   0.87631
  Beta virt. eigenvalues --    0.88076   0.88522   0.88885   0.89315   0.89956
  Beta virt. eigenvalues --    0.90374   0.90560   0.90920   0.91397   0.91633
  Beta virt. eigenvalues --    0.91928   0.92419   0.92536   0.93225   0.93432
  Beta virt. eigenvalues --    0.94002   0.94669   0.95287   0.95598   0.96254
  Beta virt. eigenvalues --    0.96731   0.96881   0.97811   0.98177   0.99110
  Beta virt. eigenvalues --    0.99685   0.99938   1.01534   1.01945   1.03729
  Beta virt. eigenvalues --    1.04719   1.05224   1.05573   1.05968   1.07309
  Beta virt. eigenvalues --    1.07840   1.08297   1.08450   1.08819   1.09517
  Beta virt. eigenvalues --    1.10199   1.10370   1.10609   1.11085   1.11491
  Beta virt. eigenvalues --    1.12133   1.12654   1.13512   1.14190   1.14685
  Beta virt. eigenvalues --    1.15292   1.15916   1.17072   1.18076   1.19083
  Beta virt. eigenvalues --    1.19677   1.20062   1.20947   1.21217   1.21376
  Beta virt. eigenvalues --    1.22424   1.23130   1.23540   1.24468   1.25079
  Beta virt. eigenvalues --    1.25951   1.26089   1.26918   1.27283   1.27964
  Beta virt. eigenvalues --    1.28192   1.28496   1.28663   1.29341   1.29826
  Beta virt. eigenvalues --    1.30513   1.30971   1.32148   1.32863   1.33426
  Beta virt. eigenvalues --    1.34204   1.35381   1.35684   1.37229   1.37834
  Beta virt. eigenvalues --    1.38296   1.38830   1.39524   1.40198   1.41438
  Beta virt. eigenvalues --    1.42086   1.42479   1.43149   1.43238   1.44374
  Beta virt. eigenvalues --    1.44896   1.45819   1.46152   1.47605   1.48457
  Beta virt. eigenvalues --    1.50330   1.50538   1.51899   1.52080   1.53416
  Beta virt. eigenvalues --    1.53876   1.54884   1.55689   1.56081   1.57896
  Beta virt. eigenvalues --    1.58478   1.59692   1.60676   1.60916   1.61464
  Beta virt. eigenvalues --    1.62725   1.64059   1.64753   1.65631   1.69469
  Beta virt. eigenvalues --    1.69877   1.70273   1.70819   1.71305   1.71649
  Beta virt. eigenvalues --    1.71732   1.72443   1.72826   1.72961   1.73516
  Beta virt. eigenvalues --    1.74189   1.74612   1.75178   1.75875   1.76534
  Beta virt. eigenvalues --    1.76939   1.77391   1.77874   1.78794   1.79355
  Beta virt. eigenvalues --    1.79763   1.80368   1.81233   1.81847   1.82898
  Beta virt. eigenvalues --    1.83463   1.84220   1.84648   1.85563   1.85799
  Beta virt. eigenvalues --    1.85951   1.86895   1.87805   1.88764   1.88937
  Beta virt. eigenvalues --    1.89398   1.90521   1.90786   1.91033   1.92142
  Beta virt. eigenvalues --    1.92198   1.93820   1.94694   1.95345   1.95477
  Beta virt. eigenvalues --    1.96420   1.96626   1.97025   1.97485   1.98089
  Beta virt. eigenvalues --    1.98576   1.99801   2.00310   2.01586   2.02282
  Beta virt. eigenvalues --    2.02918   2.04073   2.04648   2.04848   2.06080
  Beta virt. eigenvalues --    2.06717   2.07060   2.07698   2.08495   2.09334
  Beta virt. eigenvalues --    2.09616   2.11463   2.11782   2.12483   2.13111
  Beta virt. eigenvalues --    2.13261   2.13987   2.14667   2.15588   2.16363
  Beta virt. eigenvalues --    2.16522   2.16936   2.17155   2.17877   2.18900
  Beta virt. eigenvalues --    2.19492   2.19883   2.20079   2.20602   2.20899
  Beta virt. eigenvalues --    2.21379   2.22040   2.22603   2.22918   2.23396
  Beta virt. eigenvalues --    2.24752   2.25212   2.25517   2.26418   2.26947
  Beta virt. eigenvalues --    2.27293   2.27450   2.28250   2.28869   2.29156
  Beta virt. eigenvalues --    2.29783   2.29944   2.31030   2.31574   2.32563
  Beta virt. eigenvalues --    2.32809   2.33251   2.33568   2.34217   2.34672
  Beta virt. eigenvalues --    2.35536   2.35778   2.36919   2.38435   2.38932
  Beta virt. eigenvalues --    2.40547   2.41144   2.42676   2.43254   2.43544
  Beta virt. eigenvalues --    2.43785   2.44490   2.45311   2.45926   2.46867
  Beta virt. eigenvalues --    2.47386   2.47561   2.47948   2.48692   2.50293
  Beta virt. eigenvalues --    2.50629   2.51467   2.53253   2.54742   2.55547
  Beta virt. eigenvalues --    2.57052   2.58494   2.59389   2.59616   2.60952
  Beta virt. eigenvalues --    2.61484   2.62376   2.64467   2.65356   2.66078
  Beta virt. eigenvalues --    2.69007   2.69667   2.70622   2.71439   2.71702
  Beta virt. eigenvalues --    2.76979   2.78029   2.78489   2.79793   2.81624
  Beta virt. eigenvalues --    2.82632   2.83100   2.85963   2.87073   2.87227
  Beta virt. eigenvalues --    2.89259   2.89860   2.90320   2.90577   2.93833
  Beta virt. eigenvalues --    2.95091   2.96019   2.96775   3.02803   3.04385
  Beta virt. eigenvalues --    3.04768   3.10928   3.13615   3.15330   3.20628
  Beta virt. eigenvalues --    3.20686   3.28717   3.29564   3.30683   3.36595
  Beta virt. eigenvalues --    3.36777   3.54038   3.58734   3.76644   3.79162
  Beta virt. eigenvalues --    4.05695   4.16790
          Condensed to atoms (all electrons):
          Atomic-Atomic Spin Densities.
 Mulliken charges and spin densities:
               1          2
     1  Fe   0.884633   1.072125
     2  N   -0.658836  -0.028693
     3  N   -0.676146  -0.024742
     4  N   -0.664264  -0.027441
     5  N   -0.659827  -0.023280
     6  C    0.292477   0.004931
     7  C    0.037029  -0.001820
     8  C    0.042027  -0.000285
     9  C    0.277278   0.004792
    10  C    0.303951   0.005383
    11  C    0.043131   0.012567
    12  C    0.003240   0.012900
    13  C    0.324882   0.004221
    14  C    0.316154   0.004002
    15  C    0.041490  -0.002059
    16  C    0.004194  -0.000235
    17  C    0.312490   0.003583
    18  C    0.304964   0.004977
    19  C    0.043425   0.014191
    20  C    0.043588   0.010617
    21  C    0.319516   0.006233
    22  C   -0.298120  -0.006511
    23  H    0.190345   0.000347
    24  C   -0.307201  -0.007317
    25  H    0.189686   0.000342
    26  C   -0.294409  -0.008085
    27  H    0.191475   0.000362
    28  C   -0.302059  -0.007048
    29  H    0.191356   0.000319
    30  C   -0.610259  -0.000101
    31  H    0.202753   0.000052
    32  H    0.203913  -0.000110
    33  H    0.199854   0.000055
    34  C   -0.610613  -0.000072
    35  H    0.203315  -0.000005
    36  H    0.201432  -0.000000
    37  H    0.202893  -0.000119
    38  C   -0.613449  -0.001302
    39  H    0.197402   0.000500
    40  H    0.201379   0.000960
    41  H    0.213742   0.000098
    42  C   -0.149600  -0.006006
    43  H    0.180411   0.000472
    44  C   -0.392058   0.009560
    45  H    0.185672  -0.000473
    46  H    0.193848  -0.000459
    47  C   -0.614309  -0.000059
    48  H    0.193977  -0.000027
    49  H    0.204080   0.000025
    50  H    0.211952  -0.000132
    51  C   -0.155759  -0.000132
    52  H    0.179188   0.000013
    53  C   -0.391886   0.000193
    54  H    0.186729  -0.000007
    55  H    0.191801  -0.000019
    56  C   -0.611409  -0.001366
    57  H    0.207727   0.000813
    58  H    0.201032   0.000902
    59  H    0.203749  -0.000050
    60  C   -0.611381  -0.001211
    61  H    0.206557   0.000764
    62  H    0.203438  -0.000104
    63  H    0.201609   0.000763
    64  O   -0.806329  -0.001762
    65  H    0.481553   0.000331
    66  H    0.467652  -0.000279
    67  C   -0.602538  -0.000120
    68  H    0.222768  -0.000024
    69  H    0.214873   0.000021
    70  H    0.215300  -0.000042
    71  N   -0.630324   0.001022
    72  H    0.389236  -0.000284
    73  C    0.282008  -0.000684
    74  C    0.268481   0.009098
    75  H    0.239331  -0.000590
    76  N   -0.433514  -0.036183
    77  C   -0.039804   0.001927
    78  H    0.217109  -0.000221
 Sum of Mulliken charges =   1.00000   1.00000
 Mulliken charges and spin densities with hydrogens summed into heavy atoms:
               1          2
     1  Fe   0.884633   1.072125
     2  N   -0.658836  -0.028693
     3  N   -0.676146  -0.024742
     4  N   -0.664264  -0.027441
     5  N   -0.659827  -0.023280
     6  C    0.292477   0.004931
     7  C    0.037029  -0.001820
     8  C    0.042027  -0.000285
     9  C    0.277278   0.004792
    10  C    0.303951   0.005383
    11  C    0.043131   0.012567
    12  C    0.003240   0.012900
    13  C    0.324882   0.004221
    14  C    0.316154   0.004002
    15  C    0.041490  -0.002059
    16  C    0.004194  -0.000235
    17  C    0.312490   0.003583
    18  C    0.304964   0.004977
    19  C    0.043425   0.014191
    20  C    0.043588   0.010617
    21  C    0.319516   0.006233
    22  C   -0.107775  -0.006165
    24  C   -0.117515  -0.006976
    26  C   -0.102933  -0.007723
    28  C   -0.110704  -0.006729
    30  C   -0.003740  -0.000104
    34  C   -0.002973  -0.000197
    38  C   -0.000927   0.000256
    42  C    0.030811  -0.005533
    44  C   -0.012538   0.008628
    47  C   -0.004300  -0.000193
    51  C    0.023429  -0.000119
    53  C   -0.013356   0.000167
    56  C    0.001099   0.000298
    60  C    0.000223   0.000211
    64  O    0.142876  -0.001710
    67  C    0.050402  -0.000164
    71  N   -0.241088   0.000738
    73  C    0.282008  -0.000684
    74  C    0.507812   0.008508
    76  N   -0.433514  -0.036183
    77  C    0.177305   0.001707
 Electronic spatial extent (au):  <R**2>=          19827.6458
 Charge=              1.0000 electrons
 Dipole moment (field-independent basis, Debye):
    X=              0.9444    Y=             -1.6647    Z=              3.7762  Tot=              4.2336
 Quadrupole moment (field-independent basis, Debye-Ang):
   XX=           -183.9480   YY=           -190.9019   ZZ=           -199.8579
   XY=             -0.3064   XZ=              0.7487   YZ=             -0.4740
 Traceless Quadrupole moment (field-independent basis, Debye-Ang):
   XX=              7.6213   YY=              0.6673   ZZ=             -8.2886
   XY=             -0.3064   XZ=              0.7487   YZ=             -0.4740
 Octapole moment (field-independent basis, Debye-Ang**2):
  XXX=             -3.4044  YYY=             -9.6793  ZZZ=            130.0013  XYY=              9.1221
  XXY=              1.2681  XXZ=             -3.6618  XZZ=              9.6807  YZZ=            -25.9667
  YYZ=            -21.1773  XYZ=             17.6117
 Hexadecapole moment (field-independent basis, Debye-Ang**3):
 XXXX=         -10415.2070 YYYY=         -10046.2612 ZZZZ=          -2197.4782 XXXY=            -29.7338
 XXXZ=            121.6680 YYYX=             50.5609 YYYZ=             84.5669 ZZZX=            -61.3959
 ZZZY=            -66.0093 XXYY=          -3238.8678 XXZZ=          -2454.7847 YYZZ=          -2518.1712
 XXYZ=             68.6074 YYXZ=              8.4129 ZZXY=            -19.2241
 N-N= 5.973951921558D+03 E-N=-1.892245595615D+04  KE= 2.971978442313D+03
                          Isotropic Fermi Contact Couplings
        Atom                 a.u.       MegaHertz       Gauss      10(-4) cm-1
     1  Fe(57)             0.11512      16.69653       5.95774       5.56936
     2  N(14)             -0.02225      -7.18991      -2.56554      -2.39830
     3  N(14)             -0.02122      -6.85740      -2.44689      -2.28738
     4  N(14)             -0.02290      -7.39895      -2.64013      -2.46803
     5  N(14)             -0.01794      -5.79697      -2.06850      -1.93366
     6  C(13)             -0.00021      -0.24120      -0.08607      -0.08046
     7  C(13)             -0.00091      -1.01911      -0.36365      -0.33994
     8  C(13)             -0.00061      -0.68545      -0.24458      -0.22864
     9  C(13)             -0.00004      -0.04671      -0.01667      -0.01558
    10  C(13)              0.00067       0.75238       0.26847       0.25097
    11  C(13)              0.00113       1.27507       0.45498       0.42532
    12  C(13)              0.00091       1.02675       0.36637       0.34249
    13  C(13)             -0.00113      -1.27492      -0.45492      -0.42527
    14  C(13)             -0.00041      -0.45650      -0.16289      -0.15227
    15  C(13)             -0.00096      -1.07653      -0.38413      -0.35909
    16  C(13)             -0.00059      -0.65816      -0.23485      -0.21954
    17  C(13)             -0.00009      -0.09809      -0.03500      -0.03272
    18  C(13)              0.00057       0.63841       0.22780       0.21295
    19  C(13)              0.00139       1.56510       0.55847       0.52206
    20  C(13)              0.00078       0.87876       0.31356       0.29312
    21  C(13)             -0.00028      -0.31820      -0.11354      -0.10614
    22  C(13)             -0.00103      -1.16084      -0.41422      -0.38722
    23  H(1)               0.00013       0.58576       0.20901       0.19539
    24  C(13)             -0.00123      -1.38141      -0.49292      -0.46079
    25  H(1)               0.00012       0.55631       0.19850       0.18556
    26  C(13)             -0.00118      -1.32258      -0.47193      -0.44117
    27  H(1)               0.00013       0.57684       0.20583       0.19241
    28  C(13)             -0.00116      -1.30707      -0.46640      -0.43599
    29  H(1)               0.00011       0.48686       0.17372       0.16240
    30  C(13)             -0.00005      -0.06143      -0.02192      -0.02049
    31  H(1)               0.00003       0.13126       0.04684       0.04378
    32  H(1)              -0.00005      -0.20971      -0.07483      -0.06995
    33  H(1)               0.00004       0.16007       0.05712       0.05339
    34  C(13)             -0.00006      -0.07130      -0.02544      -0.02378
    35  H(1)              -0.00000      -0.01310      -0.00467      -0.00437
    36  H(1)               0.00000       0.01128       0.00402       0.00376
    37  H(1)              -0.00005      -0.22739      -0.08114      -0.07585
    38  C(13)             -0.00048      -0.54211      -0.19344      -0.18083
    39  H(1)               0.00022       0.98384       0.35106       0.32817
    40  H(1)               0.00048       2.14341       0.76482       0.71497
    41  H(1)               0.00003       0.11330       0.04043       0.03779
    42  C(13)             -0.00125      -1.40232      -0.50038      -0.46776
    43  H(1)               0.00018       0.78537       0.28024       0.26197
    44  C(13)              0.00136       1.53412       0.54741       0.51173
    45  H(1)              -0.00014      -0.63840      -0.22780      -0.21295
    46  H(1)              -0.00015      -0.65837      -0.23492      -0.21961
    47  C(13)             -0.00006      -0.07116      -0.02539      -0.02374
    48  H(1)              -0.00000      -0.00720      -0.00257      -0.00240
    49  H(1)               0.00002       0.06808       0.02429       0.02271
    50  H(1)              -0.00005      -0.23891      -0.08525      -0.07969
    51  C(13)             -0.00007      -0.07908      -0.02822      -0.02638
    52  H(1)               0.00001       0.06597       0.02354       0.02201
    53  C(13)              0.00003       0.03532       0.01260       0.01178
    54  H(1)              -0.00000      -0.01178      -0.00420      -0.00393
    55  H(1)              -0.00001      -0.03973      -0.01418      -0.01325
    56  C(13)             -0.00052      -0.58085      -0.20726      -0.19375
    57  H(1)               0.00037       1.67002       0.59591       0.55706
    58  H(1)               0.00042       1.89679       0.67682       0.63270
    59  H(1)              -0.00003      -0.11285      -0.04027      -0.03764
    60  C(13)             -0.00049      -0.54570      -0.19472      -0.18202
    61  H(1)               0.00034       1.52268       0.54333       0.50791
    62  H(1)              -0.00005      -0.22995      -0.08205      -0.07670
    63  H(1)               0.00034       1.51478       0.54051       0.50528
    64  O(17)             -0.00046       0.28184       0.10057       0.09401
    65  H(1)               0.00002       0.08363       0.02984       0.02790
    66  H(1)              -0.00032      -1.44406      -0.51528      -0.48169
    67  C(13)             -0.00002      -0.02666      -0.00951      -0.00889
    68  H(1)              -0.00001      -0.05868      -0.02094      -0.01957
    69  H(1)               0.00002       0.07545       0.02692       0.02517
    70  H(1)              -0.00000      -0.02171      -0.00775      -0.00724
    71  N(14)             -0.00139      -0.44981      -0.16050      -0.15004
    72  H(1)              -0.00014      -0.64477      -0.23007      -0.21507
    73  C(13)             -0.00105      -1.17752      -0.42017      -0.39278
    74  C(13)             -0.00033      -0.36959      -0.13188      -0.12328
    75  H(1)              -0.00025      -1.10922      -0.39580      -0.37000
    76  N(14)             -0.03646     -11.78077      -4.20367      -3.92964
    77  C(13)              0.00068       0.76437       0.27275       0.25497
    78  H(1)              -0.00017      -0.75407      -0.26907      -0.25153
 --------------------------------------------------------
       Center         ----  Spin Dipole Couplings  ----
                      3XX-RR        3YY-RR        3ZZ-RR
 --------------------------------------------------------
     1   Atom       -1.072330     -0.265104      1.337435
     2   Atom        0.007210      0.002737     -0.009947
     3   Atom       -0.005018     -0.012376      0.017394
     4   Atom        0.002821     -0.001867     -0.000955
     5   Atom       -0.003732     -0.016013      0.019745
     6   Atom       -0.004197      0.002595      0.001602
     7   Atom       -0.001000      0.002031     -0.001030
     8   Atom        0.000981     -0.001153      0.000172
     9   Atom        0.002038     -0.002600      0.000561
    10   Atom        0.004737     -0.006733      0.001996
    11   Atom       -0.005833     -0.008654      0.014487
    12   Atom       -0.009364     -0.006256      0.015620
    13   Atom       -0.003565     -0.000112      0.003677
    14   Atom       -0.003678      0.003009      0.000669
    15   Atom       -0.000788      0.002356     -0.001568
    16   Atom        0.001161     -0.001014     -0.000148
    17   Atom        0.003071     -0.001956     -0.001115
    18   Atom        0.005192     -0.006644      0.001451
    19   Atom       -0.006345     -0.008730      0.015075
    20   Atom       -0.008197     -0.004147      0.012344
    21   Atom       -0.005146      0.002477      0.002668
    22   Atom       -0.001105      0.009784     -0.008679
    23   Atom       -0.001158      0.002793     -0.001635
    24   Atom        0.009992     -0.000328     -0.009664
    25   Atom        0.002600     -0.000989     -0.001611
    26   Atom       -0.000197      0.010709     -0.010512
    27   Atom       -0.001031      0.002582     -0.001551
    28   Atom        0.010043     -0.000436     -0.009607
    29   Atom        0.002585     -0.000996     -0.001589
    30   Atom        0.000677     -0.000083     -0.000594
    31   Atom        0.000903     -0.000270     -0.000634
    32   Atom        0.000388      0.000120     -0.000508
    33   Atom        0.000900     -0.000247     -0.000653
    34   Atom       -0.000268      0.000882     -0.000614
    35   Atom       -0.000486      0.001131     -0.000646
    36   Atom       -0.000450      0.001107     -0.000657
    37   Atom       -0.000117      0.000621     -0.000504
    38   Atom        0.001351     -0.000735     -0.000616
    39   Atom        0.001482     -0.000655     -0.000827
    40   Atom        0.001256     -0.000607     -0.000649
    41   Atom        0.000981     -0.000239     -0.000742
    42   Atom       -0.000120      0.003028     -0.002908
    43   Atom       -0.000456      0.001310     -0.000854
    44   Atom        0.000955     -0.003851      0.002896
    45   Atom        0.000388      0.000078     -0.000466
    46   Atom       -0.000453      0.001025     -0.000572
    47   Atom       -0.000296      0.000857     -0.000561
    48   Atom       -0.000570      0.001240     -0.000671
    49   Atom       -0.000335      0.000935     -0.000600
    50   Atom       -0.000136      0.000641     -0.000505
    51   Atom        0.000695     -0.000033     -0.000662
    52   Atom        0.000961     -0.000324     -0.000637
    53   Atom        0.000178      0.000386     -0.000564
    54   Atom        0.000204      0.000231     -0.000435
    55   Atom        0.000346     -0.000013     -0.000333
    56   Atom        0.001436     -0.000777     -0.000658
    57   Atom        0.001367     -0.000656     -0.000711
    58   Atom        0.001519     -0.000700     -0.000819
    59   Atom        0.001054     -0.000328     -0.000726
    60   Atom       -0.000424      0.001176     -0.000752
    61   Atom       -0.000439      0.001216     -0.000777
    62   Atom       -0.000020      0.000716     -0.000696
    63   Atom       -0.000501      0.001206     -0.000705
    64   Atom        0.005029     -0.007762      0.002733
    65   Atom       -0.004933     -0.004556      0.009489
    66   Atom       -0.005590     -0.005816      0.011406
    67   Atom       -0.000431     -0.000627      0.001058
    68   Atom       -0.000174     -0.000723      0.000896
    69   Atom       -0.000444     -0.000591      0.001036
    70   Atom       -0.000424     -0.000594      0.001017
    71   Atom       -0.003790      0.004768     -0.000978
    72   Atom       -0.001126     -0.001095      0.002221
    73   Atom       -0.000992     -0.001143      0.002135
    74   Atom       -0.011725      0.006716      0.005009
    75   Atom        0.000202     -0.004213      0.004011
    76   Atom        0.010509      0.002582     -0.013090
    77   Atom       -0.002387     -0.004112      0.006499
    78   Atom        0.002184     -0.004166      0.001981
 --------------------------------------------------------
                        XY            XZ            YZ
 --------------------------------------------------------
     1   Atom        2.175385      0.240565     -0.388380
     2   Atom        0.005505      0.007197     -0.009846
     3   Atom       -0.001083      0.014354      0.009498
     4   Atom        0.006244     -0.000216      0.003935
     5   Atom       -0.000386     -0.018027     -0.018063
     6   Atom       -0.005479     -0.000020     -0.000997
     7   Atom       -0.001177     -0.000388      0.000448
     8   Atom       -0.001674     -0.000263      0.000379
     9   Atom       -0.005816      0.000670     -0.000089
    10   Atom        0.004411      0.001145     -0.000608
    11   Atom        0.001370      0.000794     -0.002756
    12   Atom        0.001567     -0.001242     -0.001602
    13   Atom        0.005768     -0.000966      0.001514
    14   Atom       -0.005333     -0.000749     -0.000107
    15   Atom       -0.001236     -0.000429      0.000385
    16   Atom       -0.001919     -0.000358      0.000617
    17   Atom       -0.006068     -0.000150     -0.000927
    18   Atom        0.004650      0.002423      0.001776
    19   Atom        0.001651      0.001466      0.005292
    20   Atom        0.002377      0.004237      0.005303
    21   Atom        0.006372      0.001466      0.007370
    22   Atom        0.000393      0.000508     -0.001226
    23   Atom        0.000097      0.000001     -0.000146
    24   Atom       -0.001202      0.000245     -0.000206
    25   Atom       -0.000435     -0.000008      0.000035
    26   Atom        0.000387      0.001041      0.000962
    27   Atom        0.000108      0.000063      0.000221
    28   Atom       -0.001318      0.001188     -0.000121
    29   Atom       -0.000530      0.000404     -0.000089
    30   Atom       -0.000940     -0.000091      0.000055
    31   Atom       -0.000817     -0.000313      0.000169
    32   Atom       -0.000786     -0.000048      0.000039
    33   Atom       -0.000806      0.000190     -0.000101
    34   Atom       -0.000773     -0.000040      0.000116
    35   Atom       -0.000622     -0.000128      0.000318
    36   Atom       -0.000616      0.000092     -0.000200
    37   Atom       -0.000699     -0.000027      0.000057
    38   Atom        0.000622      0.000068      0.000032
    39   Atom        0.000359     -0.000303      0.000020
    40   Atom        0.000457      0.000499      0.000057
    41   Atom        0.000846     -0.000110      0.000036
    42   Atom        0.001186      0.003161      0.000244
    43   Atom        0.000840      0.000064      0.000093
    44   Atom        0.001001     -0.006686     -0.000221
    45   Atom        0.000295      0.000411      0.000066
    46   Atom        0.000574     -0.000184      0.000207
    47   Atom       -0.000718      0.000036     -0.000050
    48   Atom       -0.000531      0.000090     -0.000265
    49   Atom       -0.000637     -0.000080      0.000167
    50   Atom       -0.000682      0.000078     -0.000165
    51   Atom       -0.001024      0.000143     -0.000111
    52   Atom       -0.000784      0.000382     -0.000194
    53   Atom       -0.000685      0.000195     -0.000318
    54   Atom       -0.000631     -0.000057      0.000074
    55   Atom       -0.000438      0.000031     -0.000030
    56   Atom        0.000677      0.000155      0.000135
    57   Atom        0.000438      0.000486      0.000015
    58   Atom        0.000350     -0.000398      0.000011
    59   Atom        0.000888     -0.000042     -0.000017
    60   Atom        0.000937      0.000107      0.000213
    61   Atom        0.000719      0.000022      0.000216
    62   Atom        0.001042     -0.000124     -0.000153
    63   Atom        0.000742     -0.000158     -0.000619
    64   Atom        0.014696      0.002551      0.001008
    65   Atom       -0.002915     -0.007163      0.007978
    66   Atom        0.000696     -0.000668     -0.002945
    67   Atom        0.000017     -0.000698      0.000060
    68   Atom       -0.000005     -0.000946      0.000060
    69   Atom       -0.000057     -0.000480      0.000213
    70   Atom        0.000112     -0.000518     -0.000274
    71   Atom        0.002085      0.000945     -0.002871
    72   Atom        0.000118      0.000715     -0.000225
    73   Atom        0.000635     -0.001426      0.000605
    74   Atom       -0.003447      0.002277     -0.005193
    75   Atom       -0.000829      0.005981     -0.001221
    76   Atom        0.002490      0.001248      0.004842
    77   Atom       -0.000912     -0.006165      0.001416
    78   Atom       -0.000376     -0.006385      0.000708
 --------------------------------------------------------


 ---------------------------------------------------------------------------------
              Anisotropic Spin Dipole Couplings in Principal Axis System
 ---------------------------------------------------------------------------------

       Atom             a.u.   MegaHertz   Gauss  10(-4) cm-1        Axes

              Baa    -2.9253   -50.646   -18.072   -16.894  0.7629 -0.6386 -0.1012
     1 Fe(57) Bbb     1.2973    22.460     8.014     7.492  0.3910  0.3310  0.8588
              Bcc     1.6280    28.186    10.057     9.402  0.5149  0.6947 -0.5022
 
              Baa    -0.0185    -0.712    -0.254    -0.237 -0.3303  0.4670  0.8203
     2 N(14)  Bbb     0.0075     0.290     0.103     0.097 -0.3914  0.7230 -0.5692
              Bcc     0.0109     0.422     0.151     0.141  0.8589  0.5091  0.0560
 
              Baa    -0.0182    -0.701    -0.250    -0.234  0.5064  0.7601 -0.4072
     3 N(14)  Bbb    -0.0079    -0.306    -0.109    -0.102  0.7621 -0.6155 -0.2011
              Bcc     0.0261     1.007     0.359     0.336  0.4035  0.2085  0.8909
 
              Baa    -0.0079    -0.304    -0.109    -0.101 -0.4566  0.7676 -0.4498
     4 N(14)  Bbb     0.0002     0.008     0.003     0.003 -0.4651  0.2251  0.8562
              Bcc     0.0077     0.297     0.106     0.099  0.7584  0.6002  0.2543
 
              Baa    -0.0265    -1.024    -0.365    -0.342  0.3775  0.8034  0.4605
     5 N(14)  Bbb    -0.0080    -0.309    -0.110    -0.103  0.8337 -0.5113  0.2087
              Bcc     0.0346     1.333     0.476     0.445 -0.4031 -0.3051  0.8628
 
              Baa    -0.0073    -0.976    -0.348    -0.326  0.8705  0.4889  0.0569
     6 C(13)  Bbb     0.0015     0.195     0.070     0.065 -0.1471  0.1481  0.9780
              Bcc     0.0058     0.781     0.279     0.261 -0.4697  0.8597 -0.2008
 
              Baa    -0.0015    -0.204    -0.073    -0.068  0.8537  0.2235  0.4703
     7 C(13)  Bbb    -0.0010    -0.134    -0.048    -0.045 -0.4040 -0.2855  0.8691
              Bcc     0.0025     0.338     0.121     0.113 -0.3285  0.9319  0.1535
 
              Baa    -0.0021    -0.280    -0.100    -0.094  0.4704  0.8776 -0.0923
     8 C(13)  Bbb     0.0001     0.013     0.005     0.004  0.2393 -0.0262  0.9706
              Bcc     0.0020     0.268     0.095     0.089  0.8494 -0.4787 -0.2223
 
              Baa    -0.0066    -0.880    -0.314    -0.293  0.5623  0.8259 -0.0426
     9 C(13)  Bbb     0.0005     0.068     0.024     0.023 -0.0669  0.0968  0.9931
              Bcc     0.0060     0.811     0.290     0.271  0.8242 -0.5555  0.1097
 
              Baa    -0.0083    -1.117    -0.398    -0.372 -0.3259  0.9409  0.0916
    10 C(13)  Bbb     0.0019     0.255     0.091     0.085 -0.1599 -0.1504  0.9756
              Bcc     0.0064     0.861     0.307     0.287  0.9318  0.3033  0.1994
 
              Baa    -0.0095    -1.281    -0.457    -0.427 -0.3657  0.9232  0.1180
    11 C(13)  Bbb    -0.0053    -0.709    -0.253    -0.236  0.9302  0.3667  0.0137
              Bcc     0.0148     1.990     0.710     0.664  0.0306 -0.1148  0.9929
 
              Baa    -0.0100    -1.346    -0.480    -0.449  0.9265 -0.3758  0.0214
    12 C(13)  Bbb    -0.0058    -0.776    -0.277    -0.259  0.3725  0.9236  0.0907
              Bcc     0.0158     2.122     0.757     0.708 -0.0538 -0.0761  0.9956
 
              Baa    -0.0081    -1.087    -0.388    -0.363  0.7896 -0.5970  0.1415
    13 C(13)  Bbb     0.0034     0.457     0.163     0.152 -0.4679 -0.4367  0.7683
              Bcc     0.0047     0.630     0.225     0.210  0.3969  0.6729  0.6242
 
              Baa    -0.0067    -0.899    -0.321    -0.300  0.8719  0.4802  0.0957
    14 C(13)  Bbb     0.0007     0.097     0.035     0.032 -0.0589 -0.0911  0.9941
              Bcc     0.0060     0.802     0.286     0.267 -0.4860  0.8724  0.0511
 
              Baa    -0.0018    -0.237    -0.085    -0.079  0.4582  0.0546  0.8872
    15 C(13)  Bbb    -0.0011    -0.144    -0.052    -0.048  0.8244  0.3471 -0.4472
              Bcc     0.0028     0.381     0.136     0.127 -0.3323  0.9362  0.1140
 
              Baa    -0.0022    -0.295    -0.105    -0.098  0.4743  0.8624 -0.1769
    16 C(13)  Bbb    -0.0002    -0.031    -0.011    -0.011  0.2929  0.0350  0.9555
              Bcc     0.0024     0.326     0.116     0.109  0.8302 -0.5050 -0.2360
 
              Baa    -0.0062    -0.826    -0.295    -0.276  0.5437  0.8225  0.1673
    17 C(13)  Bbb    -0.0010    -0.133    -0.047    -0.044 -0.1324 -0.1129  0.9848
              Bcc     0.0071     0.959     0.342     0.320  0.8288 -0.5575  0.0475
 
              Baa    -0.0083    -1.119    -0.399    -0.373 -0.3082  0.9465 -0.0954
    18 C(13)  Bbb     0.0003     0.038     0.013     0.013 -0.4100 -0.0417  0.9112
              Bcc     0.0081     1.081     0.386     0.361  0.8584  0.3200  0.4009
 
              Baa    -0.0103    -1.382    -0.493    -0.461 -0.3231  0.9300 -0.1753
    19 C(13)  Bbb    -0.0060    -0.810    -0.289    -0.270  0.9431  0.3011 -0.1410
              Bcc     0.0163     2.192     0.782     0.731  0.0783  0.2109  0.9744
 
              Baa    -0.0095    -1.271    -0.453    -0.424  0.9431 -0.3149 -0.1066
    20 C(13)  Bbb    -0.0054    -0.725    -0.259    -0.242  0.2644  0.9049 -0.3335
              Bcc     0.0149     1.996     0.712     0.666  0.2015  0.2863  0.9367
 
              Baa    -0.0094    -1.261    -0.450    -0.420  0.7755 -0.5763  0.2579
    21 C(13)  Bbb    -0.0024    -0.326    -0.116    -0.109 -0.5435 -0.4015  0.7371
              Bcc     0.0118     1.586     0.566     0.529  0.3213  0.7118  0.6246
 
              Baa    -0.0088    -1.180    -0.421    -0.394 -0.0692  0.0672  0.9953
    22 C(13)  Bbb    -0.0011    -0.145    -0.052    -0.048  0.9971 -0.0280  0.0712
              Bcc     0.0099     1.325     0.473     0.442  0.0327  0.9973 -0.0650
 
              Baa    -0.0016    -0.875    -0.312    -0.292 -0.0096  0.0331  0.9994
    23 H(1)   Bbb    -0.0012    -0.619    -0.221    -0.207  0.9997 -0.0241  0.0104
              Bcc     0.0028     1.494     0.533     0.498  0.0245  0.9992 -0.0328
 
              Baa    -0.0097    -1.298    -0.463    -0.433 -0.0112  0.0206  0.9997
    24 C(13)  Bbb    -0.0005    -0.062    -0.022    -0.021  0.1146  0.9932 -0.0191
              Bcc     0.0101     1.360     0.485     0.454  0.9933 -0.1144  0.0135
 
              Baa    -0.0016    -0.861    -0.307    -0.287 -0.0042 -0.0591  0.9982
    25 H(1)   Bbb    -0.0010    -0.554    -0.198    -0.185  0.1185  0.9912  0.0592
              Bcc     0.0027     1.415     0.505     0.472  0.9929 -0.1186 -0.0028
 
              Baa    -0.0107    -1.430    -0.510    -0.477 -0.0973 -0.0430  0.9943
    26 C(13)  Bbb    -0.0001    -0.015    -0.005    -0.005  0.9945 -0.0441  0.0955
              Bcc     0.0108     1.445     0.516     0.482  0.0397  0.9981  0.0471
 
              Baa    -0.0016    -0.837    -0.299    -0.279 -0.1056 -0.0502  0.9931
    27 H(1)   Bbb    -0.0010    -0.548    -0.196    -0.183  0.9939 -0.0360  0.1039
              Bcc     0.0026     1.386     0.494     0.462  0.0305  0.9981  0.0537
 
              Baa    -0.0097    -1.299    -0.463    -0.433 -0.0598  0.0045  0.9982
    28 C(13)  Bbb    -0.0006    -0.080    -0.029    -0.027  0.1226  0.9925  0.0029
              Bcc     0.0103     1.379     0.492     0.460  0.9906 -0.1226  0.0599
 
              Baa    -0.0016    -0.870    -0.310    -0.290 -0.0867  0.0677  0.9939
    29 H(1)   Bbb    -0.0011    -0.572    -0.204    -0.191  0.1490  0.9873 -0.0542
              Bcc     0.0027     1.441     0.514     0.481  0.9850 -0.1434  0.0956
 
              Baa    -0.0007    -0.096    -0.034    -0.032  0.5605  0.8270  0.0447
    30 C(13)  Bbb    -0.0006    -0.080    -0.029    -0.027  0.0208 -0.0680  0.9975
              Bcc     0.0013     0.177     0.063     0.059  0.8279 -0.5581 -0.0553
 
              Baa    -0.0007    -0.374    -0.133    -0.125 -0.1095 -0.5354  0.8375
    31 H(1)   Bbb    -0.0007    -0.365    -0.130    -0.122  0.4698  0.7146  0.5183
              Bcc     0.0014     0.739     0.264     0.247  0.8760 -0.4502 -0.1733
 
              Baa    -0.0005    -0.290    -0.103    -0.097  0.6458  0.7619  0.0494
    32 H(1)   Bbb    -0.0005    -0.272    -0.097    -0.091 -0.0017 -0.0633  0.9980
              Bcc     0.0011     0.562     0.201     0.187  0.7635 -0.6446 -0.0396
 
              Baa    -0.0007    -0.361    -0.129    -0.120  0.0073  0.2426  0.9701
    33 H(1)   Bbb    -0.0007    -0.353    -0.126    -0.118  0.4683  0.8564 -0.2176
              Bcc     0.0013     0.714     0.255     0.238  0.8835 -0.4559  0.1074
 
              Baa    -0.0007    -0.089    -0.032    -0.030  0.8172  0.4372 -0.3756
    34 C(13)  Bbb    -0.0006    -0.083    -0.029    -0.028  0.3630  0.1157  0.9246
              Bcc     0.0013     0.172     0.061     0.057 -0.4477  0.8919  0.0641
 
              Baa    -0.0007    -0.384    -0.137    -0.128  0.6523  0.0898  0.7526
    35 H(1)   Bbb    -0.0007    -0.364    -0.130    -0.121  0.6876  0.3478 -0.6374
              Bcc     0.0014     0.747     0.267     0.249 -0.3190  0.9333  0.1651
 
              Baa    -0.0007    -0.371    -0.132    -0.124 -0.5561 -0.0985  0.8253
    36 H(1)   Bbb    -0.0006    -0.347    -0.124    -0.116  0.7638  0.3310  0.5542
              Bcc     0.0013     0.718     0.256     0.239 -0.3277  0.9385 -0.1088
 
              Baa    -0.0005    -0.288    -0.103    -0.096  0.8391  0.5142 -0.1774
    37 H(1)   Bbb    -0.0005    -0.270    -0.096    -0.090  0.1725  0.0577  0.9833
              Bcc     0.0010     0.557     0.199     0.186 -0.5159  0.8557  0.0403
 
              Baa    -0.0009    -0.122    -0.043    -0.041 -0.2641  0.9635 -0.0443
    38 C(13)  Bbb    -0.0006    -0.083    -0.030    -0.028 -0.0450  0.0336  0.9984
              Bcc     0.0015     0.205     0.073     0.068  0.9634  0.2657  0.0344
 
              Baa    -0.0009    -0.475    -0.169    -0.158  0.1691 -0.3356  0.9267
    39 H(1)   Bbb    -0.0007    -0.367    -0.131    -0.122 -0.1040  0.9289  0.3554
              Bcc     0.0016     0.841     0.300     0.281  0.9801  0.1565 -0.1222
 
              Baa    -0.0008    -0.428    -0.153    -0.143 -0.3060  0.4807  0.8218
    40 H(1)   Bbb    -0.0007    -0.362    -0.129    -0.121 -0.0665  0.8503 -0.5221
              Bcc     0.0015     0.789     0.282     0.263  0.9497  0.2144  0.2282
 
              Baa    -0.0008    -0.426    -0.152    -0.142  0.2756 -0.4703  0.8384
    41 H(1)   Bbb    -0.0006    -0.330    -0.118    -0.110 -0.3627  0.7568  0.5438
              Bcc     0.0014     0.756     0.270     0.252  0.8902  0.4539 -0.0381
 
              Baa    -0.0050    -0.670    -0.239    -0.224 -0.5529  0.0565  0.8313
    42 C(13)  Bbb     0.0012     0.167     0.059     0.056  0.6909 -0.5266  0.4953
              Bcc     0.0038     0.503     0.180     0.168  0.4658  0.8482  0.2521
 
              Baa    -0.0009    -0.462    -0.165    -0.154 -0.3052  0.0772  0.9491
    43 H(1)   Bbb    -0.0008    -0.418    -0.149    -0.139  0.8770 -0.3657  0.3118
              Bcc     0.0017     0.880     0.314     0.294  0.3712  0.9275  0.0439
 
              Baa    -0.0051    -0.689    -0.246    -0.230  0.6945 -0.4440  0.5661
    44 C(13)  Bbb    -0.0036    -0.483    -0.172    -0.161  0.2972  0.8936  0.3363
              Bcc     0.0087     1.172     0.418     0.391 -0.6552 -0.0654  0.7526
 
              Baa    -0.0006    -0.339    -0.121    -0.113 -0.3907  0.0763  0.9173
    45 H(1)   Bbb    -0.0001    -0.033    -0.012    -0.011 -0.3742  0.8973 -0.2341
              Bcc     0.0007     0.373     0.133     0.124  0.8410  0.4347  0.3220
 
              Baa    -0.0009    -0.458    -0.163    -0.153  0.7000 -0.2853  0.6547
    46 H(1)   Bbb    -0.0004    -0.199    -0.071    -0.066 -0.6415  0.1518  0.7520
              Bcc     0.0012     0.657     0.235     0.219  0.3139  0.9463  0.0768
 
              Baa    -0.0006    -0.086    -0.031    -0.029  0.8951  0.4245 -0.1366
    47 C(13)  Bbb    -0.0006    -0.075    -0.027    -0.025  0.1085  0.0899  0.9900
              Bcc     0.0012     0.162     0.058     0.054 -0.4326  0.9010 -0.0345
 
              Baa    -0.0007    -0.389    -0.139    -0.130  0.7603  0.1189 -0.6386
    48 H(1)   Bbb    -0.0007    -0.370    -0.132    -0.123  0.5949  0.2672  0.7581
              Bcc     0.0014     0.759     0.271     0.253 -0.2608  0.9563 -0.1324
 
              Baa    -0.0006    -0.333    -0.119    -0.111  0.3813  0.0567  0.9227
    49 H(1)   Bbb    -0.0006    -0.317    -0.113    -0.106  0.8419  0.3909 -0.3720
              Bcc     0.0012     0.650     0.232     0.217 -0.3818  0.9187  0.1013
 
              Baa    -0.0005    -0.291    -0.104    -0.097  0.6364  0.4531  0.6243
    50 H(1)   Bbb    -0.0005    -0.274    -0.098    -0.091 -0.5888 -0.2376  0.7726
              Bcc     0.0011     0.565     0.202     0.188 -0.4984  0.8592 -0.1155
 
              Baa    -0.0008    -0.101    -0.036    -0.034  0.5666  0.8176  0.1024
    51 C(13)  Bbb    -0.0007    -0.091    -0.032    -0.030 -0.1292 -0.0346  0.9910
              Bcc     0.0014     0.192     0.069     0.064  0.8138 -0.5747  0.0861
 
              Baa    -0.0007    -0.389    -0.139    -0.130 -0.0387  0.3688  0.9287
    52 H(1)   Bbb    -0.0007    -0.369    -0.132    -0.123  0.4651  0.8293 -0.3099
              Bcc     0.0014     0.758     0.270     0.253  0.8844 -0.4199  0.2036
 
              Baa    -0.0007    -0.089    -0.032    -0.030  0.0304  0.3085  0.9507
    53 C(13)  Bbb    -0.0004    -0.053    -0.019    -0.018  0.7771  0.5909 -0.2166
              Bcc     0.0011     0.142     0.051     0.047 -0.6286  0.7454 -0.2218
 
              Baa    -0.0004    -0.238    -0.085    -0.079 -0.1847 -0.2751  0.9435
    54 H(1)   Bbb    -0.0004    -0.219    -0.078    -0.073  0.6927  0.6446  0.3235
              Bcc     0.0009     0.457     0.163     0.152 -0.6972  0.7133  0.0716
 
              Baa    -0.0003    -0.180    -0.064    -0.060  0.1047  0.2317  0.9671
    55 H(1)   Bbb    -0.0003    -0.163    -0.058    -0.054  0.5486  0.7977 -0.2504
              Bcc     0.0006     0.342     0.122     0.114  0.8295 -0.5568  0.0436
 
              Baa    -0.0010    -0.133    -0.048    -0.044 -0.2435  0.9331 -0.2647
    56 C(13)  Bbb    -0.0006    -0.087    -0.031    -0.029 -0.1476  0.2341  0.9609
              Bcc     0.0016     0.220     0.079     0.073  0.9586  0.2730  0.0808
 
              Baa    -0.0009    -0.463    -0.165    -0.154 -0.2772  0.5152  0.8110
    57 H(1)   Bbb    -0.0007    -0.369    -0.132    -0.123 -0.0487  0.8354 -0.5474
              Bcc     0.0016     0.832     0.297     0.277  0.9596  0.1913  0.2065
 
              Baa    -0.0009    -0.487    -0.174    -0.162  0.2025 -0.3800  0.9026
    58 H(1)   Bbb    -0.0007    -0.386    -0.138    -0.129 -0.0714  0.9135  0.4006
              Bcc     0.0016     0.873     0.311     0.291  0.9767  0.1455 -0.1579
 
              Baa    -0.0008    -0.407    -0.145    -0.136 -0.4387  0.8932 -0.0982
    59 H(1)   Bbb    -0.0007    -0.388    -0.138    -0.129 -0.0249  0.0972  0.9950
              Bcc     0.0015     0.794     0.283     0.265  0.8983  0.4390 -0.0204
 
              Baa    -0.0009    -0.115    -0.041    -0.038  0.9077 -0.4080 -0.0986
    60 C(13)  Bbb    -0.0008    -0.104    -0.037    -0.035  0.0485 -0.1314  0.9901
              Bcc     0.0016     0.219     0.078     0.073  0.4169  0.9035  0.0995
 
              Baa    -0.0008    -0.439    -0.156    -0.146  0.3755 -0.2276  0.8985
    61 H(1)   Bbb    -0.0007    -0.364    -0.130    -0.121  0.8597 -0.2768 -0.4294
              Bcc     0.0015     0.802     0.286     0.268  0.3464  0.9336  0.0917
 
              Baa    -0.0008    -0.406    -0.145    -0.135  0.8020 -0.5396  0.2562
    62 H(1)   Bbb    -0.0007    -0.379    -0.135    -0.127 -0.1595  0.2199  0.9624
              Bcc     0.0015     0.785     0.280     0.262  0.5756  0.8127 -0.0903
 
              Baa    -0.0009    -0.485    -0.173    -0.162 -0.3428  0.3724  0.8625
    63 H(1)   Bbb    -0.0007    -0.397    -0.142    -0.132  0.8790 -0.1966  0.4343
              Bcc     0.0017     0.883     0.315     0.294  0.3313  0.9070 -0.2599
 
              Baa    -0.0174     1.260     0.450     0.420 -0.5499  0.8348  0.0279
    64 O(17)  Bbb     0.0022    -0.157    -0.056    -0.052 -0.1605 -0.1384  0.9773
              Bcc     0.0152    -1.103    -0.393    -0.368  0.8197  0.5329  0.2101
 
              Baa    -0.0083    -4.433    -1.582    -1.479 -0.4429  0.7380 -0.5091
    65 H(1)   Bbb    -0.0076    -4.079    -1.456    -1.361  0.8267  0.5560  0.0867
              Bcc     0.0160     8.513     3.038     2.840 -0.3470  0.3824  0.8563
 
              Baa    -0.0066    -3.540    -1.263    -1.181 -0.4950  0.8602  0.1221
    66 H(1)   Bbb    -0.0053    -2.825    -1.008    -0.942  0.8677  0.4824  0.1198
              Bcc     0.0119     6.365     2.271     2.123 -0.0441 -0.1652  0.9853
 
              Baa    -0.0007    -0.097    -0.035    -0.032  0.8604 -0.3706  0.3499
    67 C(13)  Bbb    -0.0006    -0.082    -0.029    -0.027  0.3533  0.9285  0.1146
              Bcc     0.0013     0.179     0.064     0.060 -0.3673  0.0251  0.9298
 
              Baa    -0.0007    -0.400    -0.143    -0.133 -0.6087  0.6992 -0.3750
    68 H(1)   Bbb    -0.0007    -0.373    -0.133    -0.124  0.6133  0.7145  0.3368
              Bcc     0.0014     0.773     0.276     0.258 -0.5034  0.0250  0.8637
 
              Baa    -0.0006    -0.330    -0.118    -0.110 -0.1191  0.9798 -0.1604
    69 H(1)   Bbb    -0.0006    -0.313    -0.112    -0.104  0.9522  0.1586  0.2612
              Bcc     0.0012     0.643     0.229     0.214 -0.2814  0.1216  0.9518
 
              Baa    -0.0006    -0.347    -0.124    -0.116 -0.3805  0.9241  0.0338
    70 H(1)   Bbb    -0.0006    -0.311    -0.111    -0.104  0.8732  0.3470  0.3423
              Bcc     0.0012     0.657     0.235     0.219 -0.3046 -0.1598  0.9390
 
              Baa    -0.0050    -0.193    -0.069    -0.064  0.8549 -0.3057 -0.4192
    71 N(14)  Bbb    -0.0012    -0.047    -0.017    -0.016  0.4937  0.2305  0.8385
              Bcc     0.0062     0.240     0.085     0.080  0.1597  0.9238 -0.3480
 
              Baa    -0.0014    -0.731    -0.261    -0.244  0.8316 -0.5187 -0.1982
    72 H(1)   Bbb    -0.0010    -0.538    -0.192    -0.179  0.5189  0.8530 -0.0554
              Bcc     0.0024     1.269     0.453     0.423  0.1978 -0.0568  0.9786
 
              Baa    -0.0022    -0.294    -0.105    -0.098  0.7144 -0.6210  0.3226
    73 C(13)  Bbb    -0.0005    -0.071    -0.025    -0.024  0.6094  0.7787  0.1494
              Bcc     0.0027     0.365     0.130     0.122 -0.3440  0.0899  0.9347
 
              Baa    -0.0125    -1.672    -0.596    -0.558  0.9845  0.1547 -0.0824
    74 C(13)  Bbb     0.0006     0.083     0.030     0.028 -0.0355  0.6362  0.7707
              Bcc     0.0118     1.589     0.567     0.530 -0.1716  0.7559 -0.6318
 
              Baa    -0.0044    -2.345    -0.837    -0.782 -0.1102  0.9694  0.2192
    75 H(1)   Bbb    -0.0042    -2.219    -0.792    -0.740  0.8029  0.2168 -0.5553
              Bcc     0.0086     4.564     1.629     1.522  0.5859 -0.1148  0.8022
 
              Baa    -0.0145    -0.558    -0.199    -0.186 -0.0212 -0.2701  0.9626
    76 N(14)  Bbb     0.0030     0.114     0.041     0.038 -0.3404  0.9072  0.2471
              Bcc     0.0115     0.444     0.158     0.148  0.9400  0.3224  0.1112
 
              Baa    -0.0056    -0.747    -0.266    -0.249  0.8890  0.1301  0.4390
    77 C(13)  Bbb    -0.0043    -0.576    -0.205    -0.192 -0.0626  0.9843 -0.1649
              Bcc     0.0099     1.323     0.472     0.441 -0.4536  0.1191  0.8832
 
              Baa    -0.0045    -2.402    -0.857    -0.801 -0.5137  0.6365 -0.5754
    78 H(1)   Bbb    -0.0040    -2.141    -0.764    -0.714  0.4808  0.7689  0.4214
              Bcc     0.0085     4.543     1.621     1.516  0.7106 -0.0602 -0.7010
 

 ---------------------------------------------------------------------------------

 Unable to Open any file for archive entry.
 1\1\GINC-BGN1022\SP\UAPFD\Gen\C34H36Fe1N6O1(1+,2)\BEBJONES\10-Jul-2024
 \0\\# apfd/gen scf=maxcycle=999 geom=check\\1aen_III_D\\1,2\Fe,0,-6.13
 65928737,57.153879087,111.84806504\N,0,-6.9462211747,56.2338198077,113
 .4335551197\N,0,-7.082135336,58.8533898874,112.37246727\N,0,-5.2897798
 495,58.1186298262,110.3131566691\N,0,-5.1362875592,55.4924532559,111.3
 786724198\C,0,-6.7445951599,54.9395497183,113.8005991971\C,0,-7.332927
 6704,54.677889762,115.0939501988\C,0,-7.8867286025,55.850753638,115.50
 74657126\C,0,-7.6245614818,56.8136803669,114.4622901159\C,0,-7.7754620
 297,59.0768757025,113.5239344307\C,0,-8.2889280747,60.4219780163,113.5
 623562688\C,0,-7.8501416934,61.0330759273,112.4176082585\C,0,-7.038784
 1217,60.0475619891,111.7276010254\C,0,-5.4597876058,59.4212009704,109.
 9603692164\C,0,-4.6553135438,59.7530509577,108.8114205934\C,0,-3.96975
 51724,58.614521473,108.4815461293\C,0,-4.3906356544,57.6058625621,109.
 4355469923\C,0,-4.377936184,55.2993262961,110.268717788\C,0,-4.1013713
 079,53.8925146038,110.0725060202\C,0,-4.7352619907,53.2364602064,111.0
 806337291\C,0,-5.3672779394,54.2540154202,111.8913034314\C,0,-6.081660
 077,53.9884978982,113.0440012225\H,0,-6.102375946,52.9684051424,113.39
 6672223\C,0,-8.0136657198,58.137823767,114.5140772352\H,0,-8.56117847,
 58.4599468062,115.3867281464\C,0,-6.3013982888,60.3178561767,110.59263
 51447\H,0,-6.3653295667,61.3127071924,110.179637569\C,0,-3.962757268,5
 6.2911786757,109.3995734042\H,0,-3.303784704,56.0021631742,108.5946990
 84\C,0,-8.6144843509,56.1585565156,116.7715231917\H,0,-8.0982214553,56
 .9377987831,117.3331397643\H,0,-8.6874193426,55.2750305521,117.4009121
 525\H,0,-9.6238776043,56.5107552907,116.5572376937\C,0,-7.2938175488,5
 3.3572652432,115.7836794019\H,0,-6.263411335,53.0382852601,115.9419954
 376\H,0,-7.7932386707,52.596296393,115.1834445376\H,0,-7.7885840231,53
 .4097887339,116.7504744381\C,0,-9.0774696615,61.0098619675,114.6805906
 003\H,0,-8.7001723276,60.6642939415,115.6420591166\H,0,-10.1288988427,
 60.7256694102,114.6097434537\H,0,-9.0129160596,62.0956183585,114.65170
 03545\C,0,-8.0738290847,62.3878060248,111.9656405006\H,0,-7.2571369185
 ,62.8428425036,111.4176290843\C,0,-9.1861240119,63.089955607,112.15789
 7922\H,0,-10.047932005,62.6752879971,112.651195204\H,0,-9.2820203138,6
 4.1022470424,111.8016353259\C,0,-4.5535429178,61.1056290192,108.197122
 8723\H,0,-4.56898881,61.8796934484,108.9629896839\H,0,-5.3876151573,61
 .2873586293,107.5172110938\H,0,-3.6262097509,61.1915948027,107.6343785
 145\C,0,-3.0061876288,58.3977836157,107.4250044725\H,0,-2.2092211679,5
 7.6999978268,107.6553981962\C,0,-3.0338802429,58.9707188959,106.225944
 9344\H,0,-3.8266246043,59.6338624736,105.9264044659\H,0,-2.2727286075,
 58.7736702368,105.4891366196\C,0,-3.2885981064,53.3434944484,108.95037
 04039\H,0,-2.2798838013,53.7565640427,108.9717743751\H,0,-3.7367059538
 ,53.5980603959,107.9894145147\H,0,-3.2157834752,52.2607995151,109.0186
 565201\C,0,-4.8008887716,51.7748835293,111.364388643\H,0,-4.3375589858
 ,51.5497917264,112.3258842948\H,0,-4.2832093076,51.2071474663,110.5947
 892587\H,0,-5.8373002681,51.438607649,111.4020744938\O,0,-4.445,57.667
 ,113.279\H,0,-4.691,57.123,114.027\H,0,-3.793,58.271,113.26\C,0,-9.445
 5934444,55.2548176618,107.7702375286\H,0,-8.6264350116,55.078410458,10
 7.080192975\H,0,-10.1524048543,55.9424713507,107.306187166\H,0,-9.9583
 027206,54.3100320733,107.9518002283\N,0,-9.7278068325,56.1853839432,11
 0.0778422744\H,0,-10.7322903835,56.1188516874,110.0915132977\C,0,-8.91
 51688742,55.818875425,109.037214233\C,0,-8.93707884,56.6519453117,111.
 0703257836\H,0,-9.3001759336,57.0125021229,112.0102824214\N,0,-7.67421
 45423,56.6022330706,110.7219407146\C,0,-7.6443776653,56.0870959872,109
 .4594135385\H,0,-6.7175982289,55.9452026573,108.9428243679\\Version=ES
 64L-G16RevC.02\State=2-A\HF=-2983.2072429\S2=0.796483\S2-1=0.\S2A=0.75
 0787\RMSD=2.840e-09\Dipole=-1.4547643,-0.7862005,-0.1995043\Quadrupole
 =-2.0377717,0.742546,1.2952258,-1.9428711,-5.3350086,0.4707776\PG=C01 
 [X(C34H36Fe1N6O1)]\\@
 The archive entry for this job was punched.


 When cryptography is outlawed, bayl bhgynjf jvyy unir cevinpl.
 Job cpu time:       0 days  4 hours 29 minutes 23.1 seconds.
 Elapsed time:       0 days  0 hours  4 minutes 34.2 seconds.
 File lengths (MBytes):  RWF=    430 Int=      0 D2E=      0 Chk=    155 Scr=      1
 Normal termination of Gaussian 16 at Wed Jul 10 23:43:42 2024.
