 Entering Gaussian System, Link 0=g16
 Input=1arp12re.com
 Output=1arp12re.log
 Initial command:
 /sw/chem/gaussian/g16_C02/a100/g16/l1.exe "/local/bebjones_7928605/Gau-680113.inp" -scrdir="/local/bebjones_7928605/"
 Entering Link 1 = /sw/chem/gaussian/g16_C02/a100/g16/l1.exe PID=    680114.
  
 Copyright (c) 1988-2021, Gaussian, Inc.  All Rights Reserved.
  
 This is part of the Gaussian(R) 16 program.  It is based on
 the Gaussian(R) 09 system (copyright 2009, Gaussian, Inc.),
 the Gaussian(R) 03 system (copyright 2003, Gaussian, Inc.),
 the Gaussian(R) 98 system (copyright 1998, Gaussian, Inc.),
 the Gaussian(R) 94 system (copyright 1995, Gaussian, Inc.),
 the Gaussian 92(TM) system (copyright 1992, Gaussian, Inc.),
 the Gaussian 90(TM) system (copyright 1990, Gaussian, Inc.),
 the Gaussian 88(TM) system (copyright 1988, Gaussian, Inc.),
 the Gaussian 86(TM) system (copyright 1986, Carnegie Mellon
 University), and the Gaussian 82(TM) system (copyright 1983,
 Carnegie Mellon University). Gaussian is a federally registered
 trademark of Gaussian, Inc.
  
 This software contains proprietary and confidential information,
 including trade secrets, belonging to Gaussian, Inc.
  
 This software is provided under written license and may be
 used, copied, transmitted, or stored only in accord with that
 written license.
  
 The following legend is applicable only to US Government
 contracts under FAR:
  
                    RESTRICTED RIGHTS LEGEND
  
 Use, reproduction and disclosure by the US Government is
 subject to restrictions as set forth in subparagraphs (a)
 and (c) of the Commercial Computer Software - Restricted
 Rights clause in FAR 52.227-19.
  
 Gaussian, Inc.
 340 Quinnipiac St., Bldg. 40, Wallingford CT 06492
  
  
 ---------------------------------------------------------------
 Warning -- This program may not be used in any manner that
 competes with the business of Gaussian, Inc. or will provide
 assistance to any competitor of Gaussian, Inc.  The licensee
 of this program is prohibited from giving any competitor of
 Gaussian, Inc. access to this program.  By using this program,
 the user acknowledges that Gaussian, Inc. is engaged in the
 business of creating and licensing software in the field of
 computational chemistry and represents and warrants to the
 licensee that it is not a competitor of Gaussian, Inc. and that
 it will not use this program in any manner prohibited above.
 ---------------------------------------------------------------
  

 Cite this work as:
 Gaussian 16, Revision C.02,
 M. J. Frisch, G. W. Trucks, H. B. Schlegel, G. E. Scuseria, 
 M. A. Robb, J. R. Cheeseman, G. Scalmani, V. Barone, 
 G. A. Petersson, H. Nakatsuji, X. Li, M. Caricato, A. V. Marenich, 
 J. Bloino, B. G. Janesko, R. Gomperts, B. Mennucci, H. P. Hratchian, 
 J. V. Ortiz, A. F. Izmaylov, J. L. Sonnenberg, D. Williams-Young, 
 F. Ding, F. Lipparini, F. Egidi, J. Goings, B. Peng, A. Petrone, 
 T. Henderson, D. Ranasinghe, V. G. Zakrzewski, J. Gao, N. Rega, 
 G. Zheng, W. Liang, M. Hada, M. Ehara, K. Toyota, R. Fukuda, 
 J. Hasegawa, M. Ishida, T. Nakajima, Y. Honda, O. Kitao, H. Nakai, 
 T. Vreven, K. Throssell, J. A. Montgomery, Jr., J. E. Peralta, 
 F. Ogliaro, M. J. Bearpark, J. J. Heyd, E. N. Brothers, K. N. Kudin, 
 V. N. Staroverov, T. A. Keith, R. Kobayashi, J. Normand, 
 K. Raghavachari, A. P. Rendell, J. C. Burant, S. S. Iyengar, 
 J. Tomasi, M. Cossi, J. M. Millam, M. Klene, C. Adamo, R. Cammi, 
 J. W. Ochterski, R. L. Martin, K. Morokuma, O. Farkas, 
 J. B. Foresman, and D. J. Fox, Gaussian, Inc., Wallingford CT, 2019.
 
 ******************************************
 Gaussian 16:  ES64L-G16RevC.02  7-Dec-2021
                11-Jul-2024 
 ******************************************
 %mem=16GB
 %CPU=0-71
 SetSPE:  set environment variable "OMP_PROC_BIND" = "true"
 SetSPE:  set environment variable "OMP_PLACES" = "{0},{1},{2},{3},{4},{5},{6},{7},{8},{9},{10},{11},{12},{13},{14},{15},{16},{17},{18},{19},{20},{21},{22},{23},{24},{25},{26},{27},{28},{29},{30},{31},{32},{33},{34},{35},{36},{37},{38},{39},{40},{41},{42},{43},{44},{45},{46},{47},{48},{49},{50},{51},{52},{53},{54},{55},{56},{57},{58},{59},{60},{61},{62},{63},{64},{65},{66},{67},{68},{69},{70},{71}"
 Will use up to   72 processors via shared memory.
 %gpucpu=0,1,2,3=0,1,2,3
 Will use    4 GPUs:
 Thread  CPU   GPU
      0    0     0
      1    1     1
      2    2     2
      3    3     3
      4    4    -1
      5    5    -1
      6    6    -1
      7    7    -1
      8    8    -1
      9    9    -1
     10   10    -1
     11   11    -1
     12   12    -1
     13   13    -1
     14   14    -1
     15   15    -1
     16   16    -1
     17   17    -1
     18   18    -1
     19   19    -1
     20   20    -1
     21   21    -1
     22   22    -1
     23   23    -1
     24   24    -1
     25   25    -1
     26   26    -1
     27   27    -1
     28   28    -1
     29   29    -1
     30   30    -1
     31   31    -1
     32   32    -1
     33   33    -1
     34   34    -1
     35   35    -1
     36   36    -1
     37   37    -1
     38   38    -1
     39   39    -1
     40   40    -1
     41   41    -1
     42   42    -1
     43   43    -1
     44   44    -1
     45   45    -1
     46   46    -1
     47   47    -1
     48   48    -1
     49   49    -1
     50   50    -1
     51   51    -1
     52   52    -1
     53   53    -1
     54   54    -1
     55   55    -1
     56   56    -1
     57   57    -1
     58   58    -1
     59   59    -1
     60   60    -1
     61   61    -1
     62   62    -1
     63   63    -1
     64   64    -1
     65   65    -1
     66   66    -1
     67   67    -1
     68   68    -1
     69   69    -1
     70   70    -1
     71   71    -1
 SetGPE:  set environment variable "OMP_PROC_BIND" = "true"
 SetGPE:  set environment variable "OMP_PLACES" = "{0},{1},{2},{3},{4},{5},{6},{7},{8},{9},{10},{11},{12},{13},{14},{15},{16},{17},{18},{19},{20},{21},{22},{23},{24},{25},{26},{27},{28},{29},{30},{31},{32},{33},{34},{35},{36},{37},{38},{39},{40},{41},{42},{43},{44},{45},{46},{47},{48},{49},{50},{51},{52},{53},{54},{55},{56},{57},{58},{59},{60},{61},{62},{63},{64},{65},{66},{67},{68},{69},{70},{71}"
 %oldchk=1arp_II_S.chk
 %chk=1arp_II_Sre.chk
 Properties for Device   0
 Minimum vector length:                              32
 Maximum vector length:                            1024
 Number of SMPs:                                    108
 Maximum number of threads per SMP:                2048
 Number of ASync Engines:                             5
 Memory:                                           9207742464
 Properties for Device   1
 Minimum vector length:                              32
 Maximum vector length:                            1024
 Number of SMPs:                                    108
 Maximum number of threads per SMP:                2048
 Number of ASync Engines:                             5
 Memory:                                           9207742464
 Properties for Device   2
 Minimum vector length:                              32
 Maximum vector length:                            1024
 Number of SMPs:                                    108
 Maximum number of threads per SMP:                2048
 Number of ASync Engines:                             5
 Memory:                                           9207742464
 Properties for Device   3
 Minimum vector length:                              32
 Maximum vector length:                            1024
 Number of SMPs:                                    108
 Maximum number of threads per SMP:                2048
 Number of ASync Engines:                             5
 Memory:                                           9207742464
   8286968217 words of memory will be used on each GPU.
 Copying data from "1arp_II_S.chk" to current chk file "1arp_II_Sre.chk"
 IOpt=  2 FromEx=T IUOpen= 4 IOptOp= 5 NList=   0 IFRang= 0 IUIn= 4 IUOut= 2.
 --------------------------------------
 # apfd/gen scf=maxcycle=999 geom=check
 --------------------------------------
 1/29=2,38=1,172=1/1;
 2/12=2,40=1/2;
 3/5=7,11=2,14=-4,25=1,30=1,74=-44/1,2,3;
 4//1;
 5/5=2,7=999,38=5/2;
 6/7=2,8=2,9=2,10=2,28=1/1;
 99/5=1,9=1/99;
 ----------
 1arp_III_D
 ----------
 Structure from the checkpoint file:  "1arp_II_Sre.chk"
 Charge =  1 Multiplicity = 2
 Z-Matrix found in chk file.
 Fe,0,17.7385049022,23.6278123639,30.0320285059
 N,0,16.4523808337,22.2880441592,29.2972206638
 N,0,16.4363968051,25.077681358,29.6981401906
 N,0,18.9413284568,24.8925515782,30.9831127787
 N,0,19.0479499455,22.1583123665,30.3680195414
 C,0,16.6785184858,20.9708902304,29.0548551499
 C,0,15.4728039843,20.3232872502,28.5909293682
 C,0,14.507176705,21.2824544984,28.566625739
 C,0,15.1438214252,22.5103152512,28.9873242031
 C,0,15.1541732127,24.9482926253,29.2627130054
 C,0,14.5377183198,26.2382286872,29.1018911991
 C,0,15.479847188,27.1658221441,29.460185682
 C,0,16.6453352197,26.4090608517,29.8770996991
 C,0,18.7438076883,26.231028929,31.1355145382
 C,0,19.7251382198,26.7953102585,32.0270424696
 C,0,20.5464981277,25.7625628479,32.3973799799
 C,0,20.0441786229,24.5877257683,31.7108704142
 C,0,20.2326740243,22.2464030952,31.0266681201
 C,0,20.9688703507,21.0051248756,30.9271400154
 C,0,20.1792419264,20.1499538483,30.2247947851
 C,0,18.9734569124,20.8824989978,29.9027276445
 C,0,17.875588272,20.3163067305,29.2834410362
 H,0,17.9394253734,19.2765174274,29.0012491721
 C,0,14.5299815777,23.7476777205,28.9612176632
 H,0,13.4920717496,23.7855282877,28.6666530265
 C,0,17.7088976661,26.954859735,30.5687948441
 H,0,17.6941792979,28.0208170539,30.7348915948
 C,0,20.6869963908,23.3632530256,31.7022113973
 H,0,21.61440132,23.2765205399,32.2476820708
 C,0,13.0722447443,21.1685370985,28.1787995361
 H,0,12.8064988384,20.1333882814,27.9787175605
 H,0,12.868544071,21.7535852328,27.2810335997
 H,0,12.4286944352,21.540601034,28.9759870138
 C,0,15.3763929356,18.8774271039,28.2419397397
 H,0,15.6081215886,18.2568705956,29.1081309213
 H,0,16.082869721,18.627376533,27.450256137
 H,0,14.3753913148,18.6272068676,27.8989285497
 C,0,13.1538238326,26.4664669823,28.5988010961
 H,0,12.4285157971,25.9309070219,29.2120293079
 H,0,13.0537787619,26.1102521956,27.5726453809
 H,0,12.9089988556,27.5254455078,28.6158243697
 C,0,15.3429439508,28.6054599755,29.4209734958
 H,0,14.3509456258,28.9850675213,29.6417319529
 C,0,16.305277567,29.4650547109,29.1029542204
 H,0,17.2930884776,29.138518975,28.825342935
 H,0,16.1294103644,30.5280230373,29.0886786332
 C,0,19.7536175452,28.2113234105,32.4867334213
 H,0,18.7432578311,28.5984148424,32.6080824897
 H,0,20.2723548452,28.8443086325,31.7647134105
 H,0,20.2722402111,28.2837105567,33.440740165
 C,0,21.6777460129,25.7615462441,33.2972180818
 H,0,21.8304072753,24.8415245999,33.8501071119
 C,0,22.5224563584,26.7711636122,33.4836938528
 H,0,22.4497526436,27.6901495398,32.9290341881
 H,0,23.337406675,26.7009359483,34.1851601889
 C,0,22.3151928633,20.7769754852,31.5241947429
 H,0,22.2718826111,20.8652286203,32.6102612213
 H,0,23.02889772,21.5133489632,31.1546420148
 H,0,22.6854515923,19.7848844135,31.2774098231
 C,0,20.4325499735,18.7334674017,29.8362234407
 H,0,21.4341228679,18.4258631243,30.1268112299
 H,0,20.3325449471,18.6077455065,28.758098116
 H,0,19.7170267047,18.06871988,30.3216039545
 O,0,16.768,23.1289999999,32.03
 H,0,16.343,22.2869999997,31.8659999998
 H,0,16.6179999999,23.668,32.721
 C,0,21.2870632107,24.5137947238,25.8402997189
 H,0,22.1603822179,24.5104753009,26.4847777554
 H,0,21.2416155624,25.4693289237,25.3180200877
 H,0,21.3982959654,23.72426756,25.0971642792
 N,0,18.8105264624,24.2602853629,26.1092974459
 H,0,18.5914671091,24.3697298698,25.1327877319
 C,0,20.0658499453,24.3005170214,26.6575739046
 C,0,17.930761475,24.0518431849,27.1151732033
 H,0,16.8713537736,23.9752386992,26.9823220013
 N,0,18.5528579477,23.9573185407,28.2651384258
 C,0,19.8813803675,24.1104869972,27.9972009923
 H,0,20.6083298838,24.0731283637,28.7820357017
 Recover connectivity data from disk.
 Stoichiometry    C34H36FeN6O(1+,2)
 Framework group  C1[X(C34H36FeN6O)]
 Deg. of freedom   228
 Full point group                 C1      NOp   1
 Largest Abelian subgroup         C1      NOp   1
 Largest concise Abelian subgroup C1      NOp   1
                         Standard orientation:                         
 ---------------------------------------------------------------------
 Center     Atomic      Atomic             Coordinates (Angstroms)
 Number     Number       Type             X           Y           Z
 ---------------------------------------------------------------------
      1         26           0        0.199406   -0.014878   -0.351410
      2          7           0        2.184106    0.178841   -0.463102
      3          7           0       -0.001842    1.951667   -0.315499
      4          7           0       -1.771284   -0.239638   -0.480932
      5          7           0        0.410055   -2.000102   -0.389829
      6          6           0        3.116381   -0.806649   -0.396422
      7          6           0        4.443100   -0.267682   -0.590575
      8          6           0        4.288774    1.070737   -0.785114
      9          6           0        2.871782    1.336046   -0.676984
     10          6           0        0.978031    2.882316   -0.470988
     11          6           0        0.443856    4.211775   -0.340565
     12          6           0       -0.898477    4.069391   -0.107581
     13          6           0       -1.160164    2.642886   -0.145913
     14          6           0       -2.698836    0.756628   -0.451546
     15          6           0       -4.012174    0.242505   -0.746615
     16          6           0       -3.863215   -1.106966   -0.933933
     17          6           0       -2.452577   -1.383161   -0.739819
     18          6           0       -0.575319   -2.930593   -0.481340
     19          6           0       -0.038425   -4.264289   -0.321139
     20          6           0        1.304759   -4.117982   -0.170905
     21          6           0        1.568344   -2.696627   -0.238290
     22          6           0        2.838331   -2.152088   -0.234590
     23          1           0        3.674343   -2.829088   -0.147267
     24          6           0        2.320384    2.602736   -0.675721
     25          1           0        2.986348    3.438804   -0.827181
     26          6           0       -2.425350    2.095730   -0.232111
     27          1           0       -3.261038    2.776895   -0.190755
     28          6           0       -1.912674   -2.655636   -0.695818
     29          1           0       -2.582521   -3.492486   -0.822816
     30          6           0        5.322889    2.113234   -1.042451
     31          1           0        6.305211    1.662687   -1.161769
     32          1           0        5.369810    2.821553   -0.214295
     33          1           0        5.088162    2.670845   -1.949132
     34          6           0        5.690803   -1.083027   -0.583291
     35          1           0        5.666915   -1.828969   -1.378323
     36          1           0        5.799488   -1.606966    0.366483
     37          1           0        6.565786   -0.454265   -0.729352
     38          6           0        1.246524    5.465212   -0.411092
     39          1           0        1.792698    5.519591   -1.353261
     40          1           0        1.973788    5.502649    0.401053
     41          1           0        0.603330    6.337897   -0.331176
     42          6           0       -1.856423    5.125605    0.136529
     43          1           0       -1.672023    6.053397   -0.394597
     44          6           0       -2.888765    5.055287    0.970466
     45          1           0       -3.086704    4.176586    1.560524
     46          1           0       -3.560518    5.886608    1.107163
     47          6           0       -5.244924    1.065973   -0.886075
     48          1           0       -5.015879    2.031374   -1.334328
     49          1           0       -5.703942    1.247018    0.087371
     50          1           0       -5.968282    0.551441   -1.515637
     51          6           0       -4.850849   -2.104288   -1.279414
     52          1           0       -4.486763   -2.929294   -1.881276
     53          6           0       -6.129984   -2.088415   -0.917199
     54          1           0       -6.536920   -1.321819   -0.281431
     55          1           0       -6.812184   -2.863058   -1.226490
     56          6           0       -0.858072   -5.508660   -0.349963
     57          1           0       -1.334584   -5.630304   -1.323279
     58          1           0       -1.642080   -5.469620    0.406341
     59          1           0       -0.240888   -6.383647   -0.160962
     60          6           0        2.353112   -5.160252    0.019401
     61          1           0        1.905549   -6.147005    0.110050
     62          1           0        2.933183   -4.960770    0.920448
     63          1           0        3.039391   -5.173282   -0.828129
     64          8           0        0.298561   -0.027580   -2.625743
     65          1           0        1.213843   -0.242141   -2.806594
     66          1           0       -0.288774    0.302297   -3.206019
     67          6           0       -0.729863   -1.192512    5.005591
     68          1           0       -1.470307   -1.954347    4.783334
     69          1           0       -1.191556   -0.427914    5.630184
     70          1           0        0.082545   -1.649263    5.570700
     71          7           0        0.719542    0.386664    3.711261
     72          1           0        1.153341    0.807890    4.516198
     73          6           0       -0.225743   -0.605183    3.738431
     74          6           0        0.955146    0.692504    2.415046
     75          1           0        1.651523    1.437265    2.089082
     76          7           0        0.217426   -0.045345    1.621505
     77          6           0       -0.522967   -0.857108    2.429640
     78          1           0       -1.213838   -1.562386    2.016003
 ---------------------------------------------------------------------
 Rotational constants (GHZ):           0.0949766           0.0913481           0.0607295
 General basis read from cards:  (5D, 7F)
 There are   723 symmetry adapted cartesian basis functions of A   symmetry.
 There are   679 symmetry adapted basis functions of A   symmetry.
   679 basis functions,  1378 primitive gaussians,   723 cartesian basis functions
   158 alpha electrons      157 beta electrons
       nuclear repulsion energy      5989.5067079042 Hartrees.
 NAtoms=   78 NActive=   78 NUniq=   78 SFac= 1.00D+00 NAtFMM=   60 NAOKFM=T Big=T
 Integral buffers will be    131072 words long.
 Raffenetti 2 integral format.
 Two-electron integral symmetry is turned on.
 R6APFD:  NTU= -4 IXU= 1 FactS= 1.050
 Nuclear repulsion after empirical dispersion term =     5989.3523876237 Hartrees.
 One-electron integrals computed using PRISM.
 NBasis=   679 RedAO= T EigKep=  2.72D-04  NBF=   679
 NBsUse=   679 1.00D-06 EigRej= -1.00D+00 NBFU=   679
 ExpMin= 4.20D-02 ExpMax= 3.01D+05 ExpMxC= 2.91D+03 IAcc=3 IRadAn=         5 AccDes= 0.00D+00
 Harris functional with IExCor= 3731 and IRadAn=       5 diagonalized for initial guess.
 HarFok:  IExCor= 3731 AccDes= 0.00D+00 IRadAn=         5 IDoV= 1 UseB2=F ITyADJ=14
 ICtDFT=  3500011 ScaDFX=  1.000000  1.000000  1.000000  1.000000
 FoFCou: FMM=F IPFlag=           0 FMFlag=      100000 FMFlg1=        2001
         NFxFlg=           0 DoJE=T BraDBF=F KetDBF=T FulRan=T
         wScrn=  0.000000 ICntrl=       500 IOpCl=  0 I1Cent=   200000004 NGrid=           0
         NMat0=    1 NMatS0=      1 NMatT0=    0 NMatD0=    1 NMtDS0=    0 NMtDT0=    0
 Petite list used in FoFCou.
 Initial guess <Sx>= 0.0000 <Sy>= 0.0000 <Sz>= 0.5000 <S**2>= 0.7500 S= 0.5000
 Requested convergence on RMS density matrix=1.00D-08 within 999 cycles.
 Requested convergence on MAX density matrix=1.00D-06.
 Requested convergence on             energy=1.00D-06.
 No special actions if energy rises.
 EnCoef did   100 forward-backward iterations
 EnCoef did   100 forward-backward iterations
 EnCoef did   100 forward-backward iterations
 EnCoef did   100 forward-backward iterations
 EnCoef did     3 forward-backward iterations
 Restarting incremental Fock formation.
 Rare condition: small coef for last iteration:  0.000D+00
 Rare condition: small coef for last iteration:  0.000D+00
 Restarting incremental Fock formation.
 Restarting incremental Fock formation.
 Restarting incremental Fock formation.
 Restarting incremental Fock formation.
 SCF Done:  E(UAPFD) =  -2983.21034534     A.U. after  109 cycles
            NFock=109  Conv=0.21D-08     -V/T= 2.0038
 <Sx>= 0.0000 <Sy>= 0.0000 <Sz>= 0.5000 <S**2>= 0.7985 S= 0.5240
 <L.S>=  0.00000000000    
 Annihilation of the first spin contaminant:
 S**2 before annihilation     0.7985,   after     0.7508

 **********************************************************************

            Population analysis using the SCF Density.

 **********************************************************************

 Orbital symmetries:
 Alpha Orbitals:
       Occupied  (A) (A) (A) (A) (A) (A) (A) (A) (A) (A) (A) (A)
                 (A) (A) (A) (A) (A) (A) (A) (A) (A) (A) (A) (A)
                 (A) (A) (A) (A) (A) (A) (A) (A) (A) (A) (A) (A)
                 (A) (A) (A) (A) (A) (A) (A) (A) (A) (A) (A) (A)
                 (A) (A) (A) (A) (A) (A) (A) (A) (A) (A) (A) (A)
                 (A) (A) (A) (A) (A) (A) (A) (A) (A) (A) (A) (A)
                 (A) (A) (A) (A) (A) (A) (A) (A) (A) (A) (A) (A)
                 (A) (A) (A) (A) (A) (A) (A) (A) (A) (A) (A) (A)
                 (A) (A) (A) (A) (A) (A) (A) (A) (A) (A) (A) (A)
                 (A) (A) (A) (A) (A) (A) (A) (A) (A) (A) (A) (A)
                 (A) (A) (A) (A) (A) (A) (A) (A) (A) (A) (A) (A)
                 (A) (A) (A) (A) (A) (A) (A) (A) (A) (A) (A) (A)
                 (A) (A) (A) (A) (A) (A) (A) (A) (A) (A) (A) (A)
                 (A) (A)
       Virtual   (A) (A) (A) (A) (A) (A) (A) (A) (A) (A) (A) (A)
                 (A) (A) (A) (A) (A) (A) (A) (A) (A) (A) (A) (A)
                 (A) (A) (A) (A) (A) (A) (A) (A) (A) (A) (A) (A)
                 (A) (A) (A) (A) (A) (A) (A) (A) (A) (A) (A) (A)
                 (A) (A) (A) (A) (A) (A) (A) (A) (A) (A) (A) (A)
                 (A) (A) (A) (A) (A) (A) (A) (A) (A) (A) (A) (A)
                 (A) (A) (A) (A) (A) (A) (A) (A) (A) (A) (A) (A)
                 (A) (A) (A) (A) (A) (A) (A) (A) (A) (A) (A) (A)
                 (A) (A) (A) (A) (A) (A) (A) (A) (A) (A) (A) (A)
                 (A) (A) (A) (A) (A) (A) (A) (A) (A) (A) (A) (A)
                 (A) (A) (A) (A) (A) (A) (A) (A) (A) (A) (A) (A)
                 (A) (A) (A) (A) (A) (A) (A) (A) (A) (A) (A) (A)
                 (A) (A) (A) (A) (A) (A) (A) (A) (A) (A) (A) (A)
                 (A) (A) (A) (A) (A) (A) (A) (A) (A) (A) (A) (A)
                 (A) (A) (A) (A) (A) (A) (A) (A) (A) (A) (A) (A)
                 (A) (A) (A) (A) (A) (A) (A) (A) (A) (A) (A) (A)
                 (A) (A) (A) (A) (A) (A) (A) (A) (A) (A) (A) (A)
                 (A) (A) (A) (A) (A) (A) (A) (A) (A) (A) (A) (A)
                 (A) (A) (A) (A) (A) (A) (A) (A) (A) (A) (A) (A)
                 (A) (A) (A) (A) (A) (A) (A) (A) (A) (A) (A) (A)
                 (A) (A) (A) (A) (A) (A) (A) (A) (A) (A) (A) (A)
                 (A) (A) (A) (A) (A) (A) (A) (A) (A) (A) (A) (A)
                 (A) (A) (A) (A) (A) (A) (A) (A) (A) (A) (A) (A)
                 (A) (A) (A) (A) (A) (A) (A) (A) (A) (A) (A) (A)
                 (A) (A) (A) (A) (A) (A) (A) (A) (A) (A) (A) (A)
                 (A) (A) (A) (A) (A) (A) (A) (A) (A) (A) (A) (A)
                 (A) (A) (A) (A) (A) (A) (A) (A) (A) (A) (A) (A)
                 (A) (A) (A) (A) (A) (A) (A) (A) (A) (A) (A) (A)
                 (A) (A) (A) (A) (A) (A) (A) (A) (A) (A) (A) (A)
                 (A) (A) (A) (A) (A) (A) (A) (A) (A) (A) (A) (A)
                 (A) (A) (A) (A) (A) (A) (A) (A) (A) (A) (A) (A)
                 (A) (A) (A) (A) (A) (A) (A) (A) (A) (A) (A) (A)
                 (A) (A) (A) (A) (A) (A) (A) (A) (A) (A) (A) (A)
                 (A) (A) (A) (A) (A) (A) (A) (A) (A) (A) (A) (A)
                 (A) (A) (A) (A) (A) (A) (A) (A) (A) (A) (A) (A)
                 (A) (A) (A) (A) (A) (A) (A) (A) (A) (A) (A) (A)
                 (A) (A) (A) (A) (A) (A) (A) (A) (A) (A) (A) (A)
                 (A) (A) (A) (A) (A) (A) (A) (A) (A) (A) (A) (A)
                 (A) (A) (A) (A) (A) (A) (A) (A) (A) (A) (A) (A)
                 (A) (A) (A) (A) (A) (A) (A) (A) (A) (A) (A) (A)
                 (A) (A) (A) (A) (A) (A) (A) (A) (A) (A) (A) (A)
                 (A) (A) (A) (A) (A) (A) (A) (A) (A) (A) (A) (A)
                 (A) (A) (A) (A) (A) (A) (A) (A) (A) (A) (A) (A)
                 (A) (A) (A) (A) (A)
 Beta  Orbitals:
       Occupied  (A) (A) (A) (A) (A) (A) (A) (A) (A) (A) (A) (A)
                 (A) (A) (A) (A) (A) (A) (A) (A) (A) (A) (A) (A)
                 (A) (A) (A) (A) (A) (A) (A) (A) (A) (A) (A) (A)
                 (A) (A) (A) (A) (A) (A) (A) (A) (A) (A) (A) (A)
                 (A) (A) (A) (A) (A) (A) (A) (A) (A) (A) (A) (A)
                 (A) (A) (A) (A) (A) (A) (A) (A) (A) (A) (A) (A)
                 (A) (A) (A) (A) (A) (A) (A) (A) (A) (A) (A) (A)
                 (A) (A) (A) (A) (A) (A) (A) (A) (A) (A) (A) (A)
                 (A) (A) (A) (A) (A) (A) (A) (A) (A) (A) (A) (A)
                 (A) (A) (A) (A) (A) (A) (A) (A) (A) (A) (A) (A)
                 (A) (A) (A) (A) (A) (A) (A) (A) (A) (A) (A) (A)
                 (A) (A) (A) (A) (A) (A) (A) (A) (A) (A) (A) (A)
                 (A) (A) (A) (A) (A) (A) (A) (A) (A) (A) (A) (A)
                 (A)
       Virtual   (A) (A) (A) (A) (A) (A) (A) (A) (A) (A) (A) (A)
                 (A) (A) (A) (A) (A) (A) (A) (A) (A) (A) (A) (A)
                 (A) (A) (A) (A) (A) (A) (A) (A) (A) (A) (A) (A)
                 (A) (A) (A) (A) (A) (A) (A) (A) (A) (A) (A) (A)
                 (A) (A) (A) (A) (A) (A) (A) (A) (A) (A) (A) (A)
                 (A) (A) (A) (A) (A) (A) (A) (A) (A) (A) (A) (A)
                 (A) (A) (A) (A) (A) (A) (A) (A) (A) (A) (A) (A)
                 (A) (A) (A) (A) (A) (A) (A) (A) (A) (A) (A) (A)
                 (A) (A) (A) (A) (A) (A) (A) (A) (A) (A) (A) (A)
                 (A) (A) (A) (A) (A) (A) (A) (A) (A) (A) (A) (A)
                 (A) (A) (A) (A) (A) (A) (A) (A) (A) (A) (A) (A)
                 (A) (A) (A) (A) (A) (A) (A) (A) (A) (A) (A) (A)
                 (A) (A) (A) (A) (A) (A) (A) (A) (A) (A) (A) (A)
                 (A) (A) (A) (A) (A) (A) (A) (A) (A) (A) (A) (A)
                 (A) (A) (A) (A) (A) (A) (A) (A) (A) (A) (A) (A)
                 (A) (A) (A) (A) (A) (A) (A) (A) (A) (A) (A) (A)
                 (A) (A) (A) (A) (A) (A) (A) (A) (A) (A) (A) (A)
                 (A) (A) (A) (A) (A) (A) (A) (A) (A) (A) (A) (A)
                 (A) (A) (A) (A) (A) (A) (A) (A) (A) (A) (A) (A)
                 (A) (A) (A) (A) (A) (A) (A) (A) (A) (A) (A) (A)
                 (A) (A) (A) (A) (A) (A) (A) (A) (A) (A) (A) (A)
                 (A) (A) (A) (A) (A) (A) (A) (A) (A) (A) (A) (A)
                 (A) (A) (A) (A) (A) (A) (A) (A) (A) (A) (A) (A)
                 (A) (A) (A) (A) (A) (A) (A) (A) (A) (A) (A) (A)
                 (A) (A) (A) (A) (A) (A) (A) (A) (A) (A) (A) (A)
                 (A) (A) (A) (A) (A) (A) (A) (A) (A) (A) (A) (A)
                 (A) (A) (A) (A) (A) (A) (A) (A) (A) (A) (A) (A)
                 (A) (A) (A) (A) (A) (A) (A) (A) (A) (A) (A) (A)
                 (A) (A) (A) (A) (A) (A) (A) (A) (A) (A) (A) (A)
                 (A) (A) (A) (A) (A) (A) (A) (A) (A) (A) (A) (A)
                 (A) (A) (A) (A) (A) (A) (A) (A) (A) (A) (A) (A)
                 (A) (A) (A) (A) (A) (A) (A) (A) (A) (A) (A) (A)
                 (A) (A) (A) (A) (A) (A) (A) (A) (A) (A) (A) (A)
                 (A) (A) (A) (A) (A) (A) (A) (A) (A) (A) (A) (A)
                 (A) (A) (A) (A) (A) (A) (A) (A) (A) (A) (A) (A)
                 (A) (A) (A) (A) (A) (A) (A) (A) (A) (A) (A) (A)
                 (A) (A) (A) (A) (A) (A) (A) (A) (A) (A) (A) (A)
                 (A) (A) (A) (A) (A) (A) (A) (A) (A) (A) (A) (A)
                 (A) (A) (A) (A) (A) (A) (A) (A) (A) (A) (A) (A)
                 (A) (A) (A) (A) (A) (A) (A) (A) (A) (A) (A) (A)
                 (A) (A) (A) (A) (A) (A) (A) (A) (A) (A) (A) (A)
                 (A) (A) (A) (A) (A) (A) (A) (A) (A) (A) (A) (A)
                 (A) (A) (A) (A) (A) (A) (A) (A) (A) (A) (A) (A)
                 (A) (A) (A) (A) (A) (A)
 The electronic state is 2-A.
 Alpha  occ. eigenvalues -- -256.37775 -30.24738 -26.09463 -26.09251 -26.06341
 Alpha  occ. eigenvalues --  -19.30199 -14.54370 -14.51283 -14.47413 -14.47262
 Alpha  occ. eigenvalues --  -14.46621 -14.46317 -10.38548 -10.35607 -10.33208
 Alpha  occ. eigenvalues --  -10.33206 -10.33184 -10.33105 -10.32955 -10.32910
 Alpha  occ. eigenvalues --  -10.32850 -10.32697 -10.32623 -10.30661 -10.30336
 Alpha  occ. eigenvalues --  -10.30275 -10.30253 -10.30107 -10.29913 -10.29850
 Alpha  occ. eigenvalues --  -10.29844 -10.29842 -10.29743 -10.29622 -10.29490
 Alpha  occ. eigenvalues --  -10.29424 -10.29152 -10.29149 -10.28373 -10.28297
 Alpha  occ. eigenvalues --  -10.28046 -10.27900 -10.27822 -10.27784 -10.27783
 Alpha  occ. eigenvalues --  -10.27742  -3.63433  -2.41831  -2.41330  -2.35213
 Alpha  occ. eigenvalues --   -1.17244  -1.16411  -1.08669  -1.07916  -1.07257
 Alpha  occ. eigenvalues --   -1.06532  -1.03062  -0.93093  -0.91835  -0.91515
 Alpha  occ. eigenvalues --   -0.91170  -0.90889  -0.90590  -0.90239  -0.90197
 Alpha  occ. eigenvalues --   -0.86534  -0.85271  -0.84720  -0.84028  -0.82639
 Alpha  occ. eigenvalues --   -0.82435  -0.80687  -0.79739  -0.78366  -0.78103
 Alpha  occ. eigenvalues --   -0.77624  -0.76223  -0.74886  -0.74584  -0.72593
 Alpha  occ. eigenvalues --   -0.72127  -0.70316  -0.70100  -0.68011  -0.67842
 Alpha  occ. eigenvalues --   -0.67143  -0.64715  -0.64296  -0.63716  -0.62517
 Alpha  occ. eigenvalues --   -0.61568  -0.61220  -0.60564  -0.59216  -0.58523
 Alpha  occ. eigenvalues --   -0.58375  -0.57887  -0.57481  -0.55900  -0.55353
 Alpha  occ. eigenvalues --   -0.54933  -0.54766  -0.54203  -0.53853  -0.53608
 Alpha  occ. eigenvalues --   -0.53555  -0.53127  -0.53020  -0.52570  -0.52390
 Alpha  occ. eigenvalues --   -0.52330  -0.52056  -0.52003  -0.51383  -0.50665
 Alpha  occ. eigenvalues --   -0.50558  -0.50257  -0.50045  -0.49975  -0.49964
 Alpha  occ. eigenvalues --   -0.49661  -0.49578  -0.49297  -0.49222  -0.48752
 Alpha  occ. eigenvalues --   -0.48267  -0.47979  -0.47854  -0.47510  -0.47361
 Alpha  occ. eigenvalues --   -0.47272  -0.46878  -0.46534  -0.45922  -0.45864
 Alpha  occ. eigenvalues --   -0.45447  -0.44681  -0.44317  -0.43862  -0.43438
 Alpha  occ. eigenvalues --   -0.43149  -0.42605  -0.42151  -0.41363  -0.40417
 Alpha  occ. eigenvalues --   -0.39681  -0.39077  -0.38936  -0.38444  -0.36757
 Alpha  occ. eigenvalues --   -0.36555  -0.34795  -0.33684  -0.32488  -0.31868
 Alpha  occ. eigenvalues --   -0.31293  -0.29053  -0.28226
 Alpha virt. eigenvalues --   -0.18844  -0.16934  -0.16765  -0.13492  -0.11281
 Alpha virt. eigenvalues --   -0.09115  -0.07722  -0.06449  -0.04965  -0.04225
 Alpha virt. eigenvalues --   -0.03331  -0.01744  -0.01450  -0.00494   0.01231
 Alpha virt. eigenvalues --    0.01361   0.02236   0.03128   0.03416   0.03574
 Alpha virt. eigenvalues --    0.04143   0.04256   0.04599   0.04782   0.05058
 Alpha virt. eigenvalues --    0.05433   0.05637   0.05846   0.06573   0.06643
 Alpha virt. eigenvalues --    0.06982   0.07471   0.07646   0.07794   0.08106
 Alpha virt. eigenvalues --    0.08194   0.08766   0.08904   0.09019   0.09372
 Alpha virt. eigenvalues --    0.09455   0.09789   0.09910   0.10081   0.10542
 Alpha virt. eigenvalues --    0.10762   0.11434   0.11883   0.12321   0.12381
 Alpha virt. eigenvalues --    0.12456   0.12901   0.13133   0.13511   0.14112
 Alpha virt. eigenvalues --    0.14330   0.14945   0.15274   0.15684   0.16209
 Alpha virt. eigenvalues --    0.16541   0.16983   0.17147   0.17799   0.17979
 Alpha virt. eigenvalues --    0.18393   0.19771   0.20033   0.20791   0.20950
 Alpha virt. eigenvalues --    0.21802   0.22468   0.23269   0.23519   0.24739
 Alpha virt. eigenvalues --    0.25376   0.25854   0.26284   0.26348   0.27081
 Alpha virt. eigenvalues --    0.27445   0.28873   0.29503   0.30428   0.31674
 Alpha virt. eigenvalues --    0.31834   0.33075   0.33611   0.33831   0.34368
 Alpha virt. eigenvalues --    0.34754   0.36452   0.37923   0.38289   0.38583
 Alpha virt. eigenvalues --    0.39184   0.39601   0.39979   0.40442   0.40583
 Alpha virt. eigenvalues --    0.41067   0.41671   0.42140   0.42492   0.42872
 Alpha virt. eigenvalues --    0.43156   0.43398   0.43563   0.43918   0.44528
 Alpha virt. eigenvalues --    0.44783   0.45134   0.45671   0.45922   0.46267
 Alpha virt. eigenvalues --    0.46946   0.47149   0.47725   0.48545   0.48637
 Alpha virt. eigenvalues --    0.48799   0.49141   0.49508   0.50382   0.50978
 Alpha virt. eigenvalues --    0.51155   0.51935   0.52243   0.52632   0.52892
 Alpha virt. eigenvalues --    0.53316   0.53674   0.54132   0.54290   0.55065
 Alpha virt. eigenvalues --    0.55240   0.55832   0.55898   0.56111   0.56374
 Alpha virt. eigenvalues --    0.57075   0.57350   0.57415   0.58079   0.58222
 Alpha virt. eigenvalues --    0.58359   0.59079   0.59883   0.60270   0.60937
 Alpha virt. eigenvalues --    0.61516   0.61965   0.62130   0.62822   0.62993
 Alpha virt. eigenvalues --    0.63295   0.63577   0.64200   0.64705   0.65219
 Alpha virt. eigenvalues --    0.65893   0.66549   0.66759   0.67306   0.67615
 Alpha virt. eigenvalues --    0.68140   0.68328   0.68771   0.68943   0.69436
 Alpha virt. eigenvalues --    0.69712   0.69960   0.70084   0.70935   0.71193
 Alpha virt. eigenvalues --    0.71674   0.72126   0.72366   0.73236   0.74050
 Alpha virt. eigenvalues --    0.74584   0.74902   0.75571   0.76682   0.77422
 Alpha virt. eigenvalues --    0.77779   0.78109   0.78637   0.78712   0.79111
 Alpha virt. eigenvalues --    0.79343   0.79662   0.80133   0.80275   0.80728
 Alpha virt. eigenvalues --    0.81025   0.81309   0.81561   0.81779   0.82431
 Alpha virt. eigenvalues --    0.82665   0.82726   0.83522   0.83975   0.84161
 Alpha virt. eigenvalues --    0.84521   0.84907   0.85407   0.85957   0.86351
 Alpha virt. eigenvalues --    0.86495   0.87102   0.87207   0.87274   0.87975
 Alpha virt. eigenvalues --    0.88600   0.88931   0.89408   0.89701   0.89986
 Alpha virt. eigenvalues --    0.90415   0.90698   0.90898   0.91310   0.91643
 Alpha virt. eigenvalues --    0.92220   0.92583   0.92909   0.93554   0.93746
 Alpha virt. eigenvalues --    0.94769   0.95107   0.95758   0.95985   0.96600
 Alpha virt. eigenvalues --    0.97161   0.97672   0.98044   0.99256   0.99681
 Alpha virt. eigenvalues --    1.00356   1.01018   1.01257   1.03407   1.04072
 Alpha virt. eigenvalues --    1.04626   1.05191   1.05362   1.06590   1.07557
 Alpha virt. eigenvalues --    1.08015   1.08203   1.08621   1.08793   1.09128
 Alpha virt. eigenvalues --    1.09804   1.10247   1.10644   1.11192   1.11640
 Alpha virt. eigenvalues --    1.12010   1.12850   1.13478   1.14563   1.15539
 Alpha virt. eigenvalues --    1.15586   1.16378   1.17446   1.18450   1.18613
 Alpha virt. eigenvalues --    1.20141   1.20428   1.20914   1.21858   1.22122
 Alpha virt. eigenvalues --    1.23277   1.24393   1.24651   1.25099   1.26117
 Alpha virt. eigenvalues --    1.26345   1.27174   1.27530   1.27842   1.27905
 Alpha virt. eigenvalues --    1.28369   1.28475   1.28927   1.29662   1.30227
 Alpha virt. eigenvalues --    1.31236   1.31771   1.33280   1.33782   1.34649
 Alpha virt. eigenvalues --    1.35413   1.36022   1.36337   1.37384   1.38895
 Alpha virt. eigenvalues --    1.39177   1.39920   1.40784   1.41094   1.42021
 Alpha virt. eigenvalues --    1.42134   1.43276   1.44164   1.44353   1.45161
 Alpha virt. eigenvalues --    1.45781   1.46658   1.47855   1.48796   1.49326
 Alpha virt. eigenvalues --    1.50867   1.51472   1.52069   1.53124   1.53753
 Alpha virt. eigenvalues --    1.54943   1.55195   1.55909   1.57283   1.58850
 Alpha virt. eigenvalues --    1.58999   1.59953   1.60900   1.61540   1.62824
 Alpha virt. eigenvalues --    1.64089   1.65112   1.66094   1.68458   1.69436
 Alpha virt. eigenvalues --    1.69861   1.70581   1.70734   1.71564   1.72113
 Alpha virt. eigenvalues --    1.72212   1.72669   1.72900   1.73407   1.73926
 Alpha virt. eigenvalues --    1.74268   1.75086   1.75730   1.76009   1.76896
 Alpha virt. eigenvalues --    1.77703   1.77844   1.78374   1.79224   1.80023
 Alpha virt. eigenvalues --    1.80421   1.81271   1.82220   1.82942   1.83220
 Alpha virt. eigenvalues --    1.83945   1.84609   1.85574   1.85857   1.86289
 Alpha virt. eigenvalues --    1.86887   1.87168   1.88508   1.88890   1.89647
 Alpha virt. eigenvalues --    1.90514   1.91502   1.91695   1.91993   1.93403
 Alpha virt. eigenvalues --    1.94244   1.94448   1.94955   1.95670   1.95837
 Alpha virt. eigenvalues --    1.96307   1.96886   1.97219   1.98054   1.99173
 Alpha virt. eigenvalues --    1.99737   2.00057   2.01106   2.01599   2.03085
 Alpha virt. eigenvalues --    2.03214   2.04630   2.04858   2.05608   2.06321
 Alpha virt. eigenvalues --    2.07068   2.08472   2.09383   2.09997   2.10900
 Alpha virt. eigenvalues --    2.11103   2.11801   2.12513   2.13040   2.13566
 Alpha virt. eigenvalues --    2.13998   2.14993   2.15312   2.16116   2.16850
 Alpha virt. eigenvalues --    2.17139   2.17315   2.17484   2.18788   2.19219
 Alpha virt. eigenvalues --    2.19608   2.20028   2.20725   2.21013   2.21099
 Alpha virt. eigenvalues --    2.21664   2.22496   2.22835   2.23882   2.24087
 Alpha virt. eigenvalues --    2.24699   2.25434   2.25865   2.26293   2.26742
 Alpha virt. eigenvalues --    2.27402   2.27853   2.28593   2.29149   2.29625
 Alpha virt. eigenvalues --    2.30434   2.31045   2.31395   2.32145   2.32345
 Alpha virt. eigenvalues --    2.32993   2.33410   2.33910   2.34505   2.35542
 Alpha virt. eigenvalues --    2.36056   2.37389   2.38117   2.39620   2.39892
 Alpha virt. eigenvalues --    2.41608   2.42487   2.42942   2.43604   2.43776
 Alpha virt. eigenvalues --    2.44518   2.44897   2.45247   2.46446   2.47173
 Alpha virt. eigenvalues --    2.47961   2.48668   2.49303   2.50256   2.50861
 Alpha virt. eigenvalues --    2.51969   2.52824   2.54490   2.55475   2.57069
 Alpha virt. eigenvalues --    2.58654   2.59270   2.59767   2.60576   2.61890
 Alpha virt. eigenvalues --    2.62634   2.64158   2.65725   2.66513   2.68688
 Alpha virt. eigenvalues --    2.69038   2.69706   2.71371   2.72295   2.76565
 Alpha virt. eigenvalues --    2.77800   2.78324   2.79702   2.81375   2.82176
 Alpha virt. eigenvalues --    2.83778   2.85886   2.86668   2.87609   2.88763
 Alpha virt. eigenvalues --    2.89448   2.90400   2.90629   2.93322   2.94607
 Alpha virt. eigenvalues --    2.96103   2.97213   3.03064   3.04637   3.04785
 Alpha virt. eigenvalues --    3.09377   3.13330   3.15951   3.19310   3.20361
 Alpha virt. eigenvalues --    3.28739   3.28901   3.30997   3.36513   3.36881
 Alpha virt. eigenvalues --    3.49778   3.54254   3.74089   3.78827   4.04910
 Alpha virt. eigenvalues --    4.15160
  Beta  occ. eigenvalues -- -256.37740 -30.22562 -26.07062 -26.06899 -26.05646
  Beta  occ. eigenvalues --  -19.30205 -14.54369 -14.51366 -14.47447 -14.47295
  Beta  occ. eigenvalues --  -14.46680 -14.46378 -10.38532 -10.35609 -10.33199
  Beta  occ. eigenvalues --  -10.33194 -10.33180 -10.33102 -10.32952 -10.32907
  Beta  occ. eigenvalues --  -10.32846 -10.32693 -10.32617 -10.30661 -10.30315
  Beta  occ. eigenvalues --  -10.30252 -10.30235 -10.30116 -10.29887 -10.29853
  Beta  occ. eigenvalues --  -10.29853 -10.29853 -10.29753 -10.29625 -10.29493
  Beta  occ. eigenvalues --  -10.29427 -10.29162 -10.29149 -10.28375 -10.28299
  Beta  occ. eigenvalues --  -10.28046 -10.27883 -10.27823 -10.27784 -10.27783
  Beta  occ. eigenvalues --  -10.27744  -3.58149  -2.34335  -2.34262  -2.32958
  Beta  occ. eigenvalues --   -1.17260  -1.16425  -1.08676  -1.07895  -1.07312
  Beta  occ. eigenvalues --   -1.06558  -1.03108  -0.93097  -0.91806  -0.91508
  Beta  occ. eigenvalues --   -0.91149  -0.90889  -0.90596  -0.90247  -0.90217
  Beta  occ. eigenvalues --   -0.86528  -0.85266  -0.84739  -0.84023  -0.82638
  Beta  occ. eigenvalues --   -0.82434  -0.80680  -0.79744  -0.78369  -0.78103
  Beta  occ. eigenvalues --   -0.77644  -0.76252  -0.74885  -0.74582  -0.72594
  Beta  occ. eigenvalues --   -0.72114  -0.70323  -0.70086  -0.68003  -0.67845
  Beta  occ. eigenvalues --   -0.67141  -0.64715  -0.64305  -0.63720  -0.62513
  Beta  occ. eigenvalues --   -0.61576  -0.61230  -0.60580  -0.59206  -0.58487
  Beta  occ. eigenvalues --   -0.58330  -0.57876  -0.57489  -0.55900  -0.55323
  Beta  occ. eigenvalues --   -0.54919  -0.54629  -0.54124  -0.53803  -0.53572
  Beta  occ. eigenvalues --   -0.53453  -0.53134  -0.53011  -0.52554  -0.52361
  Beta  occ. eigenvalues --   -0.52261  -0.52039  -0.51962  -0.51399  -0.50655
  Beta  occ. eigenvalues --   -0.50546  -0.50112  -0.50015  -0.49945  -0.49728
  Beta  occ. eigenvalues --   -0.49624  -0.49397  -0.49187  -0.49138  -0.48723
  Beta  occ. eigenvalues --   -0.48253  -0.47995  -0.47725  -0.47507  -0.47370
  Beta  occ. eigenvalues --   -0.47094  -0.46715  -0.46472  -0.45731  -0.45488
  Beta  occ. eigenvalues --   -0.44636  -0.44321  -0.43783  -0.43496  -0.43393
  Beta  occ. eigenvalues --   -0.42396  -0.42166  -0.41502  -0.40619  -0.39125
  Beta  occ. eigenvalues --   -0.38942  -0.37888  -0.36943  -0.36796  -0.36147
  Beta  occ. eigenvalues --   -0.34872  -0.33874  -0.32473  -0.32000  -0.31097
  Beta  occ. eigenvalues --   -0.29037  -0.28139
  Beta virt. eigenvalues --   -0.20404  -0.16828  -0.16640  -0.15849  -0.11219
  Beta virt. eigenvalues --   -0.10519  -0.08931  -0.07642  -0.06400  -0.04841
  Beta virt. eigenvalues --   -0.04208  -0.03285  -0.01710  -0.01328  -0.00342
  Beta virt. eigenvalues --    0.01251   0.01430   0.02236   0.03132   0.03428
  Beta virt. eigenvalues --    0.03593   0.04167   0.04265   0.04634   0.04795
  Beta virt. eigenvalues --    0.05105   0.05443   0.05685   0.05870   0.06582
  Beta virt. eigenvalues --    0.06649   0.06998   0.07475   0.07667   0.07804
  Beta virt. eigenvalues --    0.08106   0.08203   0.08771   0.08913   0.09039
  Beta virt. eigenvalues --    0.09373   0.09474   0.09800   0.09925   0.10093
  Beta virt. eigenvalues --    0.10550   0.10780   0.11449   0.11913   0.12335
  Beta virt. eigenvalues --    0.12389   0.12478   0.12929   0.13148   0.13535
  Beta virt. eigenvalues --    0.14128   0.14375   0.14963   0.15286   0.15696
  Beta virt. eigenvalues --    0.16240   0.16575   0.16986   0.17150   0.17833
  Beta virt. eigenvalues --    0.18004   0.18401   0.19793   0.20152   0.20962
  Beta virt. eigenvalues --    0.21358   0.21828   0.22598   0.23339   0.23607
  Beta virt. eigenvalues --    0.24783   0.25415   0.25900   0.26312   0.26390
  Beta virt. eigenvalues --    0.27085   0.27455   0.28918   0.29635   0.30503
  Beta virt. eigenvalues --    0.31738   0.31930   0.33230   0.33632   0.33847
  Beta virt. eigenvalues --    0.34428   0.34774   0.36638   0.38019   0.38329
  Beta virt. eigenvalues --    0.38619   0.39193   0.39649   0.40049   0.40481
  Beta virt. eigenvalues --    0.40630   0.41087   0.41700   0.42346   0.42509
  Beta virt. eigenvalues --    0.42897   0.43213   0.43419   0.43577   0.43968
  Beta virt. eigenvalues --    0.44539   0.44839   0.45315   0.45710   0.45957
  Beta virt. eigenvalues --    0.46310   0.46991   0.47247   0.47726   0.48552
  Beta virt. eigenvalues --    0.48697   0.48811   0.49172   0.49624   0.50435
  Beta virt. eigenvalues --    0.50978   0.51168   0.51949   0.52281   0.52703
  Beta virt. eigenvalues --    0.52977   0.53319   0.53695   0.54149   0.54477
  Beta virt. eigenvalues --    0.55094   0.55255   0.55836   0.55952   0.56152
  Beta virt. eigenvalues --    0.56543   0.57105   0.57358   0.57450   0.58106
  Beta virt. eigenvalues --    0.58222   0.58382   0.59107   0.59897   0.60299
  Beta virt. eigenvalues --    0.60986   0.61599   0.62092   0.62340   0.62841
  Beta virt. eigenvalues --    0.63059   0.63326   0.63672   0.64232   0.64759
  Beta virt. eigenvalues --    0.65246   0.65913   0.66599   0.66792   0.67325
  Beta virt. eigenvalues --    0.67635   0.68183   0.68346   0.68815   0.69104
  Beta virt. eigenvalues --    0.69473   0.69784   0.69969   0.70117   0.71151
  Beta virt. eigenvalues --    0.71286   0.71696   0.72174   0.72442   0.73266
  Beta virt. eigenvalues --    0.74069   0.74601   0.74909   0.75603   0.76711
  Beta virt. eigenvalues --    0.77432   0.77828   0.78127   0.78660   0.78760
  Beta virt. eigenvalues --    0.79122   0.79366   0.79694   0.80164   0.80299
  Beta virt. eigenvalues --    0.80762   0.81045   0.81346   0.81579   0.81814
  Beta virt. eigenvalues --    0.82440   0.82703   0.82744   0.83546   0.84005
  Beta virt. eigenvalues --    0.84199   0.84544   0.84946   0.85428   0.86035
  Beta virt. eigenvalues --    0.86379   0.86533   0.87106   0.87263   0.87322
  Beta virt. eigenvalues --    0.87992   0.88631   0.88953   0.89425   0.89734
  Beta virt. eigenvalues --    0.90297   0.90448   0.90734   0.90908   0.91329
  Beta virt. eigenvalues --    0.91722   0.92256   0.92620   0.92992   0.93747
  Beta virt. eigenvalues --    0.93777   0.94794   0.95122   0.95786   0.96051
  Beta virt. eigenvalues --    0.96651   0.97197   0.97689   0.98128   0.99324
  Beta virt. eigenvalues --    0.99716   1.00401   1.01035   1.01345   1.03442
  Beta virt. eigenvalues --    1.04137   1.04657   1.05272   1.05521   1.06643
  Beta virt. eigenvalues --    1.07563   1.08038   1.08226   1.08736   1.08871
  Beta virt. eigenvalues --    1.09189   1.09883   1.10294   1.10698   1.11207
  Beta virt. eigenvalues --    1.11671   1.12025   1.12862   1.13495   1.14659
  Beta virt. eigenvalues --    1.15568   1.15889   1.16438   1.17487   1.18463
  Beta virt. eigenvalues --    1.18727   1.20159   1.20475   1.20942   1.21900
  Beta virt. eigenvalues --    1.22140   1.23288   1.24451   1.24739   1.25149
  Beta virt. eigenvalues --    1.26146   1.26400   1.27212   1.27552   1.27848
  Beta virt. eigenvalues --    1.27912   1.28385   1.28492   1.28939   1.29673
  Beta virt. eigenvalues --    1.30310   1.31309   1.31787   1.33354   1.33812
  Beta virt. eigenvalues --    1.34638   1.35429   1.36035   1.36344   1.37390
  Beta virt. eigenvalues --    1.38904   1.39191   1.39923   1.40838   1.41156
  Beta virt. eigenvalues --    1.42006   1.42138   1.43278   1.44182   1.44368
  Beta virt. eigenvalues --    1.45163   1.45794   1.46668   1.47900   1.48805
  Beta virt. eigenvalues --    1.49340   1.50887   1.51571   1.52150   1.53271
  Beta virt. eigenvalues --    1.53823   1.55027   1.55325   1.56007   1.57321
  Beta virt. eigenvalues --    1.58916   1.59035   1.59988   1.60968   1.61582
  Beta virt. eigenvalues --    1.62870   1.64127   1.65146   1.66116   1.68448
  Beta virt. eigenvalues --    1.69448   1.69871   1.70586   1.70748   1.71587
  Beta virt. eigenvalues --    1.72151   1.72289   1.72687   1.72897   1.73414
  Beta virt. eigenvalues --    1.73934   1.74268   1.75089   1.75723   1.76054
  Beta virt. eigenvalues --    1.76891   1.77700   1.77832   1.78374   1.79231
  Beta virt. eigenvalues --    1.80043   1.80431   1.81307   1.82266   1.82979
  Beta virt. eigenvalues --    1.83247   1.84011   1.84632   1.85668   1.86004
  Beta virt. eigenvalues --    1.86564   1.86943   1.87202   1.88544   1.89138
  Beta virt. eigenvalues --    1.89762   1.90563   1.91541   1.91798   1.92158
  Beta virt. eigenvalues --    1.93413   1.94267   1.94509   1.95022   1.95680
  Beta virt. eigenvalues --    1.95868   1.96360   1.96909   1.97295   1.98252
  Beta virt. eigenvalues --    1.99192   1.99802   2.00177   2.01165   2.01637
  Beta virt. eigenvalues --    2.03154   2.03233   2.04674   2.04859   2.05682
  Beta virt. eigenvalues --    2.06336   2.07119   2.08710   2.09419   2.10042
  Beta virt. eigenvalues --    2.11003   2.11193   2.11870   2.12556   2.13063
  Beta virt. eigenvalues --    2.13603   2.14072   2.15057   2.15356   2.16164
  Beta virt. eigenvalues --    2.16864   2.17163   2.17344   2.17557   2.18801
  Beta virt. eigenvalues --    2.19301   2.19642   2.20051   2.20820   2.21106
  Beta virt. eigenvalues --    2.21476   2.21708   2.22548   2.22989   2.23900
  Beta virt. eigenvalues --    2.24123   2.24825   2.25522   2.25882   2.26340
  Beta virt. eigenvalues --    2.26796   2.27420   2.27864   2.28668   2.29204
  Beta virt. eigenvalues --    2.29722   2.30587   2.31166   2.31425   2.32153
  Beta virt. eigenvalues --    2.32360   2.33022   2.33451   2.33949   2.34546
  Beta virt. eigenvalues --    2.35719   2.36179   2.37555   2.38146   2.39881
  Beta virt. eigenvalues --    2.39961   2.41691   2.42544   2.43006   2.43766
  Beta virt. eigenvalues --    2.43835   2.44584   2.44919   2.45276   2.46647
  Beta virt. eigenvalues --    2.47190   2.47999   2.48797   2.49369   2.50329
  Beta virt. eigenvalues --    2.50894   2.52041   2.52901   2.54505   2.55488
  Beta virt. eigenvalues --    2.57083   2.58694   2.59303   2.59811   2.60602
  Beta virt. eigenvalues --    2.61886   2.62651   2.64218   2.65771   2.66512
  Beta virt. eigenvalues --    2.68713   2.69037   2.69752   2.71372   2.72302
  Beta virt. eigenvalues --    2.76549   2.77805   2.78337   2.79710   2.81406
  Beta virt. eigenvalues --    2.82213   2.83801   2.85882   2.86671   2.87588
  Beta virt. eigenvalues --    2.88780   2.89449   2.90407   2.90639   2.93386
  Beta virt. eigenvalues --    2.94602   2.96167   2.97215   3.03064   3.04654
  Beta virt. eigenvalues --    3.04799   3.09372   3.13354   3.16038   3.19311
  Beta virt. eigenvalues --    3.20373   3.28720   3.28899   3.31055   3.36510
  Beta virt. eigenvalues --    3.36896   3.54129   3.59303   3.76737   3.80225
  Beta virt. eigenvalues --    4.06236   4.16782
          Condensed to atoms (all electrons):
          Atomic-Atomic Spin Densities.
 Mulliken charges and spin densities:
               1          2
     1  Fe   0.906584   1.063396
     2  N   -0.690665  -0.023637
     3  N   -0.656069  -0.027243
     4  N   -0.690833  -0.023605
     5  N   -0.646330  -0.027702
     6  C    0.304131   0.004645
     7  C    0.038428   0.011320
     8  C    0.041157   0.014371
     9  C    0.294091   0.005197
    10  C    0.302184   0.004040
    11  C    0.037281  -0.000817
    12  C   -0.002983  -0.001510
    13  C    0.311801   0.004327
    14  C    0.312522   0.003974
    15  C    0.042927   0.015242
    16  C    0.008857   0.017175
    17  C    0.313122   0.006555
    18  C    0.308309   0.005771
    19  C    0.040965  -0.001091
    20  C    0.036959  -0.001264
    21  C    0.316487   0.005043
    22  C   -0.301803  -0.006948
    23  H    0.189497   0.000303
    24  C   -0.307958  -0.007029
    25  H    0.189696   0.000312
    26  C   -0.292710  -0.007267
    27  H    0.197264   0.000317
    28  C   -0.299420  -0.008263
    29  H    0.192570   0.000337
    30  C   -0.610418  -0.001359
    31  H    0.204535  -0.000037
    32  H    0.202157   0.000951
    33  H    0.204704   0.000772
    34  C   -0.610454  -0.001371
    35  H    0.205415   0.000808
    36  H    0.203126   0.000774
    37  H    0.203353  -0.000114
    38  C   -0.603286  -0.000050
    39  H    0.201706   0.000018
    40  H    0.200343   0.000029
    41  H    0.203184  -0.000101
    42  C   -0.153130   0.000021
    43  H    0.185680  -0.000091
    44  C   -0.399267  -0.000053
    45  H    0.180221   0.000002
    46  H    0.192762   0.000002
    47  C   -0.615292  -0.001783
    48  H    0.200669   0.000608
    49  H    0.205405   0.001157
    50  H    0.211885   0.000192
    51  C   -0.153502  -0.007616
    52  H    0.181138   0.000582
    53  C   -0.391181   0.012558
    54  H    0.188159  -0.000622
    55  H    0.194085  -0.000595
    56  C   -0.610642  -0.000017
    57  H    0.204561   0.000021
    58  H    0.199138   0.000015
    59  H    0.202195  -0.000104
    60  C   -0.611060  -0.000076
    61  H    0.202658  -0.000114
    62  H    0.198801   0.000021
    63  H    0.203071   0.000014
    64  O   -0.806077  -0.004969
    65  H    0.479639   0.000590
    66  H    0.468119   0.000281
    67  C   -0.602681  -0.000129
    68  H    0.223350  -0.000024
    69  H    0.215225  -0.000103
    70  H    0.215086   0.000055
    71  N   -0.629998   0.001081
    72  H    0.389458  -0.000245
    73  C    0.282716  -0.000939
    74  C    0.263685   0.009754
    75  H    0.240287  -0.000623
    76  N   -0.435221  -0.036851
    77  C   -0.039382   0.001989
    78  H    0.219017  -0.000258
 Sum of Mulliken charges =   1.00000   1.00000
 Mulliken charges and spin densities with hydrogens summed into heavy atoms:
               1          2
     1  Fe   0.906584   1.063396
     2  N   -0.690665  -0.023637
     3  N   -0.656069  -0.027243
     4  N   -0.690833  -0.023605
     5  N   -0.646330  -0.027702
     6  C    0.304131   0.004645
     7  C    0.038428   0.011320
     8  C    0.041157   0.014371
     9  C    0.294091   0.005197
    10  C    0.302184   0.004040
    11  C    0.037281  -0.000817
    12  C   -0.002983  -0.001510
    13  C    0.311801   0.004327
    14  C    0.312522   0.003974
    15  C    0.042927   0.015242
    16  C    0.008857   0.017175
    17  C    0.313122   0.006555
    18  C    0.308309   0.005771
    19  C    0.040965  -0.001091
    20  C    0.036959  -0.001264
    21  C    0.316487   0.005043
    22  C   -0.112306  -0.006645
    24  C   -0.118262  -0.006717
    26  C   -0.095446  -0.006950
    28  C   -0.106851  -0.007927
    30  C    0.000978   0.000326
    34  C    0.001440   0.000098
    38  C    0.001947  -0.000104
    42  C    0.032550  -0.000070
    44  C   -0.026285  -0.000049
    47  C    0.002666   0.000174
    51  C    0.027636  -0.007034
    53  C   -0.008937   0.011342
    56  C   -0.004748  -0.000085
    60  C   -0.006530  -0.000155
    64  O    0.141681  -0.004098
    67  C    0.050979  -0.000201
    71  N   -0.240540   0.000835
    73  C    0.282716  -0.000939
    74  C    0.503972   0.009132
    76  N   -0.435221  -0.036851
    77  C    0.179635   0.001731
 Electronic spatial extent (au):  <R**2>=          19594.0444
 Charge=              1.0000 electrons
 Dipole moment (field-independent basis, Debye):
    X=              2.0007    Y=              0.2390    Z=              3.4811  Tot=              4.0222
 Quadrupole moment (field-independent basis, Debye-Ang):
   XX=           -183.9733   YY=           -192.2706   ZZ=           -198.0507
   XY=              3.9978   XZ=              0.9578   YZ=              0.8772
 Traceless Quadrupole moment (field-independent basis, Debye-Ang):
   XX=              7.4583   YY=             -0.8391   ZZ=             -6.6192
   XY=              3.9978   XZ=              0.9578   YZ=              0.8772
 Octapole moment (field-independent basis, Debye-Ang**2):
  XXX=             11.6331  YYY=              0.6763  ZZZ=            138.3175  XYY=              0.4190
  XXY=             -5.0025  XXZ=            -32.6964  XZZ=             29.0042  YZZ=              2.5956
  YYZ=            -16.5972  XYZ=             -9.9308
 Hexadecapole moment (field-independent basis, Debye-Ang**3):
 XXXX=          -9948.3462 YYYY=          -9662.6540 ZZZZ=          -2404.4056 XXXY=            126.5558
 XXXZ=            -49.1338 YYYX=            -87.9632 YYYZ=            -14.2244 ZZZX=             47.5284
 ZZZY=            -19.7717 XXYY=          -3359.3811 XXZZ=          -2483.7387 YYZZ=          -2433.1518
 XXYZ=             79.7032 YYXZ=             -2.4968 ZZXY=             68.7809
 N-N= 5.989352387624D+03 E-N=-1.895346586107D+04  KE= 2.972018033877D+03
                          Isotropic Fermi Contact Couplings
        Atom                 a.u.       MegaHertz       Gauss      10(-4) cm-1
     1  Fe(57)             0.11278      16.35785       5.83689       5.45639
     2  N(14)             -0.01943      -6.27807      -2.24017      -2.09414
     3  N(14)             -0.02195      -7.09132      -2.53036      -2.36541
     4  N(14)             -0.02097      -6.77517      -2.41755      -2.25995
     5  N(14)             -0.02156      -6.96496      -2.48527      -2.32326
     6  C(13)             -0.00115      -1.29192      -0.46099      -0.43094
     7  C(13)              0.00073       0.82381       0.29396       0.27479
     8  C(13)              0.00144       1.61359       0.57577       0.53824
     9  C(13)              0.00089       0.99879       0.35639       0.33316
    10  C(13)             -0.00010      -0.11577      -0.04131      -0.03862
    11  C(13)             -0.00063      -0.70848      -0.25280      -0.23632
    12  C(13)             -0.00085      -0.95047      -0.33915      -0.31704
    13  C(13)             -0.00039      -0.43635      -0.15570      -0.14555
    14  C(13)             -0.00140      -1.57899      -0.56342      -0.52669
    15  C(13)              0.00114       1.28152       0.45728       0.42747
    16  C(13)              0.00170       1.91010       0.68157       0.63714
    17  C(13)              0.00103       1.15442       0.41192       0.38507
    18  C(13)              0.00012       0.13591       0.04849       0.04533
    19  C(13)             -0.00070      -0.78822      -0.28126      -0.26292
    20  C(13)             -0.00076      -0.85777      -0.30607      -0.28612
    21  C(13)             -0.00014      -0.15268      -0.05448      -0.05093
    22  C(13)             -0.00099      -1.11705      -0.39859      -0.37261
    23  H(1)               0.00011       0.47929       0.17102       0.15987
    24  C(13)             -0.00124      -1.39244      -0.49686      -0.46447
    25  H(1)               0.00011       0.48356       0.17255       0.16130
    26  C(13)             -0.00105      -1.17870      -0.42059      -0.39317
    27  H(1)               0.00011       0.50213       0.17917       0.16749
    28  C(13)             -0.00146      -1.64650      -0.58751      -0.54921
    29  H(1)               0.00012       0.53976       0.19260       0.18005
    30  C(13)             -0.00052      -0.58209      -0.20770      -0.19416
    31  H(1)              -0.00002      -0.07464      -0.02663      -0.02490
    32  H(1)               0.00045       2.02452       0.72240       0.67531
    33  H(1)               0.00035       1.58652       0.56611       0.52921
    34  C(13)             -0.00058      -0.64833      -0.23134      -0.21626
    35  H(1)               0.00036       1.62747       0.58072       0.54287
    36  H(1)               0.00036       1.61214       0.57525       0.53775
    37  H(1)              -0.00005      -0.24037      -0.08577      -0.08018
    38  C(13)             -0.00002      -0.02723      -0.00972      -0.00908
    39  H(1)               0.00002       0.07615       0.02717       0.02540
    40  H(1)               0.00002       0.10014       0.03573       0.03340
    41  H(1)              -0.00004      -0.19185      -0.06846      -0.06399
    42  C(13)             -0.00006      -0.06954      -0.02482      -0.02320
    43  H(1)              -0.00004      -0.18784      -0.06703      -0.06266
    44  C(13)              0.00000       0.00151       0.00054       0.00051
    45  H(1)              -0.00000      -0.01935      -0.00691      -0.00646
    46  H(1)              -0.00000      -0.00404      -0.00144      -0.00135
    47  C(13)             -0.00070      -0.78705      -0.28084      -0.26253
    48  H(1)               0.00024       1.06797       0.38108       0.35623
    49  H(1)               0.00060       2.67320       0.95387       0.89168
    50  H(1)               0.00006       0.24742       0.08829       0.08253
    51  C(13)             -0.00144      -1.62150      -0.57859      -0.54087
    52  H(1)               0.00021       0.93412       0.33332       0.31159
    53  C(13)              0.00177       1.99518       0.71193       0.66552
    54  H(1)              -0.00019      -0.84149      -0.30027      -0.28069
    55  H(1)              -0.00019      -0.83551      -0.29813      -0.27870
    56  C(13)             -0.00002      -0.01878      -0.00670      -0.00626
    57  H(1)               0.00002       0.07553       0.02695       0.02519
    58  H(1)               0.00002       0.07962       0.02841       0.02656
    59  H(1)              -0.00004      -0.19889      -0.07097      -0.06634
    60  C(13)             -0.00006      -0.06520      -0.02327      -0.02175
    61  H(1)              -0.00005      -0.22099      -0.07885      -0.07371
    62  H(1)               0.00002       0.08410       0.03001       0.02805
    63  H(1)               0.00001       0.05367       0.01915       0.01790
    64  O(17)              0.00008      -0.04919      -0.01755      -0.01641
    65  H(1)               0.00018       0.79953       0.28529       0.26669
    66  H(1)              -0.00002      -0.06861      -0.02448      -0.02288
    67  C(13)             -0.00005      -0.05649      -0.02016      -0.01884
    68  H(1)              -0.00001      -0.06193      -0.02210      -0.02066
    69  H(1)              -0.00004      -0.16464      -0.05875      -0.05492
    70  H(1)               0.00004       0.16316       0.05822       0.05443
    71  N(14)             -0.00136      -0.43877      -0.15656      -0.14636
    72  H(1)              -0.00012      -0.52401      -0.18698      -0.17479
    73  C(13)             -0.00117      -1.31136      -0.46793      -0.43742
    74  C(13)              0.00086       0.96175       0.34318       0.32080
    75  H(1)              -0.00027      -1.21092      -0.43209      -0.40392
    76  N(14)             -0.03803     -12.28646      -4.38412      -4.09832
    77  C(13)              0.00046       0.51414       0.18346       0.17150
    78  H(1)              -0.00017      -0.75425      -0.26913      -0.25159
 --------------------------------------------------------
       Center         ----  Spin Dipole Couplings  ----
                      3XX-RR        3YY-RR        3ZZ-RR
 --------------------------------------------------------
     1   Atom        1.496356     -2.864260      1.367904
     2   Atom       -0.000707     -0.008354      0.009062
     3   Atom        0.006379     -0.003354     -0.003025
     4   Atom       -0.005180     -0.009562      0.014742
     5   Atom        0.007863     -0.002390     -0.005473
     6   Atom        0.003534     -0.007474      0.003939
     7   Atom       -0.005957     -0.008402      0.014359
     8   Atom       -0.006341     -0.009010      0.015352
     9   Atom        0.003668     -0.004686      0.001018
    10   Atom       -0.005401      0.006284     -0.000884
    11   Atom       -0.001528      0.002169     -0.000641
    12   Atom       -0.000732      0.001726     -0.000994
    13   Atom       -0.006111      0.005019      0.001091
    14   Atom        0.003859     -0.007919      0.004059
    15   Atom       -0.007617     -0.010550      0.018167
    16   Atom       -0.007367     -0.010237      0.017605
    17   Atom        0.002467     -0.005473      0.003006
    18   Atom       -0.006228      0.005347      0.000882
    19   Atom       -0.001423      0.002235     -0.000812
    20   Atom       -0.000831      0.001684     -0.000853
    21   Atom       -0.006081      0.004519      0.001562
    22   Atom        0.005317      0.003681     -0.008998
    23   Atom        0.001045      0.000536     -0.001582
    24   Atom        0.003117      0.006227     -0.009345
    25   Atom        0.000212      0.001380     -0.001592
    26   Atom        0.005681      0.003838     -0.009520
    27   Atom        0.001046      0.000574     -0.001621
    28   Atom        0.003503      0.006733     -0.010237
    29   Atom        0.000196      0.001386     -0.001582
    30   Atom        0.000880     -0.000308     -0.000572
    31   Atom        0.001190     -0.000511     -0.000679
    32   Atom        0.000744      0.000067     -0.000811
    33   Atom        0.000661     -0.000044     -0.000617
    34   Atom        0.001066     -0.000545     -0.000521
    35   Atom        0.001073     -0.000322     -0.000751
    36   Atom        0.001151     -0.000407     -0.000744
    37   Atom        0.001390     -0.000692     -0.000698
    38   Atom       -0.000655      0.001289     -0.000633
    39   Atom       -0.000536      0.001174     -0.000638
    40   Atom       -0.000509      0.001160     -0.000651
    41   Atom       -0.000533      0.001048     -0.000515
    42   Atom       -0.000460      0.001034     -0.000574
    43   Atom       -0.000395      0.000932     -0.000537
    44   Atom       -0.000117      0.000679     -0.000562
    45   Atom       -0.000006      0.000530     -0.000524
    46   Atom       -0.000081      0.000417     -0.000336
    47   Atom        0.000940     -0.000523     -0.000417
    48   Atom        0.001035     -0.000173     -0.000862
    49   Atom        0.001232     -0.000496     -0.000736
    50   Atom        0.001338     -0.000576     -0.000762
    51   Atom        0.003752      0.000177     -0.003929
    52   Atom        0.000919     -0.000085     -0.000834
    53   Atom       -0.003403     -0.001780      0.005183
    54   Atom        0.000608     -0.000121     -0.000488
    55   Atom        0.000398      0.000125     -0.000522
    56   Atom       -0.000668      0.001301     -0.000633
    57   Atom       -0.000536      0.001161     -0.000625
    58   Atom       -0.000497      0.001169     -0.000672
    59   Atom       -0.000527      0.001037     -0.000511
    60   Atom       -0.000448      0.001059     -0.000611
    61   Atom       -0.000428      0.000927     -0.000499
    62   Atom       -0.000251      0.000867     -0.000616
    63   Atom       -0.000237      0.000890     -0.000652
    64   Atom       -0.006834     -0.005629      0.012463
    65   Atom       -0.004712     -0.007664      0.012377
    66   Atom       -0.005672     -0.005671      0.011343
    67   Atom       -0.000596     -0.000522      0.001117
    68   Atom       -0.000550     -0.000500      0.001050
    69   Atom       -0.000488     -0.000639      0.001127
    70   Atom       -0.000593     -0.000475      0.001067
    71   Atom        0.001467     -0.000962     -0.000505
    72   Atom       -0.000922     -0.001177      0.002099
    73   Atom       -0.000339     -0.001972      0.002311
    74   Atom       -0.005863      0.000946      0.004917
    75   Atom       -0.001644     -0.001265      0.002909
    76   Atom        0.011069      0.002790     -0.013859
    77   Atom       -0.006072     -0.001522      0.007594
    78   Atom       -0.001961     -0.001170      0.003132
 --------------------------------------------------------
                        XY            XZ            YZ
 --------------------------------------------------------
     1   Atom       -0.435586     -0.005819     -0.202563
     2   Atom        0.008044      0.027170      0.001867
     3   Atom        0.004101     -0.003662      0.007258
     4   Atom        0.009432     -0.027095     -0.003804
     5   Atom        0.003828      0.003715     -0.008774
     6   Atom       -0.001528     -0.001598      0.002690
     7   Atom       -0.001520      0.000036      0.003035
     8   Atom        0.001896      0.002195      0.003553
     9   Atom        0.006698      0.000390      0.000396
    10   Atom        0.002251      0.001403      0.000009
    11   Atom        0.000976      0.000100      0.000255
    12   Atom       -0.001577     -0.000100      0.000306
    13   Atom       -0.003744      0.000034      0.000071
    14   Atom       -0.000904     -0.000681     -0.002206
    15   Atom       -0.000960     -0.004434     -0.004221
    16   Atom        0.002406     -0.004637     -0.004635
    17   Atom        0.006743     -0.000651     -0.000487
    18   Atom        0.001949     -0.001604      0.000740
    19   Atom        0.000894     -0.000112      0.000363
    20   Atom       -0.001658      0.000146      0.000445
    21   Atom       -0.003781     -0.000600      0.000367
    22   Atom       -0.005311      0.000757     -0.001732
    23   Atom       -0.001866      0.000160     -0.000210
    24   Atom        0.005137     -0.001576     -0.000446
    25   Atom        0.001762     -0.000249     -0.000293
    26   Atom       -0.005526     -0.000144      0.002039
    27   Atom       -0.001862     -0.000122      0.000245
    28   Atom        0.005030      0.001999      0.000178
    29   Atom        0.001673      0.000265      0.000272
    30   Atom        0.001127     -0.000298     -0.000124
    31   Atom        0.000691     -0.000288     -0.000112
    32   Atom        0.001091      0.000068      0.000132
    33   Atom        0.000994     -0.000531     -0.000499
    34   Atom       -0.000654     -0.000214      0.000121
    35   Atom       -0.000816     -0.000351      0.000214
    36   Atom       -0.000785      0.000338     -0.000214
    37   Atom       -0.000343     -0.000097      0.000035
    38   Atom        0.000339      0.000020     -0.000016
    39   Atom        0.000500     -0.000074     -0.000308
    40   Atom        0.000549      0.000068      0.000238
    41   Atom        0.000087      0.000005      0.000012
    42   Atom       -0.000603      0.000046      0.000154
    43   Atom       -0.000423      0.000012      0.000007
    44   Atom       -0.000780     -0.000181      0.000311
    45   Atom       -0.000958     -0.000414      0.000586
    46   Atom       -0.000480     -0.000113      0.000195
    47   Atom       -0.000700      0.000095     -0.000154
    48   Atom       -0.000955      0.000364     -0.000206
    49   Atom       -0.000706     -0.000315      0.000171
    50   Atom       -0.000363      0.000447     -0.000170
    51   Atom        0.002163     -0.001255      0.003590
    52   Atom        0.001180      0.000466      0.000374
    53   Atom       -0.002132      0.004858     -0.007062
    54   Atom       -0.000154     -0.000226      0.000300
    55   Atom        0.001044      0.000552      0.000082
    56   Atom        0.000322     -0.000002      0.000054
    57   Atom        0.000457      0.000067      0.000287
    58   Atom        0.000585     -0.000074     -0.000253
    59   Atom        0.000088     -0.000006     -0.000049
    60   Atom       -0.000643     -0.000014     -0.000023
    61   Atom       -0.000398      0.000023     -0.000109
    62   Atom       -0.000834      0.000193     -0.000394
    63   Atom       -0.000802     -0.000054      0.000119
    64   Atom        0.002462      0.004239      0.001078
    65   Atom       -0.000712     -0.008252      0.002217
    66   Atom        0.000050      0.002630     -0.001929
    67   Atom        0.000035     -0.000247     -0.000519
    68   Atom        0.000200     -0.000531     -0.000676
    69   Atom        0.000058     -0.000398     -0.000131
    70   Atom        0.000036     -0.000047     -0.000484
    71   Atom       -0.004115     -0.000446      0.002066
    72   Atom        0.000056      0.000729      0.000663
    73   Atom       -0.000007      0.000128     -0.001933
    74   Atom       -0.007407      0.000419      0.006852
    75   Atom        0.002861      0.003979      0.004575
    76   Atom        0.004076     -0.000899      0.003182
    77   Atom        0.000001     -0.001403     -0.005900
    78   Atom        0.002813     -0.004178     -0.005187
 --------------------------------------------------------


 ---------------------------------------------------------------------------------
              Anisotropic Spin Dipole Couplings in Principal Axis System
 ---------------------------------------------------------------------------------

       Atom             a.u.   MegaHertz   Gauss  10(-4) cm-1        Axes

              Baa    -2.9169   -50.500   -18.020   -16.845  0.0982  0.9941  0.0471
     1 Fe(57) Bbb     1.3762    23.826     8.502     7.948 -0.0905 -0.0382  0.9952
              Bcc     1.5407    26.673     9.518     8.897  0.9910 -0.1020  0.0862
 
              Baa    -0.0250    -0.964    -0.344    -0.321  0.7538 -0.2989 -0.5851
     2 N(14)  Bbb    -0.0079    -0.303    -0.108    -0.101  0.1302  0.9408 -0.3128
              Bcc     0.0328     1.267     0.452     0.423  0.6440  0.1596  0.7482
 
              Baa    -0.0121    -0.466    -0.166    -0.155 -0.2852  0.6884 -0.6669
     3 N(14)  Bbb     0.0041     0.156     0.056     0.052 -0.0562  0.6826  0.7287
              Bcc     0.0080     0.310     0.110     0.103  0.9568  0.2453 -0.1560
 
              Baa    -0.0261    -1.007    -0.359    -0.336  0.7978 -0.3405  0.4975
     4 N(14)  Bbb    -0.0092    -0.354    -0.126    -0.118  0.1769  0.9211  0.3468
              Bcc     0.0353     1.361     0.486     0.454 -0.5764 -0.1887  0.7951
 
              Baa    -0.0141    -0.545    -0.194    -0.182 -0.2348  0.6302  0.7401
     5 N(14)  Bbb     0.0049     0.189     0.068     0.063 -0.1187  0.7371 -0.6653
              Bcc     0.0092     0.355     0.127     0.118  0.9648  0.2441  0.0983
 
              Baa    -0.0082    -1.099    -0.392    -0.367  0.0993  0.9741 -0.2030
     6 C(13)  Bbb     0.0022     0.290     0.103     0.097  0.7801  0.0504  0.6237
              Bcc     0.0060     0.809     0.289     0.270 -0.6178  0.2203  0.7549
 
              Baa    -0.0095    -1.269    -0.453    -0.423  0.3970  0.9104 -0.1166
     7 C(13)  Bbb    -0.0053    -0.712    -0.254    -0.237  0.9178 -0.3927  0.0589
              Bcc     0.0148     1.980     0.707     0.661 -0.0078  0.1304  0.9914
 
              Baa    -0.0102    -1.368    -0.488    -0.456 -0.3964  0.9134 -0.0930
     8 C(13)  Bbb    -0.0059    -0.796    -0.284    -0.265  0.9116  0.3796 -0.1574
              Bcc     0.0161     2.164     0.772     0.722  0.1085  0.1472  0.9831
 
              Baa    -0.0084    -1.128    -0.402    -0.376 -0.4846  0.8745 -0.0167
     9 C(13)  Bbb     0.0010     0.131     0.047     0.044 -0.0806 -0.0257  0.9964
              Bcc     0.0074     0.997     0.356     0.333  0.8710  0.4843  0.0829
 
              Baa    -0.0062    -0.829    -0.296    -0.277  0.9523 -0.1719 -0.2521
    10 C(13)  Bbb    -0.0005    -0.072    -0.026    -0.024  0.2414 -0.0809  0.9671
              Bcc     0.0067     0.901     0.321     0.300  0.1866  0.9818  0.0356
 
              Baa    -0.0018    -0.238    -0.085    -0.079  0.9706 -0.2384 -0.0324
    11 C(13)  Bbb    -0.0007    -0.089    -0.032    -0.030  0.0104 -0.0930  0.9956
              Bcc     0.0024     0.327     0.117     0.109  0.2403  0.9667  0.0878
 
              Baa    -0.0015    -0.202    -0.072    -0.067  0.8914  0.4437 -0.0921
    12 C(13)  Bbb    -0.0010    -0.137    -0.049    -0.046  0.1225 -0.0403  0.9917
              Bcc     0.0025     0.339     0.121     0.113 -0.4363  0.8953  0.0903
 
              Baa    -0.0073    -0.973    -0.347    -0.325  0.9565  0.2918 -0.0064
    13 C(13)  Bbb     0.0011     0.146     0.052     0.049  0.0095 -0.0091  0.9999
              Bcc     0.0062     0.827     0.295     0.276 -0.2917  0.9564  0.0115
 
              Baa    -0.0084    -1.127    -0.402    -0.376  0.0823  0.9806  0.1782
    14 C(13)  Bbb     0.0036     0.487     0.174     0.162  0.8477 -0.1629  0.5049
              Bcc     0.0048     0.640     0.228     0.213 -0.5241 -0.1095  0.8446
 
              Baa    -0.0118    -1.590    -0.567    -0.530  0.3982  0.8984  0.1852
    15 C(13)  Bbb    -0.0076    -1.020    -0.364    -0.340  0.9040 -0.4186  0.0870
              Bcc     0.0194     2.609     0.931     0.870 -0.1557 -0.1328  0.9788
 
              Baa    -0.0117    -1.575    -0.562    -0.525 -0.4166  0.9058  0.0772
    16 C(13)  Bbb    -0.0075    -1.012    -0.361    -0.338  0.8904  0.3894  0.2359
              Bcc     0.0193     2.588     0.923     0.863 -0.1836 -0.1671  0.9687
 
              Baa    -0.0093    -1.252    -0.447    -0.418 -0.4959  0.8683  0.0081
    17 C(13)  Bbb     0.0028     0.379     0.135     0.126  0.1990  0.1046  0.9744
              Bcc     0.0065     0.873     0.312     0.291  0.8452  0.4848 -0.2247
 
              Baa    -0.0069    -0.929    -0.331    -0.310  0.9627 -0.1658  0.2137
    18 C(13)  Bbb     0.0012     0.162     0.058     0.054 -0.2271 -0.0666  0.9716
              Bcc     0.0057     0.767     0.274     0.256  0.1469  0.9839  0.1018
 
              Baa    -0.0017    -0.225    -0.080    -0.075  0.9456 -0.2370  0.2230
    19 C(13)  Bbb    -0.0008    -0.108    -0.038    -0.036 -0.2400 -0.0452  0.9697
              Bcc     0.0025     0.332     0.118     0.111  0.2197  0.9705  0.0996
 
              Baa    -0.0018    -0.238    -0.085    -0.079  0.8287  0.4414 -0.3441
    20 C(13)  Bbb    -0.0008    -0.103    -0.037    -0.034  0.3513  0.0683  0.9338
              Bcc     0.0025     0.341     0.122     0.114 -0.4357  0.8947  0.0985
 
              Baa    -0.0073    -0.982    -0.350    -0.327  0.9517  0.3025  0.0518
    21 C(13)  Bbb     0.0015     0.204     0.073     0.068 -0.0110 -0.1350  0.9908
              Bcc     0.0058     0.778     0.278     0.259 -0.3067  0.9435  0.1251
 
              Baa    -0.0092    -1.239    -0.442    -0.413 -0.0035  0.1315  0.9913
    22 C(13)  Bbb    -0.0008    -0.107    -0.038    -0.036  0.6597  0.7453 -0.0965
              Bcc     0.0100     1.345     0.480     0.449  0.7515 -0.6536  0.0894
 
              Baa    -0.0016    -0.855    -0.305    -0.285  0.0230  0.1177  0.9928
    23 H(1)   Bbb    -0.0011    -0.580    -0.207    -0.194  0.6595  0.7446 -0.1035
              Bcc     0.0027     1.435     0.512     0.479  0.7514 -0.6571  0.0605
 
              Baa    -0.0095    -1.281    -0.457    -0.427  0.1291 -0.0140  0.9915
    24 C(13)  Bbb    -0.0006    -0.078    -0.028    -0.026  0.7899 -0.6031 -0.1114
              Bcc     0.0101     1.359     0.485     0.453  0.5995  0.7975 -0.0668
 
              Baa    -0.0016    -0.869    -0.310    -0.290  0.0954  0.0410  0.9946
    25 H(1)   Bbb    -0.0011    -0.565    -0.202    -0.188  0.8063 -0.5891 -0.0530
              Bcc     0.0027     1.434     0.512     0.478  0.5837  0.8070 -0.0893
 
              Baa    -0.0099    -1.323    -0.472    -0.441 -0.0502 -0.1668  0.9847
    26 C(13)  Bbb    -0.0006    -0.081    -0.029    -0.027  0.6538  0.7399  0.1587
              Bcc     0.0105     1.404     0.501     0.468  0.7550 -0.6517 -0.0719
 
              Baa    -0.0017    -0.882    -0.315    -0.294 -0.0711 -0.1675  0.9833
    27 H(1)   Bbb    -0.0010    -0.559    -0.200    -0.187  0.6600  0.7313  0.1723
              Bcc     0.0027     1.442     0.514     0.481  0.7479 -0.6612 -0.0586
 
              Baa    -0.0105    -1.414    -0.505    -0.472 -0.1529  0.0344  0.9876
    28 C(13)  Bbb     0.0001     0.007     0.003     0.002  0.7888 -0.5978  0.1429
              Bcc     0.0105     1.407     0.502     0.469  0.5953  0.8009  0.0643
 
              Baa    -0.0016    -0.865    -0.309    -0.289 -0.1272 -0.0189  0.9917
    29 H(1)   Bbb    -0.0010    -0.522    -0.186    -0.174  0.8078 -0.5821  0.0925
              Bcc     0.0026     1.387     0.495     0.463  0.5755  0.8129  0.0893
 
              Baa    -0.0010    -0.133    -0.048    -0.044 -0.5258  0.8415 -0.1239
    30 C(13)  Bbb    -0.0006    -0.082    -0.029    -0.027  0.0590  0.1814  0.9816
              Bcc     0.0016     0.216     0.077     0.072  0.8485  0.5089 -0.1450
 
              Baa    -0.0008    -0.405    -0.144    -0.135 -0.2928  0.9257  0.2395
    31 H(1)   Bbb    -0.0007    -0.384    -0.137    -0.128  0.2104 -0.1820  0.9605
              Bcc     0.0015     0.789     0.282     0.263  0.9327  0.3316 -0.1415
 
              Baa    -0.0009    -0.456    -0.163    -0.152  0.2488 -0.4193  0.8731
    32 H(1)   Bbb    -0.0007    -0.374    -0.133    -0.125 -0.5418  0.6870  0.4843
[...]
              Bcc     0.0015     0.825     0.294     0.275  0.9078 -0.3835  0.1700
 
              Baa    -0.0008    -0.403    -0.144    -0.134  0.1326  0.9271 -0.3507
    37 H(1)   Bbb    -0.0007    -0.371    -0.132    -0.124  0.0992  0.3396  0.9353
              Bcc     0.0014     0.774     0.276     0.258  0.9862 -0.1589 -0.0469
 
              Baa    -0.0007    -0.096    -0.034    -0.032  0.9521 -0.1627 -0.2589
    38 C(13)  Bbb    -0.0006    -0.084    -0.030    -0.028  0.2563 -0.0372  0.9659
              Bcc     0.0013     0.181     0.064     0.060  0.1668  0.9860 -0.0063
 
              Baa    -0.0007    -0.369    -0.132    -0.123 -0.3453  0.2422  0.9067
    39 H(1)   Bbb    -0.0007    -0.356    -0.127    -0.119  0.9024 -0.1797  0.3916
              Bcc     0.0014     0.726     0.259     0.242  0.2578  0.9534 -0.1565
 
              Baa    -0.0007    -0.364    -0.130    -0.121  0.2654 -0.2010  0.9430
    40 H(1)   Bbb    -0.0007    -0.359    -0.128    -0.120  0.9212 -0.2358 -0.3095
              Bcc     0.0014     0.723     0.258     0.241  0.2846  0.9508  0.1225
 
              Baa    -0.0005    -0.287    -0.103    -0.096  0.9820 -0.0526 -0.1814
    41 H(1)   Bbb    -0.0005    -0.274    -0.098    -0.091  0.1807 -0.0179  0.9834
              Bcc     0.0011     0.562     0.200     0.187  0.0550  0.9985  0.0080
 
              Baa    -0.0007    -0.098    -0.035    -0.033  0.7853  0.3143 -0.5334
    42 C(13)  Bbb    -0.0005    -0.070    -0.025    -0.023  0.5246  0.1197  0.8429
              Bcc     0.0013     0.169     0.060     0.056 -0.3288  0.9418  0.0709
 
              Baa    -0.0005    -0.290    -0.104    -0.097 -0.4443 -0.1316  0.8862
    43 H(1)   Bbb    -0.0005    -0.273    -0.097    -0.091  0.8510  0.2472  0.4633
              Bcc     0.0011     0.563     0.201     0.188 -0.2800  0.9600  0.0021
 
              Baa    -0.0006    -0.085    -0.030    -0.028 -0.0614 -0.2643  0.9625
    44 C(13)  Bbb    -0.0006    -0.080    -0.028    -0.027  0.8571  0.4802  0.1866
              Bcc     0.0012     0.165     0.059     0.055 -0.5115  0.8364  0.1970
 
              Baa    -0.0008    -0.420    -0.150    -0.140 -0.1265 -0.4788  0.8688
    45 H(1)   Bbb    -0.0007    -0.386    -0.138    -0.129  0.8140  0.4504  0.3668
              Bcc     0.0015     0.805     0.287     0.269 -0.5669  0.7536  0.3328
 
              Baa    -0.0004    -0.205    -0.073    -0.069 -0.2346 -0.3604  0.9028
    46 H(1)   Bbb    -0.0004    -0.198    -0.071    -0.066  0.8288  0.4111  0.3795
              Bcc     0.0008     0.403     0.144     0.134 -0.5079  0.8373  0.2022
 
              Baa    -0.0008    -0.112    -0.040    -0.037  0.3433  0.9035  0.2566
    47 C(13)  Bbb    -0.0004    -0.054    -0.019    -0.018 -0.1760 -0.2064  0.9625
              Bcc     0.0012     0.166     0.059     0.055  0.9226 -0.3756  0.0882
 
              Baa    -0.0009    -0.498    -0.178    -0.166 -0.1356  0.0969  0.9860
    48 H(1)   Bbb    -0.0007    -0.373    -0.133    -0.124  0.4854  0.8741 -0.0192
              Bcc     0.0016     0.870     0.311     0.290  0.8637 -0.4760  0.1656
 
              Baa    -0.0008    -0.442    -0.158    -0.147 -0.0713 -0.5729  0.8165
    49 H(1)   Bbb    -0.0007    -0.379    -0.135    -0.126  0.3621  0.7479  0.5564
              Bcc     0.0015     0.821     0.293     0.274  0.9294 -0.3354 -0.1541
 
              Baa    -0.0009    -0.474    -0.169    -0.158 -0.1279  0.3554  0.9259
    50 H(1)   Bbb    -0.0006    -0.327    -0.117    -0.109  0.2431  0.9163 -0.3182
              Bcc     0.0015     0.802     0.286     0.267  0.9615 -0.1844  0.2036
 
              Baa    -0.0065    -0.870    -0.310    -0.290  0.2110 -0.5162  0.8301
    51 C(13)  Bbb     0.0017     0.226     0.081     0.075 -0.4173  0.7204  0.5540
              Bcc     0.0048     0.644     0.230     0.215  0.8839  0.4633  0.0634
 
              Baa    -0.0010    -0.528    -0.189    -0.176  0.0540 -0.4408  0.8960
    52 H(1)   Bbb    -0.0008    -0.449    -0.160    -0.150 -0.5817  0.7155  0.3870
              Bcc     0.0018     0.978     0.349     0.326  0.8116  0.5421  0.2177
 
              Baa    -0.0066    -0.881    -0.314    -0.294 -0.4561  0.6668  0.5894
    53 C(13)  Bbb    -0.0049    -0.654    -0.233    -0.218  0.8248  0.5654 -0.0014
              Bcc     0.0114     1.535     0.548     0.512  0.3342 -0.4855  0.8078
 
              Baa    -0.0007    -0.357    -0.127    -0.119  0.1015 -0.4562  0.8841
    54 H(1)   Bbb    -0.0000    -0.022    -0.008    -0.007  0.3411  0.8507  0.3998
              Bcc     0.0007     0.379     0.135     0.126  0.9345 -0.2610 -0.2420
 
              Baa    -0.0010    -0.544    -0.194    -0.181  0.6134 -0.5170 -0.5970
    55 H(1)   Bbb    -0.0004    -0.219    -0.078    -0.073  0.2445 -0.5945  0.7660
              Bcc     0.0014     0.762     0.272     0.254  0.7509  0.6159  0.2383
 
              Baa    -0.0007    -0.097    -0.035    -0.032  0.9792 -0.1593  0.1254
    56 C(13)  Bbb    -0.0006    -0.085    -0.030    -0.028 -0.1281 -0.0063  0.9917
              Bcc     0.0014     0.182     0.065     0.061  0.1572  0.9872  0.0266
 
              Baa    -0.0007    -0.358    -0.128    -0.119  0.2235 -0.2050  0.9529
    57 H(1)   Bbb    -0.0007    -0.347    -0.124    -0.116  0.9443 -0.1966 -0.2638
              Bcc     0.0013     0.705     0.251     0.235  0.2415  0.9588  0.1496
 
              Baa    -0.0007    -0.377    -0.135    -0.126 -0.1844  0.1874  0.9648
    58 H(1)   Bbb    -0.0007    -0.363    -0.130    -0.121  0.9364 -0.2647  0.2304
              Bcc     0.0014     0.741     0.264     0.247  0.2986  0.9459 -0.1266
 
              Baa    -0.0005    -0.284    -0.101    -0.095  0.9865 -0.0502  0.1558
    59 H(1)   Bbb    -0.0005    -0.273    -0.097    -0.091 -0.1539  0.0402  0.9873
              Bcc     0.0010     0.557     0.199     0.186  0.0558  0.9979 -0.0320
 
              Baa    -0.0007    -0.093    -0.033    -0.031  0.9056  0.3361  0.2588
    60 C(13)  Bbb    -0.0006    -0.081    -0.029    -0.027 -0.2457 -0.0816  0.9659
              Bcc     0.0013     0.174     0.062     0.058 -0.3457  0.9383 -0.0087
 
              Baa    -0.0005    -0.287    -0.102    -0.096  0.9429  0.2709  0.1939
    61 H(1)   Bbb    -0.0005    -0.270    -0.096    -0.090 -0.2061  0.0172  0.9784
              Bcc     0.0010     0.557     0.199     0.186 -0.2618  0.9624 -0.0720
 
              Baa    -0.0007    -0.384    -0.137    -0.128  0.3802  0.4060  0.8310
    62 H(1)   Bbb    -0.0007    -0.367    -0.131    -0.122  0.8031  0.3008 -0.5144
              Bcc     0.0014     0.751     0.268     0.250 -0.4588  0.8629 -0.2117
 
              Baa    -0.0007    -0.355    -0.127    -0.118 -0.4425 -0.2929  0.8476
    63 H(1)   Bbb    -0.0006    -0.347    -0.124    -0.116  0.7699  0.3605  0.5266
              Bcc     0.0013     0.701     0.250     0.234 -0.4598  0.8856  0.0660
 
              Baa    -0.0091     0.661     0.236     0.220  0.8299 -0.5412 -0.1359
    64 O(17)  Bbb    -0.0043     0.315     0.112     0.105  0.5157  0.8369 -0.1837
              Bcc     0.0135    -0.976    -0.348    -0.325  0.2131  0.0824  0.9735
 
              Baa    -0.0082    -4.352    -1.553    -1.452  0.7596 -0.5393  0.3635
    65 H(1)   Bbb    -0.0078    -4.153    -1.482    -1.385  0.5334  0.8364  0.1264
              Bcc     0.0159     8.505     3.035     2.837 -0.3722  0.0979  0.9230
 
              Baa    -0.0063    -3.373    -1.204    -1.125  0.7803 -0.5985 -0.1815
    66 H(1)   Bbb    -0.0056    -3.000    -1.071    -1.001  0.6080  0.7939 -0.0039
              Bcc     0.0119     6.374     2.274     2.126  0.1465 -0.1073  0.9834
 
              Baa    -0.0007    -0.093    -0.033    -0.031  0.4759  0.8260  0.3022
    67 C(13)  Bbb    -0.0006    -0.082    -0.029    -0.027  0.8700 -0.4925 -0.0239
              Bcc     0.0013     0.174     0.062     0.058 -0.1291 -0.2743  0.9530
 
              Baa    -0.0008    -0.402    -0.143    -0.134 -0.0147  0.9377  0.3471
    68 H(1)   Bbb    -0.0007    -0.379    -0.135    -0.126  0.9624 -0.0810  0.2594
              Bcc     0.0015     0.781     0.279     0.260 -0.2714 -0.3379  0.9012
 
              Baa    -0.0007    -0.351    -0.125    -0.117 -0.3324  0.9431 -0.0051
    69 H(1)   Bbb    -0.0006    -0.305    -0.109    -0.102  0.9154  0.3239  0.2392
              Bcc     0.0012     0.656     0.234     0.219 -0.2272 -0.0749  0.9710
 
              Baa    -0.0006    -0.335    -0.120    -0.112 -0.5426  0.8115  0.2170
    70 H(1)   Bbb    -0.0006    -0.310    -0.111    -0.103  0.8394  0.5145  0.1750
              Bcc     0.0012     0.645     0.230     0.215 -0.0303 -0.2771  0.9604
 
              Baa    -0.0045    -0.175    -0.063    -0.059  0.5122  0.7864 -0.3453
    71 N(14)  Bbb    -0.0005    -0.018    -0.006    -0.006  0.4357  0.1085  0.8935
              Bcc     0.0050     0.194     0.069     0.065  0.7401 -0.6081 -0.2871
 
              Baa    -0.0013    -0.712    -0.254    -0.237  0.3054  0.9207 -0.2428
    72 H(1)   Bbb    -0.0011    -0.562    -0.201    -0.188  0.9277 -0.3452 -0.1419
              Bcc     0.0024     1.274     0.455     0.425  0.2145  0.1820  0.9596
 
              Baa    -0.0027    -0.364    -0.130    -0.122 -0.0166  0.9331  0.3593
    73 C(13)  Bbb    -0.0003    -0.046    -0.016    -0.015  0.9992  0.0284 -0.0276
              Bcc     0.0031     0.410     0.146     0.137  0.0359 -0.3585  0.9328
 
              Baa    -0.0117    -1.572    -0.561    -0.524  0.7644  0.5891 -0.2620
    74 C(13)  Bbb     0.0005     0.066     0.023     0.022  0.5857 -0.4648  0.6640
              Bcc     0.0112     1.506     0.537     0.502 -0.2694  0.6610  0.7003
 
              Baa    -0.0044    -2.334    -0.833    -0.778 -0.5309  0.8174 -0.2235
    75 H(1)   Bbb    -0.0039    -2.078    -0.741    -0.693  0.7225  0.2988 -0.6235
              Bcc     0.0083     4.412     1.574     1.472  0.4429  0.4925  0.7492
 
              Baa    -0.0146    -0.561    -0.200    -0.187  0.0653 -0.1949  0.9786
    76 N(14)  Bbb     0.0018     0.070     0.025     0.023 -0.3776  0.9030  0.2050
              Bcc     0.0127     0.492     0.175     0.164  0.9237  0.3829  0.0146
 
              Baa    -0.0064    -0.854    -0.305    -0.285  0.9506  0.2400  0.1970
    77 C(13)  Bbb    -0.0042    -0.567    -0.202    -0.189 -0.3012  0.8670  0.3971
              Bcc     0.0106     1.421     0.507     0.474 -0.0755 -0.4368  0.8964
 
              Baa    -0.0046    -2.473    -0.883    -0.825 -0.0441  0.8416  0.5383
    78 H(1)   Bbb    -0.0043    -2.289    -0.817    -0.764  0.9065 -0.1928  0.3756
              Bcc     0.0089     4.763     1.699     1.589 -0.4199 -0.5045  0.7544
 

 ---------------------------------------------------------------------------------

 Unable to Open any file for archive entry.
 1\1\GINC-BGN1023\SP\UAPFD\Gen\C34H36Fe1N6O1(1+,2)\BEBJONES\11-Jul-2024
 \0\\# apfd/gen scf=maxcycle=999 geom=check\\1arp_III_D\\1,2\Fe,0,17.73
 85049022,23.6278123639,30.0320285059\N,0,16.4523808337,22.2880441592,2
 9.2972206638\N,0,16.4363968051,25.077681358,29.6981401906\N,0,18.94132
 84568,24.8925515782,30.9831127787\N,0,19.0479499455,22.1583123665,30.3
 680195414\C,0,16.6785184858,20.9708902304,29.0548551499\C,0,15.4728039
 843,20.3232872502,28.5909293682\C,0,14.507176705,21.2824544984,28.5666
 25739\C,0,15.1438214252,22.5103152512,28.9873242031\C,0,15.1541732127,
 24.9482926253,29.2627130054\C,0,14.5377183198,26.2382286872,29.1018911
 991\C,0,15.479847188,27.1658221441,29.460185682\C,0,16.6453352197,26.4
 090608517,29.8770996991\C,0,18.7438076883,26.231028929,31.1355145382\C
 ,0,19.7251382198,26.7953102585,32.0270424696\C,0,20.5464981277,25.7625
 628479,32.3973799799\C,0,20.0441786229,24.5877257683,31.7108704142\C,0
 ,20.2326740243,22.2464030952,31.0266681201\C,0,20.9688703507,21.005124
 8756,30.9271400154\C,0,20.1792419264,20.1499538483,30.2247947851\C,0,1
 8.9734569124,20.8824989978,29.9027276445\C,0,17.875588272,20.316306730
 5,29.2834410362\H,0,17.9394253734,19.2765174274,29.0012491721\C,0,14.5
 299815777,23.7476777205,28.9612176632\H,0,13.4920717496,23.7855282877,
 28.6666530265\C,0,17.7088976661,26.954859735,30.5687948441\H,0,17.6941
 792979,28.0208170539,30.7348915948\C,0,20.6869963908,23.3632530256,31.
 7022113973\H,0,21.61440132,23.2765205399,32.2476820708\C,0,13.07224474
 43,21.1685370985,28.1787995361\H,0,12.8064988384,20.1333882814,27.9787
 175605\H,0,12.868544071,21.7535852328,27.2810335997\H,0,12.4286944352,
 21.540601034,28.9759870138\C,0,15.3763929356,18.8774271039,28.24193973
 97\H,0,15.6081215886,18.2568705956,29.1081309213\H,0,16.082869721,18.6
 27376533,27.450256137\H,0,14.3753913148,18.6272068676,27.8989285497\C,
 0,13.1538238326,26.4664669823,28.5988010961\H,0,12.4285157971,25.93090
 70219,29.2120293079\H,0,13.0537787619,26.1102521956,27.5726453809\H,0,
 12.9089988556,27.5254455078,28.6158243697\C,0,15.3429439508,28.6054599
 755,29.4209734958\H,0,14.3509456258,28.9850675213,29.6417319529\C,0,16
 .305277567,29.4650547109,29.1029542204\H,0,17.2930884776,29.138518975,
 28.825342935\H,0,16.1294103644,30.5280230373,29.0886786332\C,0,19.7536
 175452,28.2113234105,32.4867334213\H,0,18.7432578311,28.5984148424,32.
 6080824897\H,0,20.2723548452,28.8443086325,31.7647134105\H,0,20.272240
 2111,28.2837105567,33.440740165\C,0,21.6777460129,25.7615462441,33.297
 2180818\H,0,21.8304072753,24.8415245999,33.8501071119\C,0,22.522456358
 4,26.7711636122,33.4836938528\H,0,22.4497526436,27.6901495398,32.92903
 41881\H,0,23.337406675,26.7009359483,34.1851601889\C,0,22.3151928633,2
 0.7769754852,31.5241947429\H,0,22.2718826111,20.8652286203,32.61026122
 13\H,0,23.02889772,21.5133489632,31.1546420148\H,0,22.6854515923,19.78
 48844135,31.2774098231\C,0,20.4325499735,18.7334674017,29.8362234407\H
 ,0,21.4341228679,18.4258631243,30.1268112299\H,0,20.3325449471,18.6077
 455065,28.758098116\H,0,19.7170267047,18.06871988,30.3216039545\O,0,16
 .768,23.1289999999,32.03\H,0,16.343,22.2869999997,31.8659999998\H,0,16
 .6179999999,23.668,32.721\C,0,21.2870632107,24.5137947238,25.840299718
 9\H,0,22.1603822179,24.5104753009,26.4847777554\H,0,21.2416155624,25.4
 693289237,25.3180200877\H,0,21.3982959654,23.72426756,25.0971642792\N,
 0,18.8105264624,24.2602853629,26.1092974459\H,0,18.5914671091,24.36972
 98698,25.1327877319\C,0,20.0658499453,24.3005170214,26.6575739046\C,0,
 17.930761475,24.0518431849,27.1151732033\H,0,16.8713537736,23.97523869
 92,26.9823220013\N,0,18.5528579477,23.9573185407,28.2651384258\C,0,19.
 8813803675,24.1104869972,27.9972009923\H,0,20.6083298838,24.0731283637
 ,28.7820357017\\Version=ES64L-G16RevC.02\State=2-A\HF=-2983.2103453\S2
 =0.798477\S2-1=0.\S2A=0.750772\RMSD=2.082e-09\Dipole=0.0523257,-0.2600
 807,-1.5600399\Quadrupole=2.247399,-0.3803556,-1.8670434,2.463186,4.73
 35204,2.1517477\PG=C01 [X(C34H36Fe1N6O1)]\\@
 The archive entry for this job was punched.


                                                                                    A
                                                                                  AA
                                                                                 AAA
                                                                                AAAA
                                                                               AAAAA
                                                                              AAAAAA   KKKKKKKK
                                                                             AAAAAAA   KKKKKKKK
                                                                            AAAAAAAA   KKKKKKKK
                                       ZZZZZZZZZZZZZZZZZZZZ                AAAA  AAA   KKKKKKKK
                                       ZZZZZZZZZZZZZZZZZZZ                AAAA   AAA   KKKKKKKK          K
                                       ZZZZZZZZZZZZZZZZZZ                AAAA    AAA   KKKKKKKK         KKK
                                       ZZZZZZZZZZZZZZZZZ                AAAA     AAA   KKKKKKKK        KKKKK
                                       ZZZZZZZZZZZZZZZZ                AAAA      AAA   KKKKKKKK       KKKKKKK
                                                ZZZZZZ                AAAA       AAA   KKKKKKKK      KKKKKKK
                                               ZZZZZZ                AAAA        AAA   KKKKKKKK     KKKKKKK
                                              ZZZZZZ                AAAA         AAA   KKKKKKKK    KKKKKKK
                                             ZZZZZZ                AAAA          AAA   KKKKKKKK   KKKKKKK
                                            ZZZZZZ                AAAAAAAAAAAAAAAAAA   KKKKKKKK  KKKKKKK
                                           ZZZZZZ                AAAAAAAAAAAAAAAAAAA   KKKKKKKK KKKKKKK
                                          ZZZZZZ                AAAAAAAAAAAAAAAAAAAA   KKKKKKKKKKKKKKK
                                         ZZZZZZ                AAAAAAAAAAAAAAAAAAAAA   KKKKKKKKKKKKKK
                                        ZZZZZZ                AAAAAA        AAAAAAAA   KKKKKKKKKKKKK
                                       ZZZZZZ                AAAAAA         AAAAAAAA   KKKKKKKKKKKK
                                      ZZZZZZ                AAAAAA          AAAAAAAA   KKKKKKKKKKK
                                     ZZZZZZ                AAAAAA           AAAAAAAA   KKKKKKKKKKKK
                                    ZZZZZZ                AAAAAA            AAAAAAAA   KKKKKKKKKKKKK
                                   ZZZZZZ                AAAAAA             AAAAAAAA   KKKKKKKKKKKKKK
                                  ZZZZZZ                AAAAAA              AAAAAAAA   KKKKKKKKKKKKKKK
                                 ZZZZZZ                AAAAAA               AAAAAAAA   KKKKK KKKKKKKKKK
                                ZZZZZZ                AAAAAA                AAAAAAAA   KKKKK  KKKKKKKKKK
                               ZZZZZZ                AAAAAA                            KKKKK   KKKKKKKKKK
                              ZZZZZZ                AAAAAA                             KKKKK    KKKKKKKKKK
                             ZZZZZZ                                                    KKKKK     KKKKKKKKKK
                            ZZZZZZ                                                     KKKKK      KKKKKKKKKK
                           ZZZZZZ                                                      KKKKK       KKKKKKKKKK
                          ZZZZZZ                                                       KKKKK        KKKKKKKKKK
                         ZZZZZZZZZZZZZZZZZZZZZZZZZZZZZZZZZZZZZZZZ                      KKKKK         KKKKKKKKKK
                        ZZZZZZZZZZZZZZZZZZZZZZZZZZZZZZZZZZZZZZZZZ                      KKKKK          KKKKKKKKKK
                       ZZZZZZZZZZZZZZZZZZZZZZZZZZZZZZZZZZZZZZZZZZ                      KKKKK           KKKKKKKKKK
                       ZZZZZZZZZZZZZZZZZZZZZZZZZZZZZZZZZZZZZZZZZZ                      KKKKK            KKKKKKKKKK
                       ZZZZZZZZZZZZZZZZZZZZZZZZZZZZZZZZZZZZZZZZZZ                      KKKKK             KKKKKKKKKK
                       ZZZZZZZZZZZZZZZZZZZZZZZZZZZZZZZZZZZZZZZZZZ                      KKKKK              KKKKKKKKKK
                       ZZZZZZZZZZZZZZZZZZZZZZZZZZZZZZZZZZZZZZZZZZ                      KKKKK               KKKKKKKKKK
                       ZZZZZZZZZZZZZZZZZZZZZZZZZZZZZZZZZZZZZZZZZZ                      KKKKK                KKKKKKKKKK
                       ZZZZZZZZZZZZZZZZZZZZZZZZZZZZZZZZZZZZZZZZZZ                      KKKKK
                                                                                       KKKKK
                                                                                          (J.P.)
 Job cpu time:       0 days  6 hours 10 minutes 26.0 seconds.
 Elapsed time:       0 days  0 hours  6 minutes 16.2 seconds.
 File lengths (MBytes):  RWF=    430 Int=      0 D2E=      0 Chk=    155 Scr=      1
 Normal termination of Gaussian 16 at Thu Jul 11 01:25:51 2024.
