 Entering Gaussian System, Link 0=g16
 Input=1arp05.com
 Output=1arp05.log
 Initial command:
 /sw/chem/gaussian/g16_C02/a100/g16/l1.exe "/local/bebjones_7929040/Gau-1051164.inp" -scrdir="/local/bebjones_7929040/"
 Entering Link 1 = /sw/chem/gaussian/g16_C02/a100/g16/l1.exe PID=   1051165.
  
 Copyright (c) 1988-2021, Gaussian, Inc.  All Rights Reserved.
  
 This is part of the Gaussian(R) 16 program.  It is based on
 the Gaussian(R) 09 system (copyright 2009, Gaussian, Inc.),
 the Gaussian(R) 03 system (copyright 2003, Gaussian, Inc.),
 the Gaussian(R) 98 system (copyright 1998, Gaussian, Inc.),
 the Gaussian(R) 94 system (copyright 1995, Gaussian, Inc.),
 the Gaussian 92(TM) system (copyright 1992, Gaussian, Inc.),
 the Gaussian 90(TM) system (copyright 1990, Gaussian, Inc.),
 the Gaussian 88(TM) system (copyright 1988, Gaussian, Inc.),
 the Gaussian 86(TM) system (copyright 1986, Carnegie Mellon
 University), and the Gaussian 82(TM) system (copyright 1983,
 Carnegie Mellon University). Gaussian is a federally registered
 trademark of Gaussian, Inc.
  
 This software contains proprietary and confidential information,
 including trade secrets, belonging to Gaussian, Inc.
  
 This software is provided under written license and may be
 used, copied, transmitted, or stored only in accord with that
 written license.
  
 The following legend is applicable only to US Government
 contracts under FAR:
  
                    RESTRICTED RIGHTS LEGEND
  
 Use, reproduction and disclosure by the US Government is
 subject to restrictions as set forth in subparagraphs (a)
 and (c) of the Commercial Computer Software - Restricted
 Rights clause in FAR 52.227-19.
  
 Gaussian, Inc.
 340 Quinnipiac St., Bldg. 40, Wallingford CT 06492
  
  
 ---------------------------------------------------------------
 Warning -- This program may not be used in any manner that
 competes with the business of Gaussian, Inc. or will provide
 assistance to any competitor of Gaussian, Inc.  The licensee
 of this program is prohibited from giving any competitor of
 Gaussian, Inc. access to this program.  By using this program,
 the user acknowledges that Gaussian, Inc. is engaged in the
 business of creating and licensing software in the field of
 computational chemistry and represents and warrants to the
 licensee that it is not a competitor of Gaussian, Inc. and that
 it will not use this program in any manner prohibited above.
 ---------------------------------------------------------------
  

 Cite this work as:
 Gaussian 16, Revision C.02,
 M. J. Frisch, G. W. Trucks, H. B. Schlegel, G. E. Scuseria, 
 M. A. Robb, J. R. Cheeseman, G. Scalmani, V. Barone, 
 G. A. Petersson, H. Nakatsuji, X. Li, M. Caricato, A. V. Marenich, 
 J. Bloino, B. G. Janesko, R. Gomperts, B. Mennucci, H. P. Hratchian, 
 J. V. Ortiz, A. F. Izmaylov, J. L. Sonnenberg, D. Williams-Young, 
 F. Ding, F. Lipparini, F. Egidi, J. Goings, B. Peng, A. Petrone, 
 T. Henderson, D. Ranasinghe, V. G. Zakrzewski, J. Gao, N. Rega, 
 G. Zheng, W. Liang, M. Hada, M. Ehara, K. Toyota, R. Fukuda, 
 J. Hasegawa, M. Ishida, T. Nakajima, Y. Honda, O. Kitao, H. Nakai, 
 T. Vreven, K. Throssell, J. A. Montgomery, Jr., J. E. Peralta, 
 F. Ogliaro, M. J. Bearpark, J. J. Heyd, E. N. Brothers, K. N. Kudin, 
 V. N. Staroverov, T. A. Keith, R. Kobayashi, J. Normand, 
 K. Raghavachari, A. P. Rendell, J. C. Burant, S. S. Iyengar, 
 J. Tomasi, M. Cossi, J. M. Millam, M. Klene, C. Adamo, R. Cammi, 
 J. W. Ochterski, R. L. Martin, K. Morokuma, O. Farkas, 
 J. B. Foresman, and D. J. Fox, Gaussian, Inc., Wallingford CT, 2019.
 
 ******************************************
 Gaussian 16:  ES64L-G16RevC.02  7-Dec-2021
                11-Jul-2024 
 ******************************************
 %mem=16GB
 %CPU=0-71
 SetSPE:  set environment variable "OMP_PROC_BIND" = "true"
 SetSPE:  set environment variable "OMP_PLACES" = "{0},{1},{2},{3},{4},{5},{6},{7},{8},{9},{10},{11},{12},{13},{14},{15},{16},{17},{18},{19},{20},{21},{22},{23},{24},{25},{26},{27},{28},{29},{30},{31},{32},{33},{34},{35},{36},{37},{38},{39},{40},{41},{42},{43},{44},{45},{46},{47},{48},{49},{50},{51},{52},{53},{54},{55},{56},{57},{58},{59},{60},{61},{62},{63},{64},{65},{66},{67},{68},{69},{70},{71}"
 Will use up to   72 processors via shared memory.
 %gpucpu=0,1,2,3=0,1,2,3
 Will use    4 GPUs:
 Thread  CPU   GPU
      0    0     0
      1    1     1
      2    2     2
      3    3     3
      4    4    -1
      5    5    -1
      6    6    -1
      7    7    -1
      8    8    -1
      9    9    -1
     10   10    -1
     11   11    -1
     12   12    -1
     13   13    -1
     14   14    -1
     15   15    -1
     16   16    -1
     17   17    -1
     18   18    -1
     19   19    -1
     20   20    -1
     21   21    -1
     22   22    -1
     23   23    -1
     24   24    -1
     25   25    -1
     26   26    -1
     27   27    -1
     28   28    -1
     29   29    -1
     30   30    -1
     31   31    -1
     32   32    -1
     33   33    -1
     34   34    -1
     35   35    -1
     36   36    -1
     37   37    -1
     38   38    -1
     39   39    -1
     40   40    -1
     41   41    -1
     42   42    -1
     43   43    -1
     44   44    -1
     45   45    -1
     46   46    -1
     47   47    -1
     48   48    -1
     49   49    -1
     50   50    -1
     51   51    -1
     52   52    -1
     53   53    -1
     54   54    -1
     55   55    -1
     56   56    -1
     57   57    -1
     58   58    -1
     59   59    -1
     60   60    -1
     61   61    -1
     62   62    -1
     63   63    -1
     64   64    -1
     65   65    -1
     66   66    -1
     67   67    -1
     68   68    -1
     69   69    -1
     70   70    -1
     71   71    -1
 SetGPE:  set environment variable "OMP_PROC_BIND" = "true"
 SetGPE:  set environment variable "OMP_PLACES" = "{0},{1},{2},{3},{4},{5},{6},{7},{8},{9},{10},{11},{12},{13},{14},{15},{16},{17},{18},{19},{20},{21},{22},{23},{24},{25},{26},{27},{28},{29},{30},{31},{32},{33},{34},{35},{36},{37},{38},{39},{40},{41},{42},{43},{44},{45},{46},{47},{48},{49},{50},{51},{52},{53},{54},{55},{56},{57},{58},{59},{60},{61},{62},{63},{64},{65},{66},{67},{68},{69},{70},{71}"
 %oldchk=1arp_II_Sre.chk
 %chk=1arp_II_Qn.chk
 Properties for Device   0
 Minimum vector length:                              32
 Maximum vector length:                            1024
 Number of SMPs:                                    108
 Maximum number of threads per SMP:                2048
 Number of ASync Engines:                             5
 Memory:                                           9207742464
 Properties for Device   1
 Minimum vector length:                              32
 Maximum vector length:                            1024
 Number of SMPs:                                    108
 Maximum number of threads per SMP:                2048
 Number of ASync Engines:                             5
 Memory:                                           9207742464
 Properties for Device   2
 Minimum vector length:                              32
 Maximum vector length:                            1024
 Number of SMPs:                                    108
 Maximum number of threads per SMP:                2048
 Number of ASync Engines:                             5
 Memory:                                           9207742464
 Properties for Device   3
 Minimum vector length:                              32
 Maximum vector length:                            1024
 Number of SMPs:                                    108
 Maximum number of threads per SMP:                2048
 Number of ASync Engines:                             5
 Memory:                                           9207742464
   8286968217 words of memory will be used on each GPU.
 Copying data from "1arp_II_Sre.chk" to current chk file "1arp_II_Qn.chk"
 IOpt=  2 FromEx=T IUOpen= 4 IOptOp= 5 NList=   0 IFRang= 0 IUIn= 4 IUOut= 2.
 --------------------------------------------------------------
 # apfd/def2TZVP guess=read scf=maxcycle=999 geom=check pop=nbo
 --------------------------------------------------------------
 1/29=2,38=1,172=1/1;
 2/12=2,40=1/2;
 3/5=44,7=101,11=2,14=-4,25=1,30=1,74=-44,116=-2/1,2,3;
 4/5=1/1;
 5/5=2,7=999,38=6/2;
 6/7=2,8=2,9=2,10=2,28=1,40=1/1,7;
 99/5=1,9=1/99;
 ---------
 1arp_II_Q
 ---------
 Structure from the checkpoint file:  "1arp_II_Qn.chk"
 Charge =  0 Multiplicity = 5
 Z-Matrix found in chk file.
 Fe,0,17.7385049022,23.6278123639,30.0320285059
 N,0,16.4523808337,22.2880441592,29.2972206638
 N,0,16.4363968051,25.077681358,29.6981401906
 N,0,18.9413284568,24.8925515782,30.9831127787
 N,0,19.0479499455,22.1583123665,30.3680195414
 C,0,16.6785184858,20.9708902304,29.0548551499
 C,0,15.4728039843,20.3232872502,28.5909293682
 C,0,14.507176705,21.2824544984,28.566625739
 C,0,15.1438214252,22.5103152512,28.9873242031
 C,0,15.1541732127,24.9482926253,29.2627130054
 C,0,14.5377183198,26.2382286872,29.1018911991
 C,0,15.479847188,27.1658221441,29.460185682
 C,0,16.6453352197,26.4090608517,29.8770996991
 C,0,18.7438076883,26.231028929,31.1355145382
 C,0,19.7251382198,26.7953102585,32.0270424696
 C,0,20.5464981277,25.7625628479,32.3973799799
 C,0,20.0441786229,24.5877257683,31.7108704142
 C,0,20.2326740243,22.2464030952,31.0266681201
 C,0,20.9688703507,21.0051248756,30.9271400154
 C,0,20.1792419264,20.1499538483,30.2247947851
 C,0,18.9734569124,20.8824989978,29.9027276445
 C,0,17.875588272,20.3163067305,29.2834410362
 H,0,17.9394253734,19.2765174274,29.0012491721
 C,0,14.5299815777,23.7476777205,28.9612176632
 H,0,13.4920717496,23.7855282877,28.6666530265
 C,0,17.7088976661,26.954859735,30.5687948441
 H,0,17.6941792979,28.0208170539,30.7348915948
 C,0,20.6869963908,23.3632530256,31.7022113973
 H,0,21.61440132,23.2765205399,32.2476820708
 C,0,13.0722447443,21.1685370985,28.1787995361
 H,0,12.8064988384,20.1333882814,27.9787175605
 H,0,12.868544071,21.7535852328,27.2810335997
 H,0,12.4286944352,21.540601034,28.9759870138
 C,0,15.3763929356,18.8774271039,28.2419397397
 H,0,15.6081215886,18.2568705956,29.1081309213
 H,0,16.082869721,18.627376533,27.450256137
 H,0,14.3753913148,18.6272068676,27.8989285497
 C,0,13.1538238326,26.4664669823,28.5988010961
 H,0,12.4285157971,25.9309070219,29.2120293079
 H,0,13.0537787619,26.1102521956,27.5726453809
 H,0,12.9089988556,27.5254455078,28.6158243697
 C,0,15.3429439508,28.6054599755,29.4209734958
 H,0,14.3509456258,28.9850675213,29.6417319529
 C,0,16.305277567,29.4650547109,29.1029542204
 H,0,17.2930884776,29.138518975,28.825342935
 H,0,16.1294103644,30.5280230373,29.0886786332
 C,0,19.7536175452,28.2113234105,32.4867334213
 H,0,18.7432578311,28.5984148424,32.6080824897
 H,0,20.2723548452,28.8443086325,31.7647134105
 H,0,20.2722402111,28.2837105567,33.440740165
 C,0,21.6777460129,25.7615462441,33.2972180818
 H,0,21.8304072753,24.8415245999,33.8501071119
 C,0,22.5224563584,26.7711636122,33.4836938528
 H,0,22.4497526436,27.6901495398,32.9290341881
 H,0,23.337406675,26.7009359483,34.1851601889
 C,0,22.3151928633,20.7769754852,31.5241947429
 H,0,22.2718826111,20.8652286203,32.6102612213
 H,0,23.02889772,21.5133489632,31.1546420148
 H,0,22.6854515923,19.7848844135,31.2774098231
 C,0,20.4325499735,18.7334674017,29.8362234407
 H,0,21.4341228679,18.4258631243,30.1268112299
 H,0,20.3325449471,18.6077455065,28.758098116
 H,0,19.7170267047,18.06871988,30.3216039545
 O,0,16.768,23.1289999999,32.03
 H,0,16.343,22.2869999997,31.8659999998
 H,0,16.6179999999,23.668,32.721
 C,0,21.2870632107,24.5137947238,25.8402997189
 H,0,22.1603822179,24.5104753009,26.4847777554
 H,0,21.2416155624,25.4693289237,25.3180200877
 H,0,21.3982959654,23.72426756,25.0971642792
 N,0,18.8105264624,24.2602853629,26.1092974459
 H,0,18.5914671091,24.3697298698,25.1327877319
 C,0,20.0658499453,24.3005170214,26.6575739046
 C,0,17.930761475,24.0518431849,27.1151732033
 H,0,16.8713537736,23.9752386992,26.9823220013
 N,0,18.5528579477,23.9573185407,28.2651384258
 C,0,19.8813803675,24.1104869972,27.9972009923
 H,0,20.6083298838,24.0731283637,28.7820357017
 Recover connectivity data from disk.
 Stoichiometry    C34H36FeN6O(5)
 Framework group  C1[X(C34H36FeN6O)]
 Deg. of freedom   228
 Full point group                 C1      NOp   1
 Largest Abelian subgroup         C1      NOp   1
 Largest concise Abelian subgroup C1      NOp   1
                         Standard orientation:                         
 ---------------------------------------------------------------------
 Center     Atomic      Atomic             Coordinates (Angstroms)
 Number     Number       Type             X           Y           Z
 ---------------------------------------------------------------------
      1         26           0        0.199406   -0.014878   -0.351410
      2          7           0        2.184106    0.178841   -0.463102
      3          7           0       -0.001842    1.951667   -0.315499
      4          7           0       -1.771284   -0.239638   -0.480932
      5          7           0        0.410055   -2.000102   -0.389829
      6          6           0        3.116381   -0.806649   -0.396422
      7          6           0        4.443100   -0.267682   -0.590575
      8          6           0        4.288774    1.070737   -0.785114
      9          6           0        2.871782    1.336046   -0.676984
     10          6           0        0.978031    2.882316   -0.470988
     11          6           0        0.443856    4.211775   -0.340565
     12          6           0       -0.898477    4.069391   -0.107581
     13          6           0       -1.160164    2.642886   -0.145913
     14          6           0       -2.698836    0.756628   -0.451546
     15          6           0       -4.012174    0.242505   -0.746615
     16          6           0       -3.863215   -1.106966   -0.933933
     17          6           0       -2.452577   -1.383161   -0.739819
     18          6           0       -0.575319   -2.930593   -0.481340
     19          6           0       -0.038425   -4.264289   -0.321139
     20          6           0        1.304759   -4.117982   -0.170905
     21          6           0        1.568344   -2.696627   -0.238290
     22          6           0        2.838331   -2.152088   -0.234590
     23          1           0        3.674343   -2.829088   -0.147267
     24          6           0        2.320384    2.602736   -0.675721
     25          1           0        2.986348    3.438804   -0.827181
     26          6           0       -2.425350    2.095730   -0.232111
     27          1           0       -3.261038    2.776895   -0.190755
     28          6           0       -1.912674   -2.655636   -0.695818
     29          1           0       -2.582521   -3.492486   -0.822816
     30          6           0        5.322889    2.113234   -1.042451
     31          1           0        6.305211    1.662687   -1.161769
     32          1           0        5.369810    2.821553   -0.214295
     33          1           0        5.088162    2.670845   -1.949132
     34          6           0        5.690803   -1.083027   -0.583291
     35          1           0        5.666915   -1.828969   -1.378323
     36          1           0        5.799488   -1.606966    0.366483
     37          1           0        6.565786   -0.454265   -0.729352
     38          6           0        1.246524    5.465212   -0.411092
     39          1           0        1.792698    5.519591   -1.353261
     40          1           0        1.973788    5.502649    0.401053
     41          1           0        0.603330    6.337897   -0.331176
     42          6           0       -1.856423    5.125605    0.136529
     43          1           0       -1.672023    6.053397   -0.394597
     44          6           0       -2.888765    5.055287    0.970466
     45          1           0       -3.086704    4.176586    1.560524
     46          1           0       -3.560518    5.886608    1.107163
     47          6           0       -5.244924    1.065973   -0.886075
     48          1           0       -5.015879    2.031374   -1.334328
     49          1           0       -5.703942    1.247018    0.087371
     50          1           0       -5.968282    0.551441   -1.515637
     51          6           0       -4.850849   -2.104288   -1.279414
     52          1           0       -4.486763   -2.929294   -1.881276
     53          6           0       -6.129984   -2.088415   -0.917199
     54          1           0       -6.536920   -1.321819   -0.281431
     55          1           0       -6.812184   -2.863058   -1.226490
     56          6           0       -0.858072   -5.508660   -0.349963
     57          1           0       -1.334584   -5.630304   -1.323279
     58          1           0       -1.642080   -5.469620    0.406341
     59          1           0       -0.240888   -6.383647   -0.160962
     60          6           0        2.353112   -5.160252    0.019401
     61          1           0        1.905549   -6.147005    0.110050
     62          1           0        2.933183   -4.960770    0.920448
     63          1           0        3.039391   -5.173282   -0.828129
     64          8           0        0.298561   -0.027580   -2.625743
     65          1           0        1.213843   -0.242141   -2.806594
     66          1           0       -0.288774    0.302297   -3.206019
     67          6           0       -0.729863   -1.192512    5.005591
     68          1           0       -1.470307   -1.954347    4.783334
     69          1           0       -1.191556   -0.427914    5.630184
     70          1           0        0.082545   -1.649263    5.570700
     71          7           0        0.719542    0.386664    3.711261
     72          1           0        1.153341    0.807890    4.516198
     73          6           0       -0.225743   -0.605183    3.738431
     74          6           0        0.955146    0.692504    2.415046
     75          1           0        1.651523    1.437265    2.089082
     76          7           0        0.217426   -0.045345    1.621505
     77          6           0       -0.522967   -0.857108    2.429640
     78          1           0       -1.213838   -1.562386    2.016003
 ---------------------------------------------------------------------
 Rotational constants (GHZ):           0.0949766           0.0913481           0.0607295
 Standard basis: def2TZVP (5D, 7F)
 There are  1744 symmetry adapted cartesian basis functions of A   symmetry.
 There are  1532 symmetry adapted basis functions of A   symmetry.
  1532 basis functions,  2481 primitive gaussians,  1744 cartesian basis functions
   160 alpha electrons      156 beta electrons
       nuclear repulsion energy      5989.5067079042 Hartrees.
 NAtoms=   78 NActive=   78 NUniq=   78 SFac= 1.00D+00 NAtFMM=   60 NAOKFM=T Big=T
 Integral buffers will be    131072 words long.
 Raffenetti 2 integral format.
 Two-electron integral symmetry is turned on.
 R6APFD:  NTU= -4 IXU= 1 FactS= 1.050
 Nuclear repulsion after empirical dispersion term =     5989.3523876237 Hartrees.
 One-electron integrals computed using PRISM.
   1 Symmetry operations used in ECPInt.
 ECPInt:  NShTT=  186355 NPrTT=  576197 LenC2=  147882 LenP2D=  302749.
 LDataN:  DoStor=T MaxTD1= 6 Len=  172
 Number of processors reduced to  23 by ecpmxn.
 NBasis=  1532 RedAO= T EigKep=  3.60D-06  NBF=  1532
 NBsUse=  1532 1.00D-06 EigRej= -1.00D+00 NBFU=  1532
 Initial guess from the checkpoint file:  "1arp_II_Qn.chk"
 B after Tr=    -0.000000    0.000000    0.000000
         Rot=    1.000000    0.000000   -0.000000   -0.000000 Ang=   0.00 deg.
 Initial guess <Sx>= 0.0000 <Sy>= 0.0000 <Sz>= 2.0000 <S**2>= 6.1707 S= 2.0339
 Requested convergence on RMS density matrix=1.00D-08 within 999 cycles.
 Requested convergence on MAX density matrix=1.00D-06.
 Requested convergence on             energy=1.00D-06.
 No special actions if energy rises.
 Restarting incremental Fock formation.
 SCF Done:  E(UAPFD) =  -2984.00813972     A.U. after   32 cycles
            NFock= 32  Conv=0.22D-08     -V/T= 2.0030
 <Sx>= 0.0000 <Sy>= 0.0000 <Sz>= 2.0000 <S**2>= 6.1769 S= 2.0351
 <L.S>=  0.00000000000    
 Annihilation of the first spin contaminant:
 S**2 before annihilation     6.1769,   after     6.0012

 **********************************************************************

            Population analysis using the SCF Density.

 **********************************************************************

 Orbital symmetries:
 Alpha Orbitals:
       Occupied  (A) (A) (A) (A) (A) (A) (A) (A) (A) (A) (A) (A)
                 (A) (A) (A) (A) (A) (A) (A) (A) (A) (A) (A) (A)
                 (A) (A) (A) (A) (A) (A) (A) (A) (A) (A) (A) (A)
                 (A) (A) (A) (A) (A) (A) (A) (A) (A) (A) (A) (A)
                 (A) (A) (A) (A) (A) (A) (A) (A) (A) (A) (A) (A)
                 (A) (A) (A) (A) (A) (A) (A) (A) (A) (A) (A) (A)
                 (A) (A) (A) (A) (A) (A) (A) (A) (A) (A) (A) (A)
                 (A) (A) (A) (A) (A) (A) (A) (A) (A) (A) (A) (A)
                 (A) (A) (A) (A) (A) (A) (A) (A) (A) (A) (A) (A)
                 (A) (A) (A) (A) (A) (A) (A) (A) (A) (A) (A) (A)
                 (A) (A) (A) (A) (A) (A) (A) (A) (A) (A) (A) (A)
                 (A) (A) (A) (A) (A) (A) (A) (A) (A) (A) (A) (A)
                 (A) (A) (A) (A) (A) (A) (A) (A) (A) (A) (A) (A)
                 (A) (A) (A) (A)
       Virtual   (A) (A) (A) (A) (A) (A) (A) (A) (A) (A) (A) (A)
                 (A) (A) (A) (A) (A) (A) (A) (A) (A) (A) (A) (A)
                 (A) (A) (A) (A) (A) (A) (A) (A) (A) (A) (A) (A)
                 (A) (A) (A) (A) (A) (A) (A) (A) (A) (A) (A) (A)
                 (A) (A) (A) (A) (A) (A) (A) (A) (A) (A) (A) (A)
                 (A) (A) (A) (A) (A) (A) (A) (A) (A) (A) (A) (A)
                 (A) (A) (A) (A) (A) (A) (A) (A) (A) (A) (A) (A)
                 (A) (A) (A) (A) (A) (A) (A) (A) (A) (A) (A) (A)
                 (A) (A) (A) (A) (A) (A) (A) (A) (A) (A) (A) (A)
                 (A) (A) (A) (A) (A) (A) (A) (A) (A) (A) (A) (A)
                 (A) (A) (A) (A) (A) (A) (A) (A) (A) (A) (A) (A)
                 (A) (A) (A) (A) (A) (A) (A) (A) (A) (A) (A) (A)
                 (A) (A) (A) (A) (A) (A) (A) (A) (A) (A) (A) (A)
                 (A) (A) (A) (A) (A) (A) (A) (A) (A) (A) (A) (A)
                 (A) (A) (A) (A) (A) (A) (A) (A) (A) (A) (A) (A)
                 (A) (A) (A) (A) (A) (A) (A) (A) (A) (A) (A) (A)
                 (A) (A) (A) (A) (A) (A) (A) (A) (A) (A) (A) (A)
                 (A) (A) (A) (A) (A) (A) (A) (A) (A) (A) (A) (A)
                 (A) (A) (A) (A) (A) (A) (A) (A) (A) (A) (A) (A)
                 (A) (A) (A) (A) (A) (A) (A) (A) (A) (A) (A) (A)
                 (A) (A) (A) (A) (A) (A) (A) (A) (A) (A) (A) (A)
                 (A) (A) (A) (A) (A) (A) (A) (A) (A) (A) (A) (A)
                 (A) (A) (A) (A) (A) (A) (A) (A) (A) (A) (A) (A)
                 (A) (A) (A) (A) (A) (A) (A) (A) (A) (A) (A) (A)
                 (A) (A) (A) (A) (A) (A) (A) (A) (A) (A) (A) (A)
                 (A) (A) (A) (A) (A) (A) (A) (A) (A) (A) (A) (A)
                 (A) (A) (A) (A) (A) (A) (A) (A) (A) (A) (A) (A)
                 (A) (A) (A) (A) (A) (A) (A) (A) (A) (A) (A) (A)
                 (A) (A) (A) (A) (A) (A) (A) (A) (A) (A) (A) (A)
                 (A) (A) (A) (A) (A) (A) (A) (A) (A) (A) (A) (A)
                 (A) (A) (A) (A) (A) (A) (A) (A) (A) (A) (A) (A)
                 (A) (A) (A) (A) (A) (A) (A) (A) (A) (A) (A) (A)
                 (A) (A) (A) (A) (A) (A) (A) (A) (A) (A) (A) (A)
                 (A) (A) (A) (A) (A) (A) (A) (A) (A) (A) (A) (A)
                 (A) (A) (A) (A) (A) (A) (A) (A) (A) (A) (A) (A)
                 (A) (A) (A) (A) (A) (A) (A) (A) (A) (A) (A) (A)
                 (A) (A) (A) (A) (A) (A) (A) (A) (A) (A) (A) (A)
                 (A) (A) (A) (A) (A) (A) (A) (A) (A) (A) (A) (A)
                 (A) (A) (A) (A) (A) (A) (A) (A) (A) (A) (A) (A)
                 (A) (A) (A) (A) (A) (A) (A) (A) (A) (A) (A) (A)
                 (A) (A) (A) (A) (A) (A) (A) (A) (A) (A) (A) (A)
                 (A) (A) (A) (A) (A) (A) (A) (A) (A) (A) (A) (A)
                 (A) (A) (A) (A) (A) (A) (A) (A) (A) (A) (A) (A)
                 (A) (A) (A) (A) (A) (A) (A) (A) (A) (A) (A) (A)
                 (A) (A) (A) (A) (A) (A) (A) (A) (A) (A) (A) (A)
                 (A) (A) (A) (A) (A) (A) (A) (A) (A) (A) (A) (A)
                 (A) (A) (A) (A) (A) (A) (A) (A) (A) (A) (A) (A)
                 (A) (A) (A) (A) (A) (A) (A) (A) (A) (A) (A) (A)
                 (A) (A) (A) (A) (A) (A) (A) (A) (A) (A) (A) (A)
                 (A) (A) (A) (A) (A) (A) (A) (A) (A) (A) (A) (A)
                 (A) (A) (A) (A) (A) (A) (A) (A) (A) (A) (A) (A)
                 (A) (A) (A) (A) (A) (A) (A) (A) (A) (A) (A) (A)
                 (A) (A) (A) (A) (A) (A) (A) (A) (A) (A) (A) (A)
                 (A) (A) (A) (A) (A) (A) (A) (A) (A) (A) (A) (A)
                 (A) (A) (A) (A) (A) (A) (A) (A) (A) (A) (A) (A)
                 (A) (A) (A) (A) (A) (A) (A) (A) (A) (A) (A) (A)
                 (A) (A) (A) (A) (A) (A) (A) (A) (A) (A) (A) (A)
                 (A) (A) (A) (A) (A) (A) (A) (A) (A) (A) (A) (A)
                 (A) (A) (A) (A) (A) (A) (A) (A) (A) (A) (A) (A)
                 (A) (A) (A) (A) (A) (A) (A) (A) (A) (A) (A) (A)
                 (A) (A) (A) (A) (A) (A) (A) (A) (A) (A) (A) (A)
                 (A) (A) (A) (A) (A) (A) (A) (A) (A) (A) (A) (A)
                 (A) (A) (A) (A) (A) (A) (A) (A) (A) (A) (A) (A)
                 (A) (A) (A) (A) (A) (A) (A) (A) (A) (A) (A) (A)
                 (A) (A) (A) (A) (A) (A) (A) (A) (A) (A) (A) (A)
                 (A) (A) (A) (A) (A) (A) (A) (A) (A) (A) (A) (A)
                 (A) (A) (A) (A) (A) (A) (A) (A) (A) (A) (A) (A)
                 (A) (A) (A) (A) (A) (A) (A) (A) (A) (A) (A) (A)
                 (A) (A) (A) (A) (A) (A) (A) (A) (A) (A) (A) (A)
                 (A) (A) (A) (A) (A) (A) (A) (A) (A) (A) (A) (A)
                 (A) (A) (A) (A) (A) (A) (A) (A) (A) (A) (A) (A)
                 (A) (A) (A) (A) (A) (A) (A) (A) (A) (A) (A) (A)
                 (A) (A) (A) (A) (A) (A) (A) (A) (A) (A) (A) (A)
                 (A) (A) (A) (A) (A) (A) (A) (A) (A) (A) (A) (A)
                 (A) (A) (A) (A) (A) (A) (A) (A) (A) (A) (A) (A)
                 (A) (A) (A) (A) (A) (A) (A) (A) (A) (A) (A) (A)
                 (A) (A) (A) (A) (A) (A) (A) (A) (A) (A) (A) (A)
                 (A) (A) (A) (A) (A) (A) (A) (A) (A) (A) (A) (A)
                 (A) (A) (A) (A) (A) (A) (A) (A) (A) (A) (A) (A)
                 (A) (A) (A) (A) (A) (A) (A) (A) (A) (A) (A) (A)
                 (A) (A) (A) (A) (A) (A) (A) (A) (A) (A) (A) (A)
                 (A) (A) (A) (A) (A) (A) (A) (A) (A) (A) (A) (A)
                 (A) (A) (A) (A) (A) (A) (A) (A) (A) (A) (A) (A)
                 (A) (A) (A) (A) (A) (A) (A) (A) (A) (A) (A) (A)
                 (A) (A) (A) (A) (A) (A) (A) (A) (A) (A) (A) (A)
                 (A) (A) (A) (A) (A) (A) (A) (A) (A) (A) (A) (A)
                 (A) (A) (A) (A) (A) (A) (A) (A) (A) (A) (A) (A)
                 (A) (A) (A) (A) (A) (A) (A) (A) (A) (A) (A) (A)
                 (A) (A) (A) (A) (A) (A) (A) (A) (A) (A) (A) (A)
                 (A) (A) (A) (A) (A) (A) (A) (A) (A) (A) (A) (A)
                 (A) (A) (A) (A) (A) (A) (A) (A) (A) (A) (A) (A)
                 (A) (A) (A) (A) (A) (A) (A) (A) (A) (A) (A) (A)
                 (A) (A) (A) (A) (A) (A) (A) (A) (A) (A) (A) (A)
                 (A) (A) (A) (A) (A) (A) (A) (A) (A) (A) (A) (A)
                 (A) (A) (A) (A) (A) (A) (A) (A) (A) (A) (A) (A)
                 (A) (A) (A) (A) (A) (A) (A) (A) (A) (A) (A) (A)
                 (A) (A) (A) (A) (A) (A) (A) (A) (A) (A) (A) (A)
                 (A) (A) (A) (A) (A) (A) (A) (A) (A) (A) (A) (A)
                 (A) (A) (A) (A) (A) (A) (A) (A) (A) (A) (A) (A)
                 (A) (A) (A) (A) (A) (A) (A) (A) (A) (A) (A) (A)
                 (A) (A) (A) (A) (A) (A) (A) (A) (A) (A) (A) (A)
                 (A) (A) (A) (A) (A) (A) (A) (A) (A) (A) (A) (A)
                 (A) (A) (A) (A) (A) (A) (A) (A) (A) (A) (A) (A)
                 (A) (A) (A) (A) (A) (A) (A) (A) (A) (A) (A) (A)
                 (A) (A) (A) (A) (A) (A) (A) (A) (A) (A) (A) (A)
                 (A) (A) (A) (A) (A) (A) (A) (A) (A) (A) (A) (A)
                 (A) (A) (A) (A) (A) (A) (A) (A) (A) (A) (A) (A)
                 (A) (A) (A) (A) (A) (A) (A) (A) (A) (A) (A) (A)
                 (A) (A) (A) (A) (A) (A) (A) (A) (A) (A) (A) (A)
                 (A) (A) (A) (A) (A) (A) (A) (A) (A) (A) (A) (A)
                 (A) (A) (A) (A) (A) (A) (A) (A) (A) (A) (A) (A)
                 (A) (A) (A) (A) (A) (A) (A) (A) (A) (A) (A) (A)
                 (A) (A) (A) (A) (A) (A) (A) (A) (A) (A) (A) (A)
                 (A) (A) (A) (A) (A) (A) (A) (A) (A) (A) (A) (A)
                 (A) (A) (A) (A)
 Beta  Orbitals:
       Occupied  (A) (A) (A) (A) (A) (A) (A) (A) (A) (A) (A) (A)
                 (A) (A) (A) (A) (A) (A) (A) (A) (A) (A) (A) (A)
                 (A) (A) (A) (A) (A) (A) (A) (A) (A) (A) (A) (A)
                 (A) (A) (A) (A) (A) (A) (A) (A) (A) (A) (A) (A)
                 (A) (A) (A) (A) (A) (A) (A) (A) (A) (A) (A) (A)
                 (A) (A) (A) (A) (A) (A) (A) (A) (A) (A) (A) (A)
                 (A) (A) (A) (A) (A) (A) (A) (A) (A) (A) (A) (A)
                 (A) (A) (A) (A) (A) (A) (A) (A) (A) (A) (A) (A)
                 (A) (A) (A) (A) (A) (A) (A) (A) (A) (A) (A) (A)
                 (A) (A) (A) (A) (A) (A) (A) (A) (A) (A) (A) (A)
                 (A) (A) (A) (A) (A) (A) (A) (A) (A) (A) (A) (A)
                 (A) (A) (A) (A) (A) (A) (A) (A) (A) (A) (A) (A)
                 (A) (A) (A) (A) (A) (A) (A) (A) (A) (A) (A) (A)
       Virtual   (A) (A) (A) (A) (A) (A) (A) (A) (A) (A) (A) (A)
                 (A) (A) (A) (A) (A) (A) (A) (A) (A) (A) (A) (A)
                 (A) (A) (A) (A) (A) (A) (A) (A) (A) (A) (A) (A)
                 (A) (A) (A) (A) (A) (A) (A) (A) (A) (A) (A) (A)
                 (A) (A) (A) (A) (A) (A) (A) (A) (A) (A) (A) (A)
                 (A) (A) (A) (A) (A) (A) (A) (A) (A) (A) (A) (A)
                 (A) (A) (A) (A) (A) (A) (A) (A) (A) (A) (A) (A)
                 (A) (A) (A) (A) (A) (A) (A) (A) (A) (A) (A) (A)
                 (A) (A) (A) (A) (A) (A) (A) (A) (A) (A) (A) (A)
                 (A) (A) (A) (A) (A) (A) (A) (A) (A) (A) (A) (A)
                 (A) (A) (A) (A) (A) (A) (A) (A) (A) (A) (A) (A)
                 (A) (A) (A) (A) (A) (A) (A) (A) (A) (A) (A) (A)
                 (A) (A) (A) (A) (A) (A) (A) (A) (A) (A) (A) (A)
                 (A) (A) (A) (A) (A) (A) (A) (A) (A) (A) (A) (A)
                 (A) (A) (A) (A) (A) (A) (A) (A) (A) (A) (A) (A)
                 (A) (A) (A) (A) (A) (A) (A) (A) (A) (A) (A) (A)
                 (A) (A) (A) (A) (A) (A) (A) (A) (A) (A) (A) (A)
                 (A) (A) (A) (A) (A) (A) (A) (A) (A) (A) (A) (A)
                 (A) (A) (A) (A) (A) (A) (A) (A) (A) (A) (A) (A)
                 (A) (A) (A) (A) (A) (A) (A) (A) (A) (A) (A) (A)
                 (A) (A) (A) (A) (A) (A) (A) (A) (A) (A) (A) (A)
                 (A) (A) (A) (A) (A) (A) (A) (A) (A) (A) (A) (A)
                 (A) (A) (A) (A) (A) (A) (A) (A) (A) (A) (A) (A)
                 (A) (A) (A) (A) (A) (A) (A) (A) (A) (A) (A) (A)
                 (A) (A) (A) (A) (A) (A) (A) (A) (A) (A) (A) (A)
                 (A) (A) (A) (A) (A) (A) (A) (A) (A) (A) (A) (A)
                 (A) (A) (A) (A) (A) (A) (A) (A) (A) (A) (A) (A)
                 (A) (A) (A) (A) (A) (A) (A) (A) (A) (A) (A) (A)
                 (A) (A) (A) (A) (A) (A) (A) (A) (A) (A) (A) (A)
                 (A) (A) (A) (A) (A) (A) (A) (A) (A) (A) (A) (A)
                 (A) (A) (A) (A) (A) (A) (A) (A) (A) (A) (A) (A)
                 (A) (A) (A) (A) (A) (A) (A) (A) (A) (A) (A) (A)
                 (A) (A) (A) (A) (A) (A) (A) (A) (A) (A) (A) (A)
                 (A) (A) (A) (A) (A) (A) (A) (A) (A) (A) (A) (A)
                 (A) (A) (A) (A) (A) (A) (A) (A) (A) (A) (A) (A)
                 (A) (A) (A) (A) (A) (A) (A) (A) (A) (A) (A) (A)
                 (A) (A) (A) (A) (A) (A) (A) (A) (A) (A) (A) (A)
                 (A) (A) (A) (A) (A) (A) (A) (A) (A) (A) (A) (A)
                 (A) (A) (A) (A) (A) (A) (A) (A) (A) (A) (A) (A)
                 (A) (A) (A) (A) (A) (A) (A) (A) (A) (A) (A) (A)
                 (A) (A) (A) (A) (A) (A) (A) (A) (A) (A) (A) (A)
                 (A) (A) (A) (A) (A) (A) (A) (A) (A) (A) (A) (A)
                 (A) (A) (A) (A) (A) (A) (A) (A) (A) (A) (A) (A)
                 (A) (A) (A) (A) (A) (A) (A) (A) (A) (A) (A) (A)
                 (A) (A) (A) (A) (A) (A) (A) (A) (A) (A) (A) (A)
                 (A) (A) (A) (A) (A) (A) (A) (A) (A) (A) (A) (A)
                 (A) (A) (A) (A) (A) (A) (A) (A) (A) (A) (A) (A)
                 (A) (A) (A) (A) (A) (A) (A) (A) (A) (A) (A) (A)
                 (A) (A) (A) (A) (A) (A) (A) (A) (A) (A) (A) (A)
                 (A) (A) (A) (A) (A) (A) (A) (A) (A) (A) (A) (A)
                 (A) (A) (A) (A) (A) (A) (A) (A) (A) (A) (A) (A)
                 (A) (A) (A) (A) (A) (A) (A) (A) (A) (A) (A) (A)
                 (A) (A) (A) (A) (A) (A) (A) (A) (A) (A) (A) (A)
                 (A) (A) (A) (A) (A) (A) (A) (A) (A) (A) (A) (A)
                 (A) (A) (A) (A) (A) (A) (A) (A) (A) (A) (A) (A)
                 (A) (A) (A) (A) (A) (A) (A) (A) (A) (A) (A) (A)
                 (A) (A) (A) (A) (A) (A) (A) (A) (A) (A) (A) (A)
                 (A) (A) (A) (A) (A) (A) (A) (A) (A) (A) (A) (A)
                 (A) (A) (A) (A) (A) (A) (A) (A) (A) (A) (A) (A)
                 (A) (A) (A) (A) (A) (A) (A) (A) (A) (A) (A) (A)
                 (A) (A) (A) (A) (A) (A) (A) (A) (A) (A) (A) (A)
                 (A) (A) (A) (A) (A) (A) (A) (A) (A) (A) (A) (A)
                 (A) (A) (A) (A) (A) (A) (A) (A) (A) (A) (A) (A)
                 (A) (A) (A) (A) (A) (A) (A) (A) (A) (A) (A) (A)
                 (A) (A) (A) (A) (A) (A) (A) (A) (A) (A) (A) (A)
                 (A) (A) (A) (A) (A) (A) (A) (A) (A) (A) (A) (A)
                 (A) (A) (A) (A) (A) (A) (A) (A) (A) (A) (A) (A)
                 (A) (A) (A) (A) (A) (A) (A) (A) (A) (A) (A) (A)
                 (A) (A) (A) (A) (A) (A) (A) (A) (A) (A) (A) (A)
                 (A) (A) (A) (A) (A) (A) (A) (A) (A) (A) (A) (A)
                 (A) (A) (A) (A) (A) (A) (A) (A) (A) (A) (A) (A)
                 (A) (A) (A) (A) (A) (A) (A) (A) (A) (A) (A) (A)
                 (A) (A) (A) (A) (A) (A) (A) (A) (A) (A) (A) (A)
                 (A) (A) (A) (A) (A) (A) (A) (A) (A) (A) (A) (A)
                 (A) (A) (A) (A) (A) (A) (A) (A) (A) (A) (A) (A)
                 (A) (A) (A) (A) (A) (A) (A) (A) (A) (A) (A) (A)
                 (A) (A) (A) (A) (A) (A) (A) (A) (A) (A) (A) (A)
                 (A) (A) (A) (A) (A) (A) (A) (A) (A) (A) (A) (A)
                 (A) (A) (A) (A) (A) (A) (A) (A) (A) (A) (A) (A)
                 (A) (A) (A) (A) (A) (A) (A) (A) (A) (A) (A) (A)
                 (A) (A) (A) (A) (A) (A) (A) (A) (A) (A) (A) (A)
                 (A) (A) (A) (A) (A) (A) (A) (A) (A) (A) (A) (A)
                 (A) (A) (A) (A) (A) (A) (A) (A) (A) (A) (A) (A)
                 (A) (A) (A) (A) (A) (A) (A) (A) (A) (A) (A) (A)
                 (A) (A) (A) (A) (A) (A) (A) (A) (A) (A) (A) (A)
                 (A) (A) (A) (A) (A) (A) (A) (A) (A) (A) (A) (A)
                 (A) (A) (A) (A) (A) (A) (A) (A) (A) (A) (A) (A)
                 (A) (A) (A) (A) (A) (A) (A) (A) (A) (A) (A) (A)
                 (A) (A) (A) (A) (A) (A) (A) (A) (A) (A) (A) (A)
                 (A) (A) (A) (A) (A) (A) (A) (A) (A) (A) (A) (A)
                 (A) (A) (A) (A) (A) (A) (A) (A) (A) (A) (A) (A)
                 (A) (A) (A) (A) (A) (A) (A) (A) (A) (A) (A) (A)
                 (A) (A) (A) (A) (A) (A) (A) (A) (A) (A) (A) (A)
                 (A) (A) (A) (A) (A) (A) (A) (A) (A) (A) (A) (A)
                 (A) (A) (A) (A) (A) (A) (A) (A) (A) (A) (A) (A)
                 (A) (A) (A) (A) (A) (A) (A) (A) (A) (A) (A) (A)
                 (A) (A) (A) (A) (A) (A) (A) (A) (A) (A) (A) (A)
                 (A) (A) (A) (A) (A) (A) (A) (A) (A) (A) (A) (A)
                 (A) (A) (A) (A) (A) (A) (A) (A) (A) (A) (A) (A)
                 (A) (A) (A) (A) (A) (A) (A) (A) (A) (A) (A) (A)
                 (A) (A) (A) (A) (A) (A) (A) (A) (A) (A) (A) (A)
                 (A) (A) (A) (A) (A) (A) (A) (A) (A) (A) (A) (A)
                 (A) (A) (A) (A) (A) (A) (A) (A) (A) (A) (A) (A)
                 (A) (A) (A) (A) (A) (A) (A) (A) (A) (A) (A) (A)
                 (A) (A) (A) (A) (A) (A) (A) (A) (A) (A) (A) (A)
                 (A) (A) (A) (A) (A) (A) (A) (A) (A) (A) (A) (A)
                 (A) (A) (A) (A) (A) (A) (A) (A) (A) (A) (A) (A)
                 (A) (A) (A) (A) (A) (A) (A) (A) (A) (A) (A) (A)
                 (A) (A) (A) (A) (A) (A) (A) (A) (A) (A) (A) (A)
                 (A) (A) (A) (A) (A) (A) (A) (A) (A) (A) (A) (A)
                 (A) (A) (A) (A) (A) (A) (A) (A) (A) (A) (A) (A)
                 (A) (A) (A) (A) (A) (A) (A) (A) (A) (A) (A) (A)
                 (A) (A) (A) (A) (A) (A) (A) (A) (A) (A) (A) (A)
                 (A) (A) (A) (A) (A) (A) (A) (A) (A) (A) (A) (A)
                 (A) (A) (A) (A) (A) (A) (A) (A)
 The electronic state is 5-A.
 Alpha  occ. eigenvalues -- -256.18606 -30.07978 -25.92416 -25.90589 -25.90322
 Alpha  occ. eigenvalues --  -19.16556 -14.41409 -14.35025 -14.32214 -14.32179
 Alpha  occ. eigenvalues --  -14.32109 -14.31794 -10.25108 -10.23445 -10.21111
 Alpha  occ. eigenvalues --  -10.20967 -10.20878 -10.20782 -10.20714 -10.20531
 Alpha  occ. eigenvalues --  -10.20515 -10.20472 -10.20377 -10.20137 -10.19487
 Alpha  occ. eigenvalues --  -10.19341 -10.18931 -10.18779 -10.18749 -10.18700
 Alpha  occ. eigenvalues --  -10.18630 -10.18514 -10.18455 -10.18434 -10.18395
 Alpha  occ. eigenvalues --  -10.18392 -10.18348 -10.18343 -10.18272 -10.18133
 Alpha  occ. eigenvalues --  -10.18036 -10.18017 -10.17946 -10.17945 -10.17921
 Alpha  occ. eigenvalues --  -10.17805  -3.53717  -2.33312  -2.29281  -2.28890
 Alpha  occ. eigenvalues --   -1.04997  -1.04716  -0.96834  -0.95876  -0.95760
 Alpha  occ. eigenvalues --   -0.94805  -0.90686  -0.82060  -0.81656  -0.81324
 Alpha  occ. eigenvalues --   -0.80647  -0.80248  -0.79992  -0.79407  -0.79287
 Alpha  occ. eigenvalues --   -0.76719  -0.75556  -0.74122  -0.73654  -0.73008
 Alpha  occ. eigenvalues --   -0.71609  -0.70631  -0.69911  -0.68228  -0.67804
 Alpha  occ. eigenvalues --   -0.67643  -0.64427  -0.64064  -0.63762  -0.61058
 Alpha  occ. eigenvalues --   -0.60535  -0.60259  -0.60088  -0.57371  -0.56545
 Alpha  occ. eigenvalues --   -0.55765  -0.54291  -0.54003  -0.53286  -0.52169
 Alpha  occ. eigenvalues --   -0.51128  -0.50526  -0.50217  -0.48834  -0.47911
 Alpha  occ. eigenvalues --   -0.47695  -0.47481  -0.47181  -0.45991  -0.45048
 Alpha  occ. eigenvalues --   -0.44510  -0.44433  -0.43935  -0.43550  -0.43542
 Alpha  occ. eigenvalues --   -0.43364  -0.43113  -0.42829  -0.42683  -0.42541
 Alpha  occ. eigenvalues --   -0.42285  -0.42026  -0.41893  -0.41453  -0.41378
 Alpha  occ. eigenvalues --   -0.41326  -0.41127  -0.40664  -0.40216  -0.40049
 Alpha  occ. eigenvalues --   -0.39859  -0.39405  -0.39253  -0.39163  -0.38821
 Alpha  occ. eigenvalues --   -0.38427  -0.38290  -0.37900  -0.37589  -0.37068
 Alpha  occ. eigenvalues --   -0.36989  -0.36811  -0.36604  -0.35984  -0.35632
 Alpha  occ. eigenvalues --   -0.34433  -0.34311  -0.34085  -0.33696  -0.33313
 Alpha  occ. eigenvalues --   -0.32448  -0.31622  -0.31386  -0.30940  -0.30663
 Alpha  occ. eigenvalues --   -0.30084  -0.29239  -0.28955  -0.27225  -0.26272
 Alpha  occ. eigenvalues --   -0.26036  -0.23620  -0.23042  -0.22200  -0.21427
 Alpha  occ. eigenvalues --   -0.21144  -0.20126  -0.17872  -0.17498  -0.15780
 Alpha virt. eigenvalues --   -0.06695  -0.06192  -0.01792   0.00560   0.01708
 Alpha virt. eigenvalues --    0.02375   0.02538   0.03382   0.04709   0.04807
 Alpha virt. eigenvalues --    0.05336   0.05785   0.06077   0.06421   0.06619
 Alpha virt. eigenvalues --    0.07122   0.07953   0.08282   0.08399   0.09078
 Alpha virt. eigenvalues --    0.09287   0.09432   0.09581   0.09833   0.10243
 Alpha virt. eigenvalues --    0.10703   0.10826   0.11506   0.11610   0.11731
 Alpha virt. eigenvalues --    0.12072   0.12134   0.12398   0.12566   0.13011
 Alpha virt. eigenvalues --    0.13244   0.13363   0.13639   0.13754   0.14014
 Alpha virt. eigenvalues --    0.14421   0.14635   0.14785   0.15087   0.15322
 Alpha virt. eigenvalues --    0.15468   0.15628   0.15862   0.15939   0.16059
 Alpha virt. eigenvalues --    0.16217   0.16356   0.16635   0.17136   0.17324
 Alpha virt. eigenvalues --    0.17496   0.17832   0.18019   0.18303   0.18883
 Alpha virt. eigenvalues --    0.18926   0.19378   0.19549   0.20224   0.20330
 Alpha virt. eigenvalues --    0.20464   0.20557   0.20745   0.21120   0.21489
 Alpha virt. eigenvalues --    0.21603   0.21854   0.22201   0.22510   0.22951
 Alpha virt. eigenvalues --    0.23139   0.23473   0.23640   0.24198   0.24526
 Alpha virt. eigenvalues --    0.24851   0.25037   0.25501   0.25571   0.25838
 Alpha virt. eigenvalues --    0.26138   0.26439   0.26689   0.26725   0.27562
 Alpha virt. eigenvalues --    0.27605   0.27746   0.27926   0.28330   0.28640
 Alpha virt. eigenvalues --    0.28892   0.29077   0.29504   0.29688   0.29787
 Alpha virt. eigenvalues --    0.30221   0.30573   0.30755   0.30819   0.31130
 Alpha virt. eigenvalues --    0.31308   0.31690   0.32034   0.32181   0.32731
 Alpha virt. eigenvalues --    0.32994   0.33321   0.33633   0.33673   0.34045
 Alpha virt. eigenvalues --    0.34244   0.34725   0.34925   0.35200   0.35536
 Alpha virt. eigenvalues --    0.35723   0.36021   0.36103   0.36691   0.36760
 Alpha virt. eigenvalues --    0.36795   0.37188   0.37661   0.37785   0.37963
 Alpha virt. eigenvalues --    0.38384   0.38641   0.39086   0.39145   0.39506
 Alpha virt. eigenvalues --    0.39694   0.39803   0.39964   0.40364   0.40413
 Alpha virt. eigenvalues --    0.40652   0.40888   0.41166   0.41294   0.41548
 Alpha virt. eigenvalues --    0.41692   0.42080   0.42576   0.42734   0.42954
 Alpha virt. eigenvalues --    0.43031   0.43094   0.43295   0.43595   0.43736
 Alpha virt. eigenvalues --    0.44058   0.44236   0.44510   0.44603   0.44843
 Alpha virt. eigenvalues --    0.45352   0.45452   0.45706   0.45808   0.46142
 Alpha virt. eigenvalues --    0.46339   0.46674   0.46844   0.46972   0.46989
 Alpha virt. eigenvalues --    0.47373   0.47600   0.47702   0.47786   0.48023
 Alpha virt. eigenvalues --    0.48081   0.48389   0.48757   0.49131   0.49250
 Alpha virt. eigenvalues --    0.49397   0.49527   0.49850   0.50038   0.50132
 Alpha virt. eigenvalues --    0.50464   0.50724   0.50876   0.51018   0.51282
 Alpha virt. eigenvalues --    0.51513   0.51777   0.51883   0.52103   0.52568
 Alpha virt. eigenvalues --    0.52641   0.53010   0.53102   0.53341   0.53494
 Alpha virt. eigenvalues --    0.53922   0.54138   0.54371   0.54543   0.54767
 Alpha virt. eigenvalues --    0.55112   0.55220   0.55547   0.55809   0.56426
 Alpha virt. eigenvalues --    0.56612   0.56873   0.57187   0.57485   0.57667
 Alpha virt. eigenvalues --    0.57940   0.58316   0.58541   0.58637   0.59110
 Alpha virt. eigenvalues --    0.59336   0.59662   0.60121   0.60259   0.60677
 Alpha virt. eigenvalues --    0.61025   0.61453   0.61478   0.61702   0.62002
 Alpha virt. eigenvalues --    0.62427   0.62830   0.63649   0.63866   0.64004
 Alpha virt. eigenvalues --    0.64433   0.64690   0.64963   0.65056   0.65290
 Alpha virt. eigenvalues --    0.65465   0.65713   0.66327   0.66673   0.66802
 Alpha virt. eigenvalues --    0.66921   0.67444   0.67841   0.68269   0.68701
 Alpha virt. eigenvalues --    0.69085   0.69388   0.69564   0.69838   0.70161
 Alpha virt. eigenvalues --    0.70958   0.71078   0.71469   0.71736   0.72026
 Alpha virt. eigenvalues --    0.72331   0.72427   0.72877   0.72952   0.73154
 Alpha virt. eigenvalues --    0.73754   0.74430   0.74729   0.74917   0.75351
 Alpha virt. eigenvalues --    0.75661   0.75719   0.76061   0.76185   0.76729
 Alpha virt. eigenvalues --    0.76964   0.77415   0.77904   0.78084   0.78126
 Alpha virt. eigenvalues --    0.78334   0.78639   0.79263   0.79528   0.79684
 Alpha virt. eigenvalues --    0.80262   0.80484   0.80747   0.81048   0.81313
 Alpha virt. eigenvalues --    0.81566   0.82036   0.82264   0.82904   0.83563
 Alpha virt. eigenvalues --    0.83778   0.84165   0.84857   0.85147   0.85621
 Alpha virt. eigenvalues --    0.86157   0.86228   0.86654   0.87015   0.87254
 Alpha virt. eigenvalues --    0.87752   0.88255   0.88534   0.88804   0.89236
 Alpha virt. eigenvalues --    0.89357   0.90264   0.90511   0.91200   0.91418
 Alpha virt. eigenvalues --    0.91686   0.92066   0.92353   0.93024   0.93417
 Alpha virt. eigenvalues --    0.93717   0.93914   0.93996   0.94327   0.94687
 Alpha virt. eigenvalues --    0.95140   0.95377   0.96001   0.96421   0.96705
 Alpha virt. eigenvalues --    0.96849   0.97708   0.98129   0.98291   0.98590
 Alpha virt. eigenvalues --    0.98807   0.99294   0.99428   0.99961   1.00464
 Alpha virt. eigenvalues --    1.00776   1.01116   1.01297   1.01538   1.01745
 Alpha virt. eigenvalues --    1.02024   1.02524   1.02661   1.03488   1.03559
 Alpha virt. eigenvalues --    1.03855   1.04190   1.04378   1.04535   1.05133
 Alpha virt. eigenvalues --    1.05477   1.05537   1.05679   1.06223   1.06312
 Alpha virt. eigenvalues --    1.06815   1.07203   1.07571   1.08378   1.08524
 Alpha virt. eigenvalues --    1.08835   1.09309   1.09847   1.10141   1.10536
 Alpha virt. eigenvalues --    1.11067   1.11515   1.12222   1.12558   1.12836
 Alpha virt. eigenvalues --    1.13496   1.13689   1.13976   1.14154   1.14931
 Alpha virt. eigenvalues --    1.15302   1.16349   1.16453   1.17120   1.17189
 Alpha virt. eigenvalues --    1.17476   1.18062   1.18640   1.18700   1.18867
 Alpha virt. eigenvalues --    1.19337   1.19772   1.20397   1.20559   1.21085
 Alpha virt. eigenvalues --    1.21339   1.22107   1.22538   1.22647   1.23184
 Alpha virt. eigenvalues --    1.23508   1.23988   1.24694   1.25171   1.25226
 Alpha virt. eigenvalues --    1.25992   1.26283   1.26776   1.27242   1.27564
 Alpha virt. eigenvalues --    1.27825   1.28178   1.28474   1.28781   1.29000
 Alpha virt. eigenvalues --    1.29732   1.29973   1.30132   1.30555   1.30666
 Alpha virt. eigenvalues --    1.31600   1.31888   1.32629   1.32707   1.33071
 Alpha virt. eigenvalues --    1.33547   1.34068   1.34353   1.34654   1.35943
 Alpha virt. eigenvalues --    1.36711   1.37150   1.37639   1.37937   1.38686
 Alpha virt. eigenvalues --    1.38859   1.39714   1.40223   1.40524   1.41219
 Alpha virt. eigenvalues --    1.41660   1.41942   1.42187   1.42976   1.43639
 Alpha virt. eigenvalues --    1.43894   1.44780   1.45317   1.45463   1.46131
 Alpha virt. eigenvalues --    1.46354   1.46705   1.47306   1.47556   1.48043
 Alpha virt. eigenvalues --    1.48217   1.48359   1.48943   1.49533   1.49751
 Alpha virt. eigenvalues --    1.49805   1.50257   1.50765   1.51243   1.51710
 Alpha virt. eigenvalues --    1.51883   1.52053   1.52258   1.52514   1.52567
 Alpha virt. eigenvalues --    1.53070   1.53135   1.53639   1.53802   1.53937
 Alpha virt. eigenvalues --    1.54113   1.54556   1.54719   1.55110   1.55429
 Alpha virt. eigenvalues --    1.55595   1.55821   1.56010   1.56320   1.56699
 Alpha virt. eigenvalues --    1.57002   1.57216   1.57358   1.57630   1.58041
 Alpha virt. eigenvalues --    1.58358   1.58635   1.58650   1.58970   1.59009
 Alpha virt. eigenvalues --    1.59443   1.59781   1.60279   1.60491   1.61054
 Alpha virt. eigenvalues --    1.61505   1.61882   1.62093   1.62490   1.62745
 Alpha virt. eigenvalues --    1.62934   1.63426   1.63522   1.63948   1.64268
 Alpha virt. eigenvalues --    1.64642   1.64809   1.64951   1.65514   1.65773
 Alpha virt. eigenvalues --    1.66040   1.66192   1.66757   1.66898   1.67362
 Alpha virt. eigenvalues --    1.67686   1.68033   1.68509   1.68782   1.69093
 Alpha virt. eigenvalues --    1.69519   1.69648   1.70157   1.70676   1.70862
 Alpha virt. eigenvalues --    1.71311   1.71576   1.71708   1.71912   1.72296
 Alpha virt. eigenvalues --    1.73189   1.73466   1.73658   1.74409   1.74724
 Alpha virt. eigenvalues --    1.74814   1.75131   1.76101   1.76953   1.77421
 Alpha virt. eigenvalues --    1.78061   1.78857   1.79300   1.79673   1.80090
 Alpha virt. eigenvalues --    1.80527   1.81545   1.82045   1.82396   1.83166
 Alpha virt. eigenvalues --    1.83562   1.83964   1.84304   1.84746   1.85153
 Alpha virt. eigenvalues --    1.85951   1.85961   1.86464   1.86816   1.87312
 Alpha virt. eigenvalues --    1.87915   1.88331   1.88565   1.89135   1.89267
 Alpha virt. eigenvalues --    1.89844   1.90361   1.90950   1.91715   1.91800
 Alpha virt. eigenvalues --    1.92705   1.93338   1.93606   1.94090   1.94472
 Alpha virt. eigenvalues --    1.94597   1.95256   1.95647   1.96370   1.96625
 Alpha virt. eigenvalues --    1.96906   1.96964   1.97620   1.98063   1.98570
 Alpha virt. eigenvalues --    1.98782   1.99901   2.00155   2.00620   2.00937
 Alpha virt. eigenvalues --    2.01370   2.01834   2.02013   2.02442   2.02942
 Alpha virt. eigenvalues --    2.03532   2.03597   2.04612   2.05121   2.05352
 Alpha virt. eigenvalues --    2.06050   2.06122   2.07239   2.07661   2.08000
 Alpha virt. eigenvalues --    2.08155   2.08664   2.09207   2.09374   2.09873
 Alpha virt. eigenvalues --    2.10176   2.10509   2.10930   2.11602   2.12143
 Alpha virt. eigenvalues --    2.12258   2.12736   2.13486   2.14424   2.14570
 Alpha virt. eigenvalues --    2.14838   2.15339   2.16022   2.16409   2.16665
 Alpha virt. eigenvalues --    2.17113   2.17722   2.18159   2.18539   2.19250
 Alpha virt. eigenvalues --    2.19607   2.19631   2.20098   2.20672   2.21003
 Alpha virt. eigenvalues --    2.21677   2.22070   2.22595   2.23738   2.24635
 Alpha virt. eigenvalues --    2.25010   2.25513   2.25608   2.26050   2.26224
 Alpha virt. eigenvalues --    2.26891   2.27261   2.27460   2.28558   2.28799
 Alpha virt. eigenvalues --    2.29204   2.29373   2.30095   2.30265   2.30391
 Alpha virt. eigenvalues --    2.31143   2.31632   2.31905   2.31978   2.32353
 Alpha virt. eigenvalues --    2.32968   2.33634   2.34060   2.34465   2.34892
 Alpha virt. eigenvalues --    2.35481   2.35683   2.35944   2.36242   2.36630
 Alpha virt. eigenvalues --    2.37106   2.37604   2.37749   2.38176   2.38617
 Alpha virt. eigenvalues --    2.39033   2.39419   2.40206   2.40577   2.40929
 Alpha virt. eigenvalues --    2.41410   2.41493   2.42560   2.43219   2.43355
 Alpha virt. eigenvalues --    2.43553   2.44822   2.45050   2.45415   2.45478
 Alpha virt. eigenvalues --    2.46045   2.46281   2.46455   2.47182   2.47378
 Alpha virt. eigenvalues --    2.48201   2.48652   2.48976   2.49192   2.49677
 Alpha virt. eigenvalues --    2.50251   2.50717   2.51490   2.51987   2.52604
 Alpha virt. eigenvalues --    2.52769   2.52889   2.53187   2.53382   2.53575
 Alpha virt. eigenvalues --    2.54315   2.54993   2.55678   2.55829   2.56404
 Alpha virt. eigenvalues --    2.56658   2.56788   2.56944   2.57567   2.57890
 Alpha virt. eigenvalues --    2.58259   2.58608   2.59238   2.59603   2.59919
 Alpha virt. eigenvalues --    2.60333   2.60653   2.61187   2.61658   2.61789
 Alpha virt. eigenvalues --    2.62051   2.62574   2.62915   2.63133   2.63778
 Alpha virt. eigenvalues --    2.64094   2.64753   2.65212   2.65877   2.66224
 Alpha virt. eigenvalues --    2.66718   2.66947   2.67514   2.67530   2.67874
 Alpha virt. eigenvalues --    2.68291   2.68661   2.69279   2.69600   2.69811
 Alpha virt. eigenvalues --    2.70224   2.70883   2.71529   2.71853   2.72144
 Alpha virt. eigenvalues --    2.72326   2.72996   2.73591   2.73850   2.74200
 Alpha virt. eigenvalues --    2.74533   2.75285   2.75455   2.76086   2.76271
 Alpha virt. eigenvalues --    2.76420   2.76893   2.77239   2.77671   2.78547
 Alpha virt. eigenvalues --    2.78948   2.79202   2.79872   2.80248   2.80905
 Alpha virt. eigenvalues --    2.81208   2.81331   2.81845   2.82401   2.82822
 Alpha virt. eigenvalues --    2.83213   2.83837   2.84046   2.84278   2.84975
 Alpha virt. eigenvalues --    2.85061   2.85446   2.85926   2.86432   2.87018
 Alpha virt. eigenvalues --    2.87058   2.87711   2.88071   2.88559   2.89063
 Alpha virt. eigenvalues --    2.89196   2.89416   2.89856   2.90041   2.90669
 Alpha virt. eigenvalues --    2.91036   2.91610   2.92052   2.92503   2.92639
 Alpha virt. eigenvalues --    2.92854   2.93235   2.93560   2.94043   2.94443
 Alpha virt. eigenvalues --    2.94974   2.95125   2.95303   2.95647   2.96116
 Alpha virt. eigenvalues --    2.96419   2.96996   2.97253   2.97376   2.98264
 Alpha virt. eigenvalues --    2.98346   2.98925   2.99195   2.99713   2.99999
 Alpha virt. eigenvalues --    3.00817   3.00901   3.01229   3.01614   3.01660
 Alpha virt. eigenvalues --    3.02125   3.02540   3.02956   3.03482   3.03987
 Alpha virt. eigenvalues --    3.04400   3.05295   3.05435   3.05595   3.05988
 Alpha virt. eigenvalues --    3.06362   3.06959   3.07162   3.07343   3.07436
 Alpha virt. eigenvalues --    3.08022   3.08440   3.08892   3.09150   3.09490
 Alpha virt. eigenvalues --    3.09732   3.10106   3.10604   3.10809   3.11108
 Alpha virt. eigenvalues --    3.11352   3.11864   3.12014   3.12256   3.12484
 Alpha virt. eigenvalues --    3.12837   3.13370   3.14129   3.14220   3.14671
 Alpha virt. eigenvalues --    3.14896   3.14989   3.15110   3.15575   3.16007
 Alpha virt. eigenvalues --    3.16443   3.16889   3.17287   3.17577   3.17603
 Alpha virt. eigenvalues --    3.18035   3.18379   3.18656   3.18900   3.19444
 Alpha virt. eigenvalues --    3.19567   3.20198   3.20583   3.20988   3.21269
 Alpha virt. eigenvalues --    3.21490   3.21873   3.22079   3.22624   3.23078
 Alpha virt. eigenvalues --    3.23085   3.23406   3.23820   3.24303   3.24511
 Alpha virt. eigenvalues --    3.24749   3.25127   3.25212   3.25621   3.26098
 Alpha virt. eigenvalues --    3.26268   3.26539   3.26816   3.27027   3.27124
 Alpha virt. eigenvalues --    3.27477   3.27811   3.28275   3.28415   3.28566
 Alpha virt. eigenvalues --    3.28992   3.29336   3.29506   3.29640   3.30002
 Alpha virt. eigenvalues --    3.30230   3.30607   3.30839   3.31080   3.31420
 Alpha virt. eigenvalues --    3.31513   3.32239   3.32554   3.32703   3.33011
 Alpha virt. eigenvalues --    3.33228   3.33339   3.33627   3.33919   3.34344
 Alpha virt. eigenvalues --    3.34687   3.34977   3.35283   3.35619   3.35792
 Alpha virt. eigenvalues --    3.36090   3.36468   3.36769   3.37106   3.37308
 Alpha virt. eigenvalues --    3.37463   3.37664   3.38009   3.38358   3.38578
 Alpha virt. eigenvalues --    3.38927   3.39173   3.39440   3.39883   3.39981
 Alpha virt. eigenvalues --    3.40461   3.40711   3.40996   3.41591   3.42091
 Alpha virt. eigenvalues --    3.42238   3.42496   3.42977   3.43246   3.43574
 Alpha virt. eigenvalues --    3.44162   3.44684   3.45136   3.45187   3.45719
 Alpha virt. eigenvalues --    3.45992   3.46764   3.46972   3.47124   3.47584
 Alpha virt. eigenvalues --    3.48379   3.48607   3.49060   3.49400   3.50007
 Alpha virt. eigenvalues --    3.50161   3.50933   3.51153   3.51618   3.52670
 Alpha virt. eigenvalues --    3.53271   3.53572   3.53830   3.54059   3.54541
 Alpha virt. eigenvalues --    3.55222   3.55370   3.55710   3.56027   3.56942
 Alpha virt. eigenvalues --    3.57463   3.57764   3.58452   3.58678   3.59339
 Alpha virt. eigenvalues --    3.59476   3.59887   3.60393   3.60961   3.61899
 Alpha virt. eigenvalues --    3.62403   3.62560   3.62975   3.63538   3.63902
 Alpha virt. eigenvalues --    3.64515   3.64767   3.65896   3.65941   3.66192
 Alpha virt. eigenvalues --    3.66582   3.66876   3.67165   3.68192   3.68355
 Alpha virt. eigenvalues --    3.68778   3.69323   3.70021   3.70237   3.70608
 Alpha virt. eigenvalues --    3.70935   3.71357   3.71612   3.72356   3.72513
 Alpha virt. eigenvalues --    3.72887   3.73482   3.74131   3.74688   3.74844
 Alpha virt. eigenvalues --    3.75122   3.75490   3.75879   3.75915   3.76741
 Alpha virt. eigenvalues --    3.77250   3.77574   3.78739   3.79414   3.79726
 Alpha virt. eigenvalues --    3.80118   3.80940   3.81083   3.81577   3.82092
 Alpha virt. eigenvalues --    3.82612   3.83010   3.83697   3.84067   3.84747
 Alpha virt. eigenvalues --    3.85765   3.86252   3.87445   3.87767   3.88486
 Alpha virt. eigenvalues --    3.88789   3.89107   3.90036   3.90546   3.90659
 Alpha virt. eigenvalues --    3.91148   3.92129   3.92235   3.92512   3.93007
 Alpha virt. eigenvalues --    3.93831   3.94390   3.94610   3.95300   3.96728
 Alpha virt. eigenvalues --    3.97077   3.97369   3.98233   3.99153   3.99928
 Alpha virt. eigenvalues --    4.00283   4.00946   4.01325   4.01703   4.01889
 Alpha virt. eigenvalues --    4.03119   4.03249   4.03967   4.04074   4.04819
 Alpha virt. eigenvalues --    4.05301   4.05769   4.06034   4.06706   4.08056
 Alpha virt. eigenvalues --    4.08847   4.09332   4.09679   4.10957   4.11410
 Alpha virt. eigenvalues --    4.11908   4.12551   4.13239   4.13569   4.14477
 Alpha virt. eigenvalues --    4.14941   4.15695   4.16449   4.16484   4.17227
 Alpha virt. eigenvalues --    4.17958   4.18280   4.19145   4.19388   4.19639
 Alpha virt. eigenvalues --    4.20375   4.21108   4.21324   4.21843   4.22597
 Alpha virt. eigenvalues --    4.22989   4.23697   4.24671   4.25325   4.25860
 Alpha virt. eigenvalues --    4.26041   4.26889   4.26972   4.27498   4.27855
 Alpha virt. eigenvalues --    4.28604   4.28664   4.29875   4.31164   4.31417
 Alpha virt. eigenvalues --    4.31878   4.32379   4.33565   4.33722   4.34115
 Alpha virt. eigenvalues --    4.34179   4.35340   4.35568   4.36246   4.37254
 Alpha virt. eigenvalues --    4.38105   4.39058   4.39665   4.39871   4.40746
 Alpha virt. eigenvalues --    4.41281   4.41428   4.41818   4.41876   4.42427
 Alpha virt. eigenvalues --    4.43224   4.43776   4.43823   4.44103   4.45033
 Alpha virt. eigenvalues --    4.45189   4.45474   4.45828   4.46276   4.46831
 Alpha virt. eigenvalues --    4.47492   4.47988   4.48687   4.49271   4.50930
 Alpha virt. eigenvalues --    4.52230   4.53365   4.54051   4.54993   4.56417
 Alpha virt. eigenvalues --    4.56658   4.56975   4.58230   4.58626   4.59953
 Alpha virt. eigenvalues --    4.61564   4.63094   4.63825   4.64242   4.65266
 Alpha virt. eigenvalues --    4.65743   4.67322   4.68090   4.68609   4.69254
 Alpha virt. eigenvalues --    4.69541   4.70541   4.71953   4.72597   4.72666
 Alpha virt. eigenvalues --    4.73601   4.73814   4.74679   4.75613   4.75824
 Alpha virt. eigenvalues --    4.76325   4.78326   4.80303   4.80941   4.81300
 Alpha virt. eigenvalues --    4.81689   4.82971   4.83219   4.84329   4.84914
 Alpha virt. eigenvalues --    4.85305   4.85649   4.85909   4.86627   4.87176
 Alpha virt. eigenvalues --    4.88419   4.88560   4.90074   4.91446   4.93037
 Alpha virt. eigenvalues --    4.93562   4.94716   4.95326   4.96587   4.96846
 Alpha virt. eigenvalues --    4.97098   4.97689   4.98376   4.99096   5.00260
 Alpha virt. eigenvalues --    5.01971   5.02589   5.02851   5.03453   5.04056
 Alpha virt. eigenvalues --    5.05105   5.05533   5.07664   5.08042   5.09160
 Alpha virt. eigenvalues --    5.09449   5.10191   5.10969   5.11530   5.11836
 Alpha virt. eigenvalues --    5.12878   5.14521   5.16630   5.17833   5.19058
 Alpha virt. eigenvalues --    5.20183   5.20777   5.20952   5.21312   5.22681
 Alpha virt. eigenvalues --    5.23735   5.25021   5.25312   5.26703   5.27230
 Alpha virt. eigenvalues --    5.29329   5.31359   5.31514   5.34005   5.34887
 Alpha virt. eigenvalues --    5.36451   5.37504   5.38129   5.38723   5.39749
 Alpha virt. eigenvalues --    5.39869   5.40869   5.41500   5.42583   5.42938
 Alpha virt. eigenvalues --    5.44008   5.46148   5.48550   5.49636   5.50463
 Alpha virt. eigenvalues --    5.50791   5.52020   5.52310   5.53077   5.53787
 Alpha virt. eigenvalues --    5.57286   5.58209   5.60248   5.61304   5.61829
 Alpha virt. eigenvalues --    5.62639   5.63344   5.63761   5.65584   5.66713
 Alpha virt. eigenvalues --    5.67530   5.67762   5.68133   5.71241   5.73086
 Alpha virt. eigenvalues --    5.76912   5.77782   5.78351   5.80368   5.82638
 Alpha virt. eigenvalues --    5.90221   5.92929   5.94901   5.95115   5.98540
 Alpha virt. eigenvalues --    6.01567   6.02208   6.03328   6.08915   6.13006
 Alpha virt. eigenvalues --    6.14107   6.14731   6.15465   6.18100   6.18849
 Alpha virt. eigenvalues --    6.24694   6.27608   6.34907   6.35335   6.41759
 Alpha virt. eigenvalues --    6.48597   6.52104   6.55750   6.67373   6.97307
 Alpha virt. eigenvalues --    7.28602  22.36406  22.36814  22.44258  22.46059
 Alpha virt. eigenvalues --   22.46893  22.53623  22.54632  22.62077  22.63032
 Alpha virt. eigenvalues --   22.78796  22.86382  22.87605  22.91999  22.94281
 Alpha virt. eigenvalues --   22.94691  22.96152  22.97274  23.02862  23.03511
 Alpha virt. eigenvalues --   23.10305  23.12751  23.26841  23.28982  23.30391
 Alpha virt. eigenvalues --   23.32010  23.41417  23.42895  23.50931  23.53078
 Alpha virt. eigenvalues --   23.57125  23.74113  23.78013  23.79438  23.88229
 Alpha virt. eigenvalues --   32.40990  32.78370  32.93409  32.98932  33.03255
 Alpha virt. eigenvalues --   33.14033  44.07739
  Beta  occ. eigenvalues -- -256.18473 -29.99541 -25.84574 -25.83919 -25.83695
  Beta  occ. eigenvalues --  -19.16430 -14.41410 -14.34785 -14.32008 -14.31989
  Beta  occ. eigenvalues --  -14.31898 -14.31592 -10.25145 -10.23429 -10.21065
  Beta  occ. eigenvalues --  -10.20933 -10.20877 -10.20750 -10.20672 -10.20573
  Beta  occ. eigenvalues --  -10.20540 -10.20529 -10.20451 -10.20208 -10.19471
  Beta  occ. eigenvalues --  -10.19353 -10.18876 -10.18771 -10.18714 -10.18701
  Beta  occ. eigenvalues --  -10.18625 -10.18567 -10.18495 -10.18409 -10.18390
  Beta  occ. eigenvalues --  -10.18388 -10.18371 -10.18323 -10.18220 -10.18178
  Beta  occ. eigenvalues --  -10.18005 -10.17996 -10.17971 -10.17962 -10.17940
  Beta  occ. eigenvalues --  -10.17861  -3.33600  -2.09185  -2.09113  -2.08795
  Beta  occ. eigenvalues --   -1.04908  -1.04528  -0.96632  -0.95670  -0.95575
  Beta  occ. eigenvalues --   -0.94598  -0.90470  -0.82083  -0.81591  -0.81276
  Beta  occ. eigenvalues --   -0.80572  -0.80181  -0.79973  -0.79400  -0.79295
  Beta  occ. eigenvalues --   -0.76708  -0.75544  -0.74112  -0.73662  -0.73011
  Beta  occ. eigenvalues --   -0.71576  -0.70580  -0.69849  -0.68132  -0.67713
  Beta  occ. eigenvalues --   -0.67612  -0.64250  -0.64102  -0.63710  -0.61012
  Beta  occ. eigenvalues --   -0.60486  -0.60161  -0.60023  -0.57363  -0.56341
  Beta  occ. eigenvalues --   -0.55672  -0.54258  -0.53938  -0.53211  -0.51919
  Beta  occ. eigenvalues --   -0.51033  -0.50439  -0.50134  -0.48291  -0.47867
  Beta  occ. eigenvalues --   -0.47528  -0.47250  -0.47059  -0.45939  -0.44784
  Beta  occ. eigenvalues --   -0.44459  -0.44305  -0.43892  -0.43473  -0.43298
  Beta  occ. eigenvalues --   -0.43037  -0.42982  -0.42752  -0.42616  -0.42326
  Beta  occ. eigenvalues --   -0.42220  -0.41885  -0.41502  -0.41448  -0.41305
  Beta  occ. eigenvalues --   -0.41138  -0.40839  -0.40121  -0.39869  -0.39795
  Beta  occ. eigenvalues --   -0.39357  -0.39341  -0.39073  -0.38640  -0.38361
  Beta  occ. eigenvalues --   -0.38091  -0.37531  -0.37374  -0.36943  -0.36758
  Beta  occ. eigenvalues --   -0.36563  -0.35658  -0.35476  -0.35054  -0.34213
  Beta  occ. eigenvalues --   -0.34043  -0.33555  -0.33406  -0.33089  -0.31760
  Beta  occ. eigenvalues --   -0.31567  -0.30992  -0.29822  -0.29506  -0.28870
  Beta  occ. eigenvalues --   -0.28573  -0.26468  -0.26427  -0.24083  -0.23178
  Beta  occ. eigenvalues --   -0.22592  -0.22260  -0.21652  -0.18278  -0.17786
  Beta  occ. eigenvalues --   -0.13557
  Beta virt. eigenvalues --   -0.07123  -0.05623  -0.01905  -0.00413   0.00155
  Beta virt. eigenvalues --    0.01456   0.01996   0.02175   0.02485   0.03403
  Beta virt. eigenvalues --    0.04677   0.04789   0.05484   0.05818   0.06015
  Beta virt. eigenvalues --    0.06282   0.06603   0.07071   0.08044   0.08140
  Beta virt. eigenvalues --    0.08394   0.08584   0.09127   0.09234   0.09463
  Beta virt. eigenvalues --    0.09548   0.09798   0.09948   0.10312   0.10730
  Beta virt. eigenvalues --    0.10840   0.11495   0.11630   0.11762   0.12089
  Beta virt. eigenvalues --    0.12168   0.12424   0.12573   0.13005   0.13248
  Beta virt. eigenvalues --    0.13368   0.13632   0.13777   0.14042   0.14461
  Beta virt. eigenvalues --    0.14766   0.14825   0.15134   0.15341   0.15509
  Beta virt. eigenvalues --    0.15724   0.15881   0.15978   0.16071   0.16269
  Beta virt. eigenvalues --    0.16370   0.16661   0.17162   0.17336   0.17552
  Beta virt. eigenvalues --    0.17846   0.18056   0.18337   0.18912   0.18971
  Beta virt. eigenvalues --    0.19385   0.19588   0.20242   0.20379   0.20505
  Beta virt. eigenvalues --    0.20621   0.20770   0.21135   0.21515   0.21618
  Beta virt. eigenvalues --    0.21869   0.22281   0.22524   0.23004   0.23174
  Beta virt. eigenvalues --    0.23518   0.23672   0.24265   0.24570   0.24877
  Beta virt. eigenvalues --    0.25173   0.25561   0.25674   0.25895   0.26270
  Beta virt. eigenvalues --    0.26457   0.26814   0.26877   0.27659   0.27818
  Beta virt. eigenvalues --    0.27838   0.28137   0.28480   0.28893   0.29093
  Beta virt. eigenvalues --    0.29368   0.29562   0.29827   0.30001   0.30349
  Beta virt. eigenvalues --    0.30743   0.30797   0.30963   0.31428   0.31622
  Beta virt. eigenvalues --    0.31760   0.32066   0.32353   0.32823   0.33092
  Beta virt. eigenvalues --    0.33403   0.33683   0.33749   0.34157   0.34346
  Beta virt. eigenvalues --    0.34835   0.34962   0.35515   0.35729   0.35828
  Beta virt. eigenvalues --    0.36115   0.36225   0.36825   0.36907   0.37191
  Beta virt. eigenvalues --    0.37426   0.37727   0.37867   0.38155   0.38508
  Beta virt. eigenvalues --    0.38815   0.39239   0.39296   0.39553   0.39713
  Beta virt. eigenvalues --    0.39856   0.40077   0.40541   0.40605   0.40866
  Beta virt. eigenvalues --    0.41001   0.41213   0.41318   0.41657   0.41752
  Beta virt. eigenvalues --    0.42360   0.42607   0.42769   0.43028   0.43115
  Beta virt. eigenvalues --    0.43182   0.43367   0.43778   0.44017   0.44129
  Beta virt. eigenvalues --    0.44430   0.44644   0.44717   0.44984   0.45422
  Beta virt. eigenvalues --    0.45608   0.45804   0.45943   0.46217   0.46538
  Beta virt. eigenvalues --    0.46797   0.46895   0.47060   0.47104   0.47571
  Beta virt. eigenvalues --    0.47672   0.47757   0.47875   0.48046   0.48212
  Beta virt. eigenvalues --    0.48463   0.48769   0.49166   0.49348   0.49506
  Beta virt. eigenvalues --    0.49612   0.49961   0.50084   0.50334   0.50501
  Beta virt. eigenvalues --    0.50770   0.50945   0.51061   0.51370   0.51585
  Beta virt. eigenvalues --    0.51833   0.51974   0.52125   0.52631   0.52747
  Beta virt. eigenvalues --    0.53080   0.53172   0.53485   0.53561   0.53957
  Beta virt. eigenvalues --    0.54336   0.54519   0.54693   0.54853   0.55168
  Beta virt. eigenvalues --    0.55316   0.55632   0.55930   0.56511   0.56881
  Beta virt. eigenvalues --    0.56940   0.57269   0.57574   0.57749   0.57987
  Beta virt. eigenvalues --    0.58420   0.58641   0.58704   0.59197   0.59401
  Beta virt. eigenvalues --    0.59681   0.60202   0.60445   0.60751   0.61069
  Beta virt. eigenvalues --    0.61500   0.61554   0.61883   0.62058   0.62476
  Beta virt. eigenvalues --    0.62933   0.63755   0.63956   0.64043   0.64491
  Beta virt. eigenvalues --    0.64779   0.65084   0.65156   0.65375   0.65615
  Beta virt. eigenvalues --    0.65855   0.66390   0.66787   0.66898   0.67137
  Beta virt. eigenvalues --    0.67551   0.67925   0.68513   0.68734   0.69140
  Beta virt. eigenvalues --    0.69482   0.69630   0.69972   0.70238   0.71038
  Beta virt. eigenvalues --    0.71304   0.71564   0.71863   0.72111   0.72432
  Beta virt. eigenvalues --    0.72519   0.72977   0.72994   0.73231   0.73969
  Beta virt. eigenvalues --    0.74514   0.74822   0.75039   0.75566   0.75804
  Beta virt. eigenvalues --    0.75872   0.76231   0.76408   0.76806   0.77149
  Beta virt. eigenvalues --    0.77516   0.77978   0.78128   0.78191   0.78479
  Beta virt. eigenvalues --    0.78751   0.79318   0.79634   0.79795   0.80367
  Beta virt. eigenvalues --    0.80545   0.80819   0.81198   0.81361   0.81691
  Beta virt. eigenvalues --    0.82082   0.82348   0.82959   0.83617   0.83855
  Beta virt. eigenvalues --    0.84227   0.84946   0.85218   0.85695   0.86192
  Beta virt. eigenvalues --    0.86311   0.86724   0.87077   0.87304   0.87819
  Beta virt. eigenvalues --    0.88315   0.88661   0.88936   0.89336   0.89480
  Beta virt. eigenvalues --    0.90364   0.90573   0.91311   0.91582   0.91813
  Beta virt. eigenvalues --    0.92202   0.92458   0.93057   0.93453   0.93776
  Beta virt. eigenvalues --    0.93957   0.94085   0.94404   0.94824   0.95306
  Beta virt. eigenvalues --    0.95395   0.96066   0.96504   0.96923   0.97031
  Beta virt. eigenvalues --    0.97770   0.98249   0.98476   0.98762   0.98922
  Beta virt. eigenvalues --    0.99341   0.99534   0.99992   1.00547   1.00818
  Beta virt. eigenvalues --    1.01237   1.01357   1.01588   1.01991   1.02091
  Beta virt. eigenvalues --    1.02578   1.02729   1.03529   1.03564   1.03947
  Beta virt. eigenvalues --    1.04269   1.04522   1.04838   1.05260   1.05504
  Beta virt. eigenvalues --    1.05572   1.05817   1.06330   1.06684   1.06894
  Beta virt. eigenvalues --    1.07398   1.07779   1.08478   1.08729   1.09135
  Beta virt. eigenvalues --    1.09596   1.10016   1.10229   1.10820   1.11364
  Beta virt. eigenvalues --    1.11613   1.12340   1.12693   1.13200   1.13671
  Beta virt. eigenvalues --    1.13867   1.14145   1.14892   1.15082   1.15531
  Beta virt. eigenvalues --    1.16366   1.16599   1.17189   1.17410   1.17564
  Beta virt. eigenvalues --    1.18351   1.18752   1.18881   1.19060   1.19558
  Beta virt. eigenvalues --    1.19872   1.20471   1.20870   1.21374   1.21623
  Beta virt. eigenvalues --    1.22155   1.22731   1.22965   1.23352   1.23804
  Beta virt. eigenvalues --    1.24197   1.24934   1.25260   1.25555   1.26117
  Beta virt. eigenvalues --    1.26426   1.26970   1.27262   1.27621   1.27956
  Beta virt. eigenvalues --    1.28343   1.28836   1.29068   1.29468   1.30069
  Beta virt. eigenvalues --    1.30109   1.30220   1.30693   1.30988   1.31863
  Beta virt. eigenvalues --    1.32402   1.32731   1.33031   1.33210   1.33939
  Beta virt. eigenvalues --    1.34251   1.34498   1.34778   1.36139   1.36788
  Beta virt. eigenvalues --    1.37345   1.37800   1.38054   1.38949   1.39014
  Beta virt. eigenvalues --    1.39849   1.40410   1.40595   1.41417   1.41820
  Beta virt. eigenvalues --    1.42101   1.42266   1.43074   1.43707   1.43961
  Beta virt. eigenvalues --    1.44940   1.45476   1.45734   1.46251   1.46503
  Beta virt. eigenvalues --    1.46854   1.47340   1.47709   1.48086   1.48349
  Beta virt. eigenvalues --    1.48675   1.49266   1.49631   1.49810   1.49889
  Beta virt. eigenvalues --    1.50373   1.50946   1.51314   1.51835   1.51934
  Beta virt. eigenvalues --    1.52127   1.52318   1.52524   1.52734   1.53171
  Beta virt. eigenvalues --    1.53247   1.53725   1.53882   1.54186   1.54265
  Beta virt. eigenvalues --    1.54791   1.54828   1.55202   1.55568   1.55766
  Beta virt. eigenvalues --    1.55884   1.56289   1.56368   1.56793   1.57116
  Beta virt. eigenvalues --    1.57393   1.57525   1.57722   1.58319   1.58407
  Beta virt. eigenvalues --    1.58669   1.58721   1.59015   1.59212   1.59764
  Beta virt. eigenvalues --    1.59954   1.60325   1.60549   1.61105   1.61620
  Beta virt. eigenvalues --    1.62076   1.62164   1.62507   1.62790   1.63119
  Beta virt. eigenvalues --    1.63473   1.63562   1.64039   1.64356   1.64689
  Beta virt. eigenvalues --    1.64918   1.64998   1.65545   1.65869   1.66086
  Beta virt. eigenvalues --    1.66230   1.66885   1.67044   1.67460   1.67743
  Beta virt. eigenvalues --    1.68044   1.68533   1.69012   1.69130   1.69558
  Beta virt. eigenvalues --    1.69736   1.70265   1.70742   1.70943   1.71383
  Beta virt. eigenvalues --    1.71591   1.71718   1.72034   1.72344   1.73221
  Beta virt. eigenvalues --    1.73623   1.73764   1.74469   1.74773   1.74861
  Beta virt. eigenvalues --    1.75235   1.76225   1.77037   1.77552   1.78085
  Beta virt. eigenvalues --    1.78910   1.79448   1.79740   1.80108   1.80542
  Beta virt. eigenvalues --    1.81608   1.82083   1.82452   1.83247   1.83631
  Beta virt. eigenvalues --    1.84001   1.84356   1.84792   1.85264   1.85970
  Beta virt. eigenvalues --    1.86147   1.86577   1.86921   1.87421   1.87953
  Beta virt. eigenvalues --    1.88428   1.88607   1.89216   1.89393   1.89929
  Beta virt. eigenvalues --    1.90384   1.90985   1.91827   1.91868   1.92794
  Beta virt. eigenvalues --    1.93405   1.93720   1.94344   1.94560   1.94871
  Beta virt. eigenvalues --    1.95365   1.95775   1.96449   1.96660   1.96963
  Beta virt. eigenvalues --    1.97154   1.97739   1.98207   1.98734   1.98950
  Beta virt. eigenvalues --    2.00032   2.00272   2.00800   2.01170   2.01588
  Beta virt. eigenvalues --    2.01872   2.02033   2.02523   2.03004   2.03579
  Beta virt. eigenvalues --    2.03746   2.04831   2.05177   2.05584   2.06319
  Beta virt. eigenvalues --    2.06412   2.07332   2.07750   2.08115   2.08345
  Beta virt. eigenvalues --    2.08734   2.09327   2.09510   2.09931   2.10407
  Beta virt. eigenvalues --    2.10582   2.11009   2.11742   2.12320   2.12365
  Beta virt. eigenvalues --    2.12872   2.13699   2.14537   2.14718   2.14962
  Beta virt. eigenvalues --    2.15478   2.16316   2.16520   2.16796   2.17242
  Beta virt. eigenvalues --    2.17855   2.18282   2.19070   2.19343   2.19704
  Beta virt. eigenvalues --    2.19880   2.20266   2.20739   2.21123   2.21844
  Beta virt. eigenvalues --    2.22163   2.22685   2.23862   2.24723   2.25181
  Beta virt. eigenvalues --    2.25603   2.25743   2.26147   2.26346   2.26947
  Beta virt. eigenvalues --    2.27349   2.27597   2.28595   2.28851   2.29269
  Beta virt. eigenvalues --    2.29441   2.30272   2.30314   2.30433   2.31239
  Beta virt. eigenvalues --    2.31740   2.32040   2.32290   2.32462   2.33055
  Beta virt. eigenvalues --    2.33760   2.34238   2.34568   2.34996   2.35575
  Beta virt. eigenvalues --    2.35719   2.36015   2.36584   2.36773   2.37125
  Beta virt. eigenvalues --    2.37659   2.37804   2.38321   2.38828   2.39141
  Beta virt. eigenvalues --    2.39571   2.40275   2.40648   2.40993   2.41469
  Beta virt. eigenvalues --    2.41552   2.42634   2.43283   2.43481   2.43842
  Beta virt. eigenvalues --    2.45004   2.45178   2.45527   2.45733   2.46293
  Beta virt. eigenvalues --    2.46364   2.46537   2.47284   2.47539   2.48409
  Beta virt. eigenvalues --    2.48824   2.49116   2.49514   2.49769   2.50408
  Beta virt. eigenvalues --    2.50835   2.51672   2.52185   2.52864   2.52922
  Beta virt. eigenvalues --    2.52979   2.53350   2.53498   2.53642   2.54440
  Beta virt. eigenvalues --    2.55263   2.55842   2.56118   2.56520   2.56725
  Beta virt. eigenvalues --    2.56939   2.57034   2.57685   2.58052   2.58343
  Beta virt. eigenvalues --    2.58735   2.59355   2.59709   2.60121   2.60515
  Beta virt. eigenvalues --    2.60947   2.61261   2.61734   2.61951   2.62203
  Beta virt. eigenvalues --    2.62710   2.63098   2.63186   2.63967   2.64119
  Beta virt. eigenvalues --    2.64955   2.65363   2.65952   2.66389   2.66832
  Beta virt. eigenvalues --    2.67020   2.67607   2.67731   2.67915   2.68359
  Beta virt. eigenvalues --    2.68728   2.69299   2.69721   2.69902   2.70319
  Beta virt. eigenvalues --    2.71009   2.71833   2.72017   2.72235   2.72394
  Beta virt. eigenvalues --    2.73254   2.73739   2.74069   2.74413   2.74761
  Beta virt. eigenvalues --    2.75364   2.75660   2.76310   2.76466   2.76647
  Beta virt. eigenvalues --    2.77082   2.77458   2.77830   2.78661   2.79240
  Beta virt. eigenvalues --    2.79289   2.80027   2.80335   2.81020   2.81264
  Beta virt. eigenvalues --    2.81505   2.82026   2.82446   2.82918   2.83361
  Beta virt. eigenvalues --    2.83892   2.84159   2.84457   2.85044   2.85130
  Beta virt. eigenvalues --    2.85502   2.85974   2.86642   2.87051   2.87216
  Beta virt. eigenvalues --    2.87814   2.88162   2.88746   2.89110   2.89344
  Beta virt. eigenvalues --    2.89600   2.90046   2.90192   2.90739   2.91139
  Beta virt. eigenvalues --    2.91695   2.92192   2.92608   2.92718   2.93024
  Beta virt. eigenvalues --    2.93276   2.93637   2.94153   2.94729   2.95062
  Beta virt. eigenvalues --    2.95348   2.95549   2.95691   2.96244   2.96630
  Beta virt. eigenvalues --    2.97289   2.97383   2.97634   2.98332   2.98530
  Beta virt. eigenvalues --    2.99002   2.99509   2.99991   3.00236   3.00876
  Beta virt. eigenvalues --    3.01244   3.01282   3.01681   3.02019   3.02317
  Beta virt. eigenvalues --    3.02622   3.03078   3.03736   3.04134   3.04550
  Beta virt. eigenvalues --    3.05370   3.05506   3.05899   3.06093   3.06396
  Beta virt. eigenvalues --    3.07054   3.07313   3.07409   3.07545   3.08112
  Beta virt. eigenvalues --    3.08496   3.08952   3.09209   3.09566   3.09771
  Beta virt. eigenvalues --    3.10135   3.10716   3.10851   3.11164   3.11437
  Beta virt. eigenvalues --    3.11893   3.12044   3.12365   3.12526   3.12879
  Beta virt. eigenvalues --    3.13388   3.14211   3.14273   3.14802   3.14950
  Beta virt. eigenvalues --    3.15083   3.15210   3.15615   3.16069   3.16469
  Beta virt. eigenvalues --    3.16929   3.17340   3.17603   3.17689   3.18058
  Beta virt. eigenvalues --    3.18422   3.18731   3.18955   3.19473   3.19630
  Beta virt. eigenvalues --    3.20228   3.20655   3.21049   3.21302   3.21511
  Beta virt. eigenvalues --    3.21909   3.22135   3.22744   3.23096   3.23116
  Beta virt. eigenvalues --    3.23440   3.23859   3.24343   3.24622   3.24864
  Beta virt. eigenvalues --    3.25202   3.25331   3.25644   3.26151   3.26351
  Beta virt. eigenvalues --    3.26574   3.26884   3.27069   3.27163   3.27551
  Beta virt. eigenvalues --    3.27841   3.28314   3.28479   3.28618   3.29058
  Beta virt. eigenvalues --    3.29371   3.29530   3.29725   3.30094   3.30297
  Beta virt. eigenvalues --    3.30628   3.30867   3.31105   3.31456   3.31566
  Beta virt. eigenvalues --    3.32260   3.32579   3.32759   3.33071   3.33310
  Beta virt. eigenvalues --    3.33353   3.33672   3.33970   3.34347   3.34780
  Beta virt. eigenvalues --    3.35008   3.35353   3.35723   3.35898   3.36119
  Beta virt. eigenvalues --    3.36557   3.36844   3.37150   3.37394   3.37532
  Beta virt. eigenvalues --    3.37716   3.38078   3.38362   3.38661   3.39004
  Beta virt. eigenvalues --    3.39204   3.39538   3.39932   3.40000   3.40504
  Beta virt. eigenvalues --    3.40731   3.41022   3.41780   3.42164   3.42337
  Beta virt. eigenvalues --    3.42557   3.43215   3.43298   3.43713   3.44243
  Beta virt. eigenvalues --    3.44866   3.45193   3.45318   3.45798   3.46125
  Beta virt. eigenvalues --    3.46920   3.47105   3.47361   3.47628   3.48527
  Beta virt. eigenvalues --    3.48670   3.49151   3.49675   3.50082   3.50358
  Beta virt. eigenvalues --    3.51018   3.51189   3.51719   3.52827   3.53443
  Beta virt. eigenvalues --    3.53636   3.53964   3.54417   3.54629   3.55321
  Beta virt. eigenvalues --    3.55575   3.55854   3.56364   3.56996   3.57629
  Beta virt. eigenvalues --    3.57966   3.58553   3.58801   3.59519   3.59675
  Beta virt. eigenvalues --    3.59969   3.60584   3.61091   3.62071   3.62557
  Beta virt. eigenvalues --    3.62802   3.63057   3.63627   3.64008   3.64683
[...]
                                                    1254(v),1297(v)
   145. CR (   1) C  74                  0.99965   -10.11892  149(r),1383(v),1523(v)
                                                    1377(v),1531(v),150(r)
                                                    154(r),168(r)
   146. CR (   1) N  76                  0.99970   -14.12851  149(r),150(r),153(r),1351(v)
                                                    1407(v),1528(v),154(r)
                                                    168(r)
   147. CR (   1) C  77                  0.99948   -10.05695  1324(v),1522(v),1527(g)
                                                    1383(v),149(r),150(r),154(r)
   163. LP (   1) N  76                  0.82309    -0.35681  149(r),150(r),153(r),1526(v)
                                                    154(r),1527(v),1351(v)
                                                    1529(g),1528(v),1532(v)
                                                    1407(v),1531(g),1384(g)
                                                    1382(g),170(r),148(r),244(r)
                                                    221(r),273(r),155(r),195(r)
                                                    271(r),192(r),219(r),152(r)
                                                    247(r),1440(r),179(r)
                                                    1446(r),193(r),171(r)
                                                    1439(r),1445(r),1442(r)
                                                    1448(r),1438(r),1443(r)
                                                    1447(r),1441(r),245(r)
                                                    151(r),168(r),712(r)
   164. LP (   1) C  77                  0.53422    -0.11114  1525(v),1530(v),1408(g)
                                                    1328(v),1381(v),1387(v)
                                                    148(r),160(r)
  1252. RY*(   1) C  67                  0.00058     1.16878   
  1253. RY*(   2) C  67                  0.00039     2.02238   
  1254. RY*(   3) C  67                  0.00025     1.32482   
  1255. RY*(   4) C  67                  0.00006     1.28526   
  1256. RY*(   5) C  67                  0.00004     1.56292   
  1257. RY*(   6) C  67                  0.00000    21.59645   
  1258. RY*(   7) C  67                  0.00000     1.66782   
  1259. RY*(   8) C  67                  0.00000     1.76838   
  1260. RY*(   9) C  67                  0.00001     1.52277   
  1261. RY*(  10) C  67                  0.00001     2.87930   
  1262. RY*(  11) C  67                  0.00000     2.45013   
  1263. RY*(  12) C  67                  0.00000     1.35784   
  1264. RY*(  13) C  67                  0.00000     2.48885   
  1265. RY*(  14) C  67                  0.00000     2.94482   
  1266. RY*(  15) C  67                  0.00000     2.42137   
  1267. RY*(  16) C  67                  0.00000     2.93744   
  1268. RY*(  17) C  67                  0.00000     2.25189   
  1269. RY*(  18) C  67                  0.00001     2.66579   
  1270. RY*(  19) C  67                  0.00000     2.56242   
  1271. RY*(  20) C  67                  0.00000     3.51835   
  1272. RY*(  21) C  67                  0.00000     3.41417   
  1273. RY*(  22) C  67                  0.00000     3.45681   
  1274. RY*(  23) C  67                  0.00000     3.35420   
  1275. RY*(  24) C  67                  0.00000     3.78037   
  1276. RY*(  25) C  67                  0.00000     3.38156   
  1277. RY*(  26) C  67                  0.00000     3.36635   
  1278. RY*(   1) H  68                  0.00012     1.45231   
  1279. RY*(   2) H  68                  0.00006     1.71702   
  1280. RY*(   3) H  68                  0.00004     2.05960   
  1281. RY*(   4) H  68                  0.00000     2.94374   
  1282. RY*(   5) H  68                  0.00001     1.48960   
  1283. RY*(   1) H  69                  0.00036     1.00534   
  1284. RY*(   2) H  69                  0.00007     1.68396   
  1285. RY*(   3) H  69                  0.00004     1.97801   
  1286. RY*(   4) H  69                  0.00003     2.01691   
  1287. RY*(   5) H  69                  0.00000     2.88356   
  1288. RY*(   1) H  70                  0.00036     1.01710   
  1289. RY*(   2) H  70                  0.00007     1.68173   
  1290. RY*(   3) H  70                  0.00004     1.97179   
  1291. RY*(   4) H  70                  0.00003     2.01297   
  1292. RY*(   5) H  70                  0.00000     2.88312   
  1293. RY*(   1) N  71                  0.00137     0.67752   
  1294. RY*(   2) N  71                  0.00105     1.87362   
  1295. RY*(   3) N  71                  0.00045     2.15374   
  1296. RY*(   4) N  71                  0.00043     2.26731   
  1297. RY*(   5) N  71                  0.00026     1.15664   
  1298. RY*(   6) N  71                  0.00010     1.96150   
  1299. RY*(   7) N  71                  0.00005     2.44337   
  1300. RY*(   8) N  71                  0.00003     2.66442   
  1301. RY*(   9) N  71                  0.00003     3.78668   
  1302. RY*(  10) N  71                  0.00001     2.42341   
  1303. RY*(  11) N  71                  0.00001     2.95656   
  1304. RY*(  12) N  71                  0.00000    30.60234   
  1305. RY*(  13) N  71                  0.00001     4.17663   
  1306. RY*(  14) N  71                  0.00001     1.80058   
  1307. RY*(  15) N  71                  0.00001     4.09650   
  1308. RY*(  16) N  71                  0.00001     2.60126   
  1309. RY*(  17) N  71                  0.00000     4.18244   
  1310. RY*(  18) N  71                  0.00000     3.07112   
  1311. RY*(  19) N  71                  0.00000     4.77487   
  1312. RY*(  20) N  71                  0.00000     4.69880   
  1313. RY*(  21) N  71                  0.00000     4.52445   
  1314. RY*(  22) N  71                  0.00000     4.45997   
  1315. RY*(  23) N  71                  0.00000     4.32678   
  1316. RY*(  24) N  71                  0.00000     4.51978   
  1317. RY*(  25) N  71                  0.00000     4.40149   
  1318. RY*(  26) N  71                  0.00000     4.41381   
  1319. RY*(   1) H  72                  0.00029     2.17912   
  1320. RY*(   2) H  72                  0.00020     2.12185   
  1321. RY*(   3) H  72                  0.00010     2.51032   
  1322. RY*(   4) H  72                  0.00009     1.34166   
  1323. RY*(   5) H  72                  0.00000     3.09420   
  1324. RY*(   1) C  73                  0.00192     1.71184   
  1325. RY*(   2) C  73                  0.00171     1.26023   
  1326. RY*(   3) C  73                  0.00093     1.56571   
  1327. RY*(   4) C  73                  0.00079     2.09970   
  1328. RY*(   5) C  73                  0.00066     1.75099   
  1329. RY*(   6) C  73                  0.00039     1.68967   
  1330. RY*(   7) C  73                  0.00022     2.64600   
  1331. RY*(   8) C  73                  0.00009     3.00355   
  1332. RY*(   9) C  73                  0.00006     2.65815   
  1333. RY*(  10) C  73                  0.00003     3.26726   
  1334. RY*(  11) C  73                  0.00000     3.69745   
  1335. RY*(  12) C  73                  0.00001     1.47983   
  1336. RY*(  13) C  73                  0.00001     2.69668   
  1337. RY*(  14) C  73                  0.00000    21.59971   
  1338. RY*(  15) C  73                  0.00001     1.54723   
  1339. RY*(  16) C  73                  0.00000     1.09100   
  1340. RY*(  17) C  73                  0.00000     1.64654   
  1341. RY*(  18) C  73                  0.00000     1.95866   
  1342. RY*(  19) C  73                  0.00001     2.12542   
  1343. RY*(  20) C  73                  0.00000     4.16746   
  1344. RY*(  21) C  73                  0.00000     3.77607   
  1345. RY*(  22) C  73                  0.00000     3.77467   
  1346. RY*(  23) C  73                  0.00000     3.39852   
  1347. RY*(  24) C  73                  0.00000     3.85490   
  1348. RY*(  25) C  73                  0.00000     3.62034   
  1349. RY*(  26) C  73                  0.00000     3.58285   
  1350. RY*(   1) C  74                  0.00269     0.54233   
  1351. RY*(   2) C  74                  0.00219     1.58315   
  1352. RY*(   3) C  74                  0.00105     1.80719   
  1353. RY*(   4) C  74                  0.00067     2.26066   
  1354. RY*(   5) C  74                  0.00063     2.00992   
  1355. RY*(   6) C  74                  0.00031     1.80623   
  1356. RY*(   7) C  74                  0.00014     1.51346   
  1357. RY*(   8) C  74                  0.00013     2.01614   
  1358. RY*(   9) C  74                  0.00010     1.44768   
  1359. RY*(  10) C  74                  0.00004     2.83673   
  1360. RY*(  11) C  74                  0.00005     1.94496   
  1361. RY*(  12) C  74                  0.00005     1.87843   
  1362. RY*(  13) C  74                  0.00002     3.17535   
  1363. RY*(  14) C  74                  0.00002     2.04201   
  1364. RY*(  15) C  74                  0.00002     1.90805   
  1365. RY*(  16) C  74                  0.00002     2.49965   
  1366. RY*(  17) C  74                  0.00000     3.23265   
  1367. RY*(  18) C  74                  0.00000     3.84471   
  1368. RY*(  19) C  74                  0.00000    21.30979   
  1369. RY*(  20) C  74                  0.00001     3.94660   
  1370. RY*(  21) C  74                  0.00000     3.77638   
  1371. RY*(  22) C  74                  0.00000     3.74166   
  1372. RY*(  23) C  74                  0.00000     3.51414   
  1373. RY*(  24) C  74                  0.00000     3.65795   
  1374. RY*(  25) C  74                  0.00000     3.44429   
  1375. RY*(  26) C  74                  0.00000     3.40166   
  1376. RY*(   1) H  75                  0.00026     0.69846   
  1377. RY*(   2) H  75                  0.00015     2.36991   
  1378. RY*(   3) H  75                  0.00010     2.23632   
  1379. RY*(   4) H  75                  0.00001     3.06866   
  1380. RY*(   5) H  75                  0.00002     2.62357   
  1381. RY*(   1) N  76                  0.00548     0.75105   
  1382. RY*(   2) N  76                  0.00370     1.31990   
  1383. RY*(   3) N  76                  0.00143     1.11658   
  1384. RY*(   4) N  76                  0.00049     1.77421   
  1385. RY*(   5) N  76                  0.00045     1.53533   
  1386. RY*(   6) N  76                  0.00034     2.14126   
  1387. RY*(   7) N  76                  0.00025     3.06050   
  1388. RY*(   8) N  76                  0.00018     3.23821   
  1389. RY*(   9) N  76                  0.00011     2.55610   
  1390. RY*(  10) N  76                  0.00006     3.50735   
  1391. RY*(  11) N  76                  0.00005     2.31230   
  1392. RY*(  12) N  76                  0.00003     3.10283   
  1393. RY*(  13) N  76                  0.00003     2.75499   
  1394. RY*(  14) N  76                  0.00001     4.47348   
  1395. RY*(  15) N  76                  0.00001     4.61253   
  1396. RY*(  16) N  76                  0.00000     4.88216   
  1397. RY*(  17) N  76                  0.00001     3.48015   
  1398. RY*(  18) N  76                  0.00001     4.65339   
  1399. RY*(  19) N  76                  0.00000    31.38774   
  1400. RY*(  20) N  76                  0.00000     4.48724   
  1401. RY*(  21) N  76                  0.00000     4.55985   
  1402. RY*(  22) N  76                  0.00000     4.54798   
  1403. RY*(  23) N  76                  0.00000     4.74786   
  1404. RY*(  24) N  76                  0.00000     4.65440   
  1405. RY*(  25) N  76                  0.00000     4.60499   
  1406. RY*(  26) N  76                  0.00000     4.57851   
  1407. RY*(   1) C  77                  0.00199     1.42715   
  1408. RY*(   2) C  77                  0.00178     0.64549   
  1409. RY*(   3) C  77                  0.00077     1.88415   
  1410. RY*(   4) C  77                  0.00033     2.00595   
  1411. RY*(   5) C  77                  0.00029     1.80337   
  1412. RY*(   6) C  77                  0.00024     2.34857   
  1413. RY*(   7) C  77                  0.00015     1.67857   
  1414. RY*(   8) C  77                  0.00015     1.63495   
  1415. RY*(   9) C  77                  0.00011     1.80624   
  1416. RY*(  10) C  77                  0.00006     1.74012   
  1417. RY*(  11) C  77                  0.00006     2.17219   
  1418. RY*(  12) C  77                  0.00005     1.56296   
  1419. RY*(  13) C  77                  0.00002     2.67296   
  1420. RY*(  14) C  77                  0.00003     3.89482   
  1421. RY*(  15) C  77                  0.00003     2.31918   
  1422. RY*(  16) C  77                  0.00000    21.25876   
  1423. RY*(  17) C  77                  0.00000     3.26050   
  1424. RY*(  18) C  77                  0.00000     3.94116   
  1425. RY*(  19) C  77                  0.00001     1.62311   
  1426. RY*(  20) C  77                  0.00000     3.95294   
  1427. RY*(  21) C  77                  0.00000     3.73013   
  1428. RY*(  22) C  77                  0.00000     3.70706   
  1429. RY*(  23) C  77                  0.00000     3.44123   
  1430. RY*(  24) C  77                  0.00000     3.47939   
  1431. RY*(  25) C  77                  0.00000     3.44546   
  1432. RY*(  26) C  77                  0.00000     3.44933   
  1433. RY*(   1) H  78                  0.00021     0.92238   
  1434. RY*(   2) H  78                  0.00014     2.13625   
  1435. RY*(   3) H  78                  0.00012     2.28912   
  1436. RY*(   4) H  78                  0.00003     2.71842   
  1437. RY*(   5) H  78                  0.00000     3.14385   
  1519. BD*(   1) C  67 - H  68          0.00173     0.37440   
  1520. BD*(   1) C  67 - H  69          0.00588     0.36080   
  1521. BD*(   1) C  67 - H  70          0.00591     0.36058   
  1522. BD*(   1) C  67 - C  73          0.00683     0.39143   
  1523. BD*(   1) N  71 - H  72          0.00710     0.37003   
  1524. BD*(   1) N  71 - C  73          0.01347     0.43225   
  1525. BD*(   2) N  71 - C  73          0.38450    -0.04358  1530(v),1521(v),1520(v)
                                                    1325(g),1293(g),1330(g)
                                                    1253(v),169(r)
  1526. BD*(   1) N  71 - C  74          0.01130     0.45123   
  1527. BD*(   1) C  73 - C  77          0.01062     0.56883   
  1528. BD*(   1) C  74 - H  75          0.00864     0.38997   
  1529. BD*(   1) C  74 - N  76          0.00818     0.53946   
  1530. BD*(   2) C  74 - N  76          0.21858    -0.00222  1525(v),1350(g),2(r),1408(v)
                                                    1447(r),152(r),1381(g)
                                                    154(r),1441(r),148(r)
                                                    1444(r),149(r)
  1531. BD*(   1) N  76 - C  77          0.00804     0.48603   
  1532. BD*(   1) C  77 - H  78          0.00696     0.43157   
       -------------------------------
              Total Lewis   21.11646  ( 96.6160%)
        Valence non-Lewis    0.69774  (  3.1924%)
        Rydberg non-Lewis    0.04188  (  0.1916%)
       -------------------------------
            Total unit  3   21.85608  (100.0000%)
           Charge unit  3    0.14392
 Unable to Open any file for archive entry.
 1\1\GINC-BGN1019\SP\UAPFD\def2TZVP\C34H36Fe1N6O1(5)\BEBJONES\11-Jul-20
 24\0\\# apfd/def2TZVP guess=read scf=maxcycle=999 geom=check pop=nbo\\
 1arp_II_Q\\0,5\Fe,0,17.7385049022,23.6278123639,30.0320285059\N,0,16.4
 523808337,22.2880441592,29.2972206638\N,0,16.4363968051,25.077681358,2
 9.6981401906\N,0,18.9413284568,24.8925515782,30.9831127787\N,0,19.0479
 499455,22.1583123665,30.3680195414\C,0,16.6785184858,20.9708902304,29.
 0548551499\C,0,15.4728039843,20.3232872502,28.5909293682\C,0,14.507176
 705,21.2824544984,28.566625739\C,0,15.1438214252,22.5103152512,28.9873
 242031\C,0,15.1541732127,24.9482926253,29.2627130054\C,0,14.5377183198
 ,26.2382286872,29.1018911991\C,0,15.479847188,27.1658221441,29.4601856
 82\C,0,16.6453352197,26.4090608517,29.8770996991\C,0,18.7438076883,26.
 231028929,31.1355145382\C,0,19.7251382198,26.7953102585,32.0270424696\
 C,0,20.5464981277,25.7625628479,32.3973799799\C,0,20.0441786229,24.587
 7257683,31.7108704142\C,0,20.2326740243,22.2464030952,31.0266681201\C,
 0,20.9688703507,21.0051248756,30.9271400154\C,0,20.1792419264,20.14995
 38483,30.2247947851\C,0,18.9734569124,20.8824989978,29.9027276445\C,0,
 17.875588272,20.3163067305,29.2834410362\H,0,17.9394253734,19.27651742
 74,29.0012491721\C,0,14.5299815777,23.7476777205,28.9612176632\H,0,13.
 4920717496,23.7855282877,28.6666530265\C,0,17.7088976661,26.954859735,
 30.5687948441\H,0,17.6941792979,28.0208170539,30.7348915948\C,0,20.686
 9963908,23.3632530256,31.7022113973\H,0,21.61440132,23.2765205399,32.2
 476820708\C,0,13.0722447443,21.1685370985,28.1787995361\H,0,12.8064988
 384,20.1333882814,27.9787175605\H,0,12.868544071,21.7535852328,27.2810
 335997\H,0,12.4286944352,21.540601034,28.9759870138\C,0,15.3763929356,
 18.8774271039,28.2419397397\H,0,15.6081215886,18.2568705956,29.1081309
 213\H,0,16.082869721,18.627376533,27.450256137\H,0,14.3753913148,18.62
 72068676,27.8989285497\C,0,13.1538238326,26.4664669823,28.5988010961\H
 ,0,12.4285157971,25.9309070219,29.2120293079\H,0,13.0537787619,26.1102
 521956,27.5726453809\H,0,12.9089988556,27.5254455078,28.6158243697\C,0
 ,15.3429439508,28.6054599755,29.4209734958\H,0,14.3509456258,28.985067
 5213,29.6417319529\C,0,16.305277567,29.4650547109,29.1029542204\H,0,17
 .2930884776,29.138518975,28.825342935\H,0,16.1294103644,30.5280230373,
 29.0886786332\C,0,19.7536175452,28.2113234105,32.4867334213\H,0,18.743
 2578311,28.5984148424,32.6080824897\H,0,20.2723548452,28.8443086325,31
 .7647134105\H,0,20.2722402111,28.2837105567,33.440740165\C,0,21.677746
 0129,25.7615462441,33.2972180818\H,0,21.8304072753,24.8415245999,33.85
 01071119\C,0,22.5224563584,26.7711636122,33.4836938528\H,0,22.44975264
 36,27.6901495398,32.9290341881\H,0,23.337406675,26.7009359483,34.18516
 01889\C,0,22.3151928633,20.7769754852,31.5241947429\H,0,22.2718826111,
 20.8652286203,32.6102612213\H,0,23.02889772,21.5133489632,31.154642014
 8\H,0,22.6854515923,19.7848844135,31.2774098231\C,0,20.4325499735,18.7
 334674017,29.8362234407\H,0,21.4341228679,18.4258631243,30.1268112299\
 H,0,20.3325449471,18.6077455065,28.758098116\H,0,19.7170267047,18.0687
 1988,30.3216039545\O,0,16.768,23.1289999999,32.03\H,0,16.343,22.286999
 9997,31.8659999998\H,0,16.6179999999,23.668,32.721\C,0,21.2870632107,2
 4.5137947238,25.8402997189\H,0,22.1603822179,24.5104753009,26.48477775
 54\H,0,21.2416155624,25.4693289237,25.3180200877\H,0,21.3982959654,23.
 72426756,25.0971642792\N,0,18.8105264624,24.2602853629,26.1092974459\H
 ,0,18.5914671091,24.3697298698,25.1327877319\C,0,20.0658499453,24.3005
 170214,26.6575739046\C,0,17.930761475,24.0518431849,27.1151732033\H,0,
 16.8713537736,23.9752386992,26.9823220013\N,0,18.5528579477,23.9573185
 407,28.2651384258\C,0,19.8813803675,24.1104869972,27.9972009923\H,0,20
 .6083298838,24.0731283637,28.7820357017\\Version=ES64L-G16RevC.02\Stat
 e=5-A\HF=-2984.0081397\S2=6.176851\S2-1=0.\S2A=6.001238\RMSD=2.243e-09
 \Dipole=-0.067112,-0.3828017,-1.4885499\Quadrupole=-0.5735444,-6.86550
 89,7.4390533,1.0332645,-3.7836473,-2.4464568\PG=C01 [X(C34H36Fe1N6O1)]
 \\@
 The archive entry for this job was punched.


 A people that values its privileges above its principles soon loses both.
 -- Dwight D. Eisenhower
 Job cpu time:       0 days 23 hours  6 minutes 48.5 seconds.
 Elapsed time:       0 days  0 hours 21 minutes 24.3 seconds.
 File lengths (MBytes):  RWF=   2166 Int=      0 D2E=      0 Chk=    197 Scr=      1
 Normal termination of Gaussian 16 at Thu Jul 11 16:40:22 2024.
