 Entering Gaussian System, Link 0=g16
 Input=1ash01.com
 Output=1ash01.log
 Initial command:
 /sw/chem/gaussian/g16_C02/a100/g16/l1.exe "/local/bebjones_7927464/Gau-1098303.inp" -scrdir="/local/bebjones_7927464/"
 Entering Link 1 = /sw/chem/gaussian/g16_C02/a100/g16/l1.exe PID=   1098304.
  
 Copyright (c) 1988-2021, Gaussian, Inc.  All Rights Reserved.
  
 This is part of the Gaussian(R) 16 program.  It is based on
 the Gaussian(R) 09 system (copyright 2009, Gaussian, Inc.),
 the Gaussian(R) 03 system (copyright 2003, Gaussian, Inc.),
 the Gaussian(R) 98 system (copyright 1998, Gaussian, Inc.),
 the Gaussian(R) 94 system (copyright 1995, Gaussian, Inc.),
 the Gaussian 92(TM) system (copyright 1992, Gaussian, Inc.),
 the Gaussian 90(TM) system (copyright 1990, Gaussian, Inc.),
 the Gaussian 88(TM) system (copyright 1988, Gaussian, Inc.),
 the Gaussian 86(TM) system (copyright 1986, Carnegie Mellon
 University), and the Gaussian 82(TM) system (copyright 1983,
 Carnegie Mellon University). Gaussian is a federally registered
 trademark of Gaussian, Inc.
  
 This software contains proprietary and confidential information,
 including trade secrets, belonging to Gaussian, Inc.
  
 This software is provided under written license and may be
 used, copied, transmitted, or stored only in accord with that
 written license.
  
 The following legend is applicable only to US Government
 contracts under FAR:
  
                    RESTRICTED RIGHTS LEGEND
  
 Use, reproduction and disclosure by the US Government is
 subject to restrictions as set forth in subparagraphs (a)
 and (c) of the Commercial Computer Software - Restricted
 Rights clause in FAR 52.227-19.
  
 Gaussian, Inc.
 340 Quinnipiac St., Bldg. 40, Wallingford CT 06492
  
  
 ---------------------------------------------------------------
 Warning -- This program may not be used in any manner that
 competes with the business of Gaussian, Inc. or will provide
 assistance to any competitor of Gaussian, Inc.  The licensee
 of this program is prohibited from giving any competitor of
 Gaussian, Inc. access to this program.  By using this program,
 the user acknowledges that Gaussian, Inc. is engaged in the
 business of creating and licensing software in the field of
 computational chemistry and represents and warrants to the
 licensee that it is not a competitor of Gaussian, Inc. and that
 it will not use this program in any manner prohibited above.
 ---------------------------------------------------------------
  

 Cite this work as:
 Gaussian 16, Revision C.02,
 M. J. Frisch, G. W. Trucks, H. B. Schlegel, G. E. Scuseria, 
 M. A. Robb, J. R. Cheeseman, G. Scalmani, V. Barone, 
 G. A. Petersson, H. Nakatsuji, X. Li, M. Caricato, A. V. Marenich, 
 J. Bloino, B. G. Janesko, R. Gomperts, B. Mennucci, H. P. Hratchian, 
 J. V. Ortiz, A. F. Izmaylov, J. L. Sonnenberg, D. Williams-Young, 
 F. Ding, F. Lipparini, F. Egidi, J. Goings, B. Peng, A. Petrone, 
 T. Henderson, D. Ranasinghe, V. G. Zakrzewski, J. Gao, N. Rega, 
 G. Zheng, W. Liang, M. Hada, M. Ehara, K. Toyota, R. Fukuda, 
 J. Hasegawa, M. Ishida, T. Nakajima, Y. Honda, O. Kitao, H. Nakai, 
 T. Vreven, K. Throssell, J. A. Montgomery, Jr., J. E. Peralta, 
 F. Ogliaro, M. J. Bearpark, J. J. Heyd, E. N. Brothers, K. N. Kudin, 
 V. N. Staroverov, T. A. Keith, R. Kobayashi, J. Normand, 
 K. Raghavachari, A. P. Rendell, J. C. Burant, S. S. Iyengar, 
 J. Tomasi, M. Cossi, J. M. Millam, M. Klene, C. Adamo, R. Cammi, 
 J. W. Ochterski, R. L. Martin, K. Morokuma, O. Farkas, 
 J. B. Foresman, and D. J. Fox, Gaussian, Inc., Wallingford CT, 2019.
 
 ******************************************
 Gaussian 16:  ES64L-G16RevC.02  7-Dec-2021
                10-Jul-2024 
 ******************************************
 %mem=16GB
 %CPU=0-71
 SetSPE:  set environment variable "OMP_PROC_BIND" = "true"
 SetSPE:  set environment variable "OMP_PLACES" = "{0},{1},{2},{3},{4},{5},{6},{7},{8},{9},{10},{11},{12},{13},{14},{15},{16},{17},{18},{19},{20},{21},{22},{23},{24},{25},{26},{27},{28},{29},{30},{31},{32},{33},{34},{35},{36},{37},{38},{39},{40},{41},{42},{43},{44},{45},{46},{47},{48},{49},{50},{51},{52},{53},{54},{55},{56},{57},{58},{59},{60},{61},{62},{63},{64},{65},{66},{67},{68},{69},{70},{71}"
 Will use up to   72 processors via shared memory.
 %gpucpu=0,1,2,3=0,1,2,3
 Will use    4 GPUs:
 Thread  CPU   GPU
      0    0     0
      1    1     1
      2    2     2
      3    3     3
      4    4    -1
      5    5    -1
      6    6    -1
      7    7    -1
      8    8    -1
      9    9    -1
     10   10    -1
     11   11    -1
     12   12    -1
     13   13    -1
     14   14    -1
     15   15    -1
     16   16    -1
     17   17    -1
     18   18    -1
     19   19    -1
     20   20    -1
     21   21    -1
     22   22    -1
     23   23    -1
     24   24    -1
     25   25    -1
     26   26    -1
     27   27    -1
     28   28    -1
     29   29    -1
     30   30    -1
     31   31    -1
     32   32    -1
     33   33    -1
     34   34    -1
     35   35    -1
     36   36    -1
     37   37    -1
     38   38    -1
     39   39    -1
     40   40    -1
     41   41    -1
     42   42    -1
     43   43    -1
     44   44    -1
     45   45    -1
     46   46    -1
     47   47    -1
     48   48    -1
     49   49    -1
     50   50    -1
     51   51    -1
     52   52    -1
     53   53    -1
     54   54    -1
     55   55    -1
     56   56    -1
     57   57    -1
     58   58    -1
     59   59    -1
     60   60    -1
     61   61    -1
     62   62    -1
     63   63    -1
     64   64    -1
     65   65    -1
     66   66    -1
     67   67    -1
     68   68    -1
     69   69    -1
     70   70    -1
     71   71    -1
 SetGPE:  set environment variable "OMP_PROC_BIND" = "true"
 SetGPE:  set environment variable "OMP_PLACES" = "{0},{1},{2},{3},{4},{5},{6},{7},{8},{9},{10},{11},{12},{13},{14},{15},{16},{17},{18},{19},{20},{21},{22},{23},{24},{25},{26},{27},{28},{29},{30},{31},{32},{33},{34},{35},{36},{37},{38},{39},{40},{41},{42},{43},{44},{45},{46},{47},{48},{49},{50},{51},{52},{53},{54},{55},{56},{57},{58},{59},{60},{61},{62},{63},{64},{65},{66},{67},{68},{69},{70},{71}"
 %chk=1ash_II_O.chk
 Properties for Device   0
 Minimum vector length:                              32
 Maximum vector length:                            1024
 Number of SMPs:                                    108
 Maximum number of threads per SMP:                2048
 Number of ASync Engines:                             5
 Memory:                                           9207742464
 Properties for Device   1
 Minimum vector length:                              32
 Maximum vector length:                            1024
 Number of SMPs:                                    108
 Maximum number of threads per SMP:                2048
 Number of ASync Engines:                             5
 Memory:                                           9207742464
 Properties for Device   2
 Minimum vector length:                              32
 Maximum vector length:                            1024
 Number of SMPs:                                    108
 Maximum number of threads per SMP:                2048
 Number of ASync Engines:                             5
 Memory:                                           9207742464
 Properties for Device   3
 Minimum vector length:                              32
 Maximum vector length:                            1024
 Number of SMPs:                                    108
 Maximum number of threads per SMP:                2048
 Number of ASync Engines:                             5
 Memory:                                           9207742464
   8286968217 words of memory will be used on each GPU.
 ------------------------------------------
 # polar def2tzvp apfd int=(grid=ultrafine)
 ------------------------------------------
 1/38=1,172=1/1;
 2/12=2,17=6,18=5,40=1/2;
 3/5=44,7=101,11=2,25=1,30=1,74=-44,75=-5/1,2,3;
 4//1;
 5/5=2,38=5,98=1/2;
 8/6=4,10=90,11=11/1;
 10/6=1,13=10/2;
 6/7=2,8=2,9=2,10=2,28=1/1;
 99/5=1,9=1/99;
 ---------
 1ash_II_S
 ---------
 Symbolic Z-matrix:
 Charge =  0 Multiplicity = 1
 Fe                    19.93084  -20.85235   3.0115 
 N                     18.4546  -21.55761   4.15042 
 N                     20.63612  -22.69949   2.74871 
 N                     21.50931  -20.0457   2.03278 
 N                     19.20382  -18.95462   3.24987 
 C                     17.37637  -20.87505   4.61602 
 C                     16.50975  -21.75453   5.36591 
 C                     17.09179  -22.98481   5.33843 
 C                     18.29893  -22.84859   4.55061 
 C                     20.14918  -23.8522   3.27191 
 C                     20.93063  -24.97897   2.79863 
 C                     21.87863  -24.46817   1.96612 
 C                     21.70734  -23.03289   1.98143 
 C                     22.45681  -20.7637   1.38215 
 C                     23.35158  -19.88584   0.65729 
 C                     22.90452  -18.61299   0.89178 
 C                     21.7519  -18.73653   1.74787 
 C                     19.76978  -17.78936   2.8397 
 C                     18.9276  -16.66887   3.2114 
 C                     17.81936  -17.20859   3.80656 
 C                     18.02559  -18.63383   3.8378 
 C                     17.14236  -19.52884   4.42358 
 H                     16.21292  -19.12682   4.79347 
 C                     19.08263  -23.92045   4.15323 
 H                     18.79182  -24.89745   4.51317 
 C                     22.55196  -22.14536   1.34465 
 H                     23.35648  -22.56475   0.75855 
 C                     20.95798  -17.6725   2.14265 
 H                     21.26588  -16.68088   1.8532 
 C                     15.2832  -21.30891   6.08625 
 H                     14.53835  -20.92301   5.39101 
 H                     15.53189  -20.51655   6.79478 
 H                     14.84447  -22.13656   6.63849 
 C                     16.64335  -24.24992   5.98806 
 H                     17.45105  -24.66714   6.58971 
 H                     16.35195  -24.99086   5.24239 
 H                     15.78985  -24.06133   6.63601 
 C                     16.6208  -16.50898   4.34705 
 H                     16.54438  -16.663    5.4229 
 H                     15.71065  -16.89164   3.88433 
 H                     16.68446  -15.4414   4.15742 
 C                     19.16824  -15.26044   2.9571 
 H                     18.30178  -14.68932   2.64109 
 C                     20.32773  -14.63733   3.12286 
 H                     21.20395  -15.14785   3.48632 
 H                     20.43083  -13.58264   2.93086 
 C                     23.46032  -17.32988   0.38383 
 H                     23.44148  -16.55329   1.1477 
 H                     22.8643  -16.98545  -0.46204 
 H                     24.48669  -17.46642   0.0497 
 C                     24.46221  -20.32853  -0.16123 
 H                     25.03868  -21.16329   0.22076 
 C                     24.78644  -19.79009  -1.32991 
 H                     24.20731  -18.99207  -1.75846 
 H                     25.61324  -20.15644  -1.91343 
 C                     22.88369  -25.19266   1.13812 
 H                     23.89171  -24.89148   1.42065 
 H                     22.75111  -24.97239   0.0775 
 H                     22.78639  -26.26754   1.26927 
 C                     20.66004  -26.4128   3.09954 
 H                     21.58285  -26.98951   3.06872 
 H                     19.98304  -26.82865   2.35319 
 H                     20.19832  -26.53176   4.07683 
 O                     18.92878  -20.94359   1.65512 
 O                     19.33337  -21.50842   0.58243 
 C                     23.81306  -21.4539   7.39533 
 H                     24.43938  -22.12632   6.81748 
 H                     23.4776  -21.97432   8.29237 
 H                     24.41193  -20.59722   7.70368 
 N                     21.70992  -20.14118   7.02958 
 H                     21.70752  -19.70409   7.93698 
 C                     22.65647  -21.02209   6.57178 
 C                     20.80414  -19.96576   6.0434 
 H                     19.94468  -19.332    6.12381 
 N                     21.11641  -20.676    4.99206 
 C                     22.26395  -21.34046   5.30241 
 H                     22.72253  -22.00081   4.59585 
 
 Stoichiometry    C34H34FeN6O2
 Framework group  C1[X(C34H34FeN6O2)]
 Deg. of freedom   225
 Full point group                 C1      NOp   1
 Largest Abelian subgroup         C1      NOp   1
 Largest concise Abelian subgroup C1      NOp   1
                         Standard orientation:                         
 ---------------------------------------------------------------------
 Center     Atomic      Atomic             Coordinates (Angstroms)
 Number     Number       Type             X           Y           Z
 ---------------------------------------------------------------------
      1         26           0       -0.169702    0.008834   -0.446044
      2          7           0       -2.051793    0.664862   -0.480325
      3          7           0       -0.807693   -1.880720   -0.477364
      4          7           0        1.753041   -0.581011   -0.210863
      5          7           0        0.500680    1.942048   -0.440667
      6          6           0       -2.474289    1.944764   -0.649406
      7          6           0       -3.917750    2.000379   -0.662556
      8          6           0       -4.354394    0.721363   -0.499505
      9          6           0       -3.170092   -0.106948   -0.411447
     10          6           0       -2.091014   -2.319598   -0.485467
     11          6           0       -2.117731   -3.768473   -0.551164
     12          6           0       -0.820080   -4.176046   -0.603093
     13          6           0       -0.011197   -2.981558   -0.510850
     14          6           0        2.173395   -1.867983   -0.270968
     15          6           0        3.619058   -1.933545   -0.221519
     16          6           0        4.053487   -0.637910   -0.134357
     17          6           0        2.873325    0.189080   -0.134244
     18          6           0        1.779021    2.378811   -0.294181
     19          6           0        1.819277    3.827468   -0.346229
     20          6           0        0.533707    4.234261   -0.581882
     21          6           0       -0.272744    3.041216   -0.615130
     22          6           0       -1.651066    3.045406   -0.771673
     23          1           0       -2.117834    3.997583   -0.966022
     24          6           0       -3.199623   -1.492614   -0.408015
     25          1           0       -4.174463   -1.959891   -0.410881
     26          6           0        1.366505   -2.984468   -0.418694
     27          1           0        1.862059   -3.942669   -0.472917
     28          6           0        2.893353    1.573906   -0.146712
     29          1           0        3.850977    2.063575   -0.075449
     30          6           0       -4.707515    3.261985   -0.743239
     31          1           0       -4.529982    3.776255   -1.687211
     32          1           0       -4.425059    3.933431    0.069831
     33          1           0       -5.770975    3.051154   -0.659210
     34          6           0       -5.752444    0.212735   -0.397742
     35          1           0       -5.865715   -0.389620    0.503795
     36          1           0       -6.007451   -0.406136   -1.259074
     37          1           0       -6.455042    1.042238   -0.351313
     38          6           0        0.014551    5.618924   -0.758825
     39          1           0       -0.681765    5.868357    0.041134
     40          1           0       -0.512324    5.713855   -1.708716
     41          1           0        0.829249    6.337018   -0.740258
     42          6           0        2.985952    4.683314   -0.233747
     43          1           0        3.016476    5.522157   -0.920916
     44          6           0        3.961953    4.538470    0.653161
     45          1           0        3.951196    3.754285    1.391702
     46          1           0        4.792249    5.223326    0.691198
     47          6           0        5.451516   -0.135005   -0.057550
     48          1           0        5.542147    0.695224    0.642055
     49          1           0        5.765493    0.216803   -1.040917
     50          1           0        6.124615   -0.930506    0.255258
     51          6           0        4.394866   -3.155548   -0.286867
     52          1           0        3.996168   -4.007925    0.251244
     53          6           0        5.526017   -3.283378   -0.968783
     54          1           0        5.923769   -2.471361   -1.550430
     55          1           0        6.066813   -4.213318   -1.001310
     56          6           0       -0.279497   -5.554291   -0.772885
     57          1           0        0.344358   -5.821582    0.079175
     58          1           0        0.331483   -5.628340   -1.674123
     59          1           0       -1.087985   -6.276081   -0.858922
     60          6           0       -3.341765   -4.612398   -0.646869
     61          1           0       -3.164857   -5.591934   -0.206021
     62          1           0       -3.610088   -4.762093   -1.692757
     63          1           0       -4.185669   -4.143787   -0.146201
     64          8           0       -0.102986    0.110415   -2.130515
     65          8           0        0.321476   -0.873716   -2.826719
     66          6           0       -0.588077   -1.371912    5.260963
     67          1           0       -0.360148   -2.417305    5.077816
     68          1           0       -1.574199   -1.305342    5.720497
     69          1           0        0.142185   -0.973345    5.964878
     70          7           0       -0.767637    0.728570    3.906002
     71          1           0       -0.957959    1.334241    4.687900
     72          6           0       -0.551026   -0.623904    3.979752
     73          6           0       -0.666544    1.088366    2.608271
     74          1           0       -0.796354    2.089622    2.251316
     75          7           0       -0.398662    0.053284    1.857188
     76          6           0       -0.324749   -1.020213    2.691937
     77          1           0       -0.118905   -1.998335    2.309192
 ---------------------------------------------------------------------
 Rotational constants (GHZ):           0.0903894           0.0883256           0.0597261
 Standard basis: def2TZVP (5D, 7F)
 There are  1768 symmetry adapted cartesian basis functions of A   symmetry.
 There are  1551 symmetry adapted basis functions of A   symmetry.
  1551 basis functions,  2516 primitive gaussians,  1768 cartesian basis functions
   161 alpha electrons      161 beta electrons
       nuclear repulsion energy      6190.3147454508 Hartrees.
 NAtoms=   77 NActive=   77 NUniq=   77 SFac= 1.00D+00 NAtFMM=   60 NAOKFM=T Big=T
 Integral buffers will be    131072 words long.
 Raffenetti 2 integral format.
 Two-electron integral symmetry is turned on.
 R6APFD:  NTU= -4 IXU= 1 FactS= 1.050
 Nuclear repulsion after empirical dispersion term =     6190.1619670792 Hartrees.
 One-electron integrals computed using PRISM.
   1 Symmetry operations used in ECPInt.
 ECPInt:  NShTT=  188191 NPrTT=  584825 LenC2=  148030 LenP2D=  303069.
 LDataN:  DoStor=T MaxTD1= 6 Len=  172
 Number of processors reduced to  23 by ecpmxn.
 NBasis=  1551 RedAO= T EigKep=  3.59D-06  NBF=  1551
 NBsUse=  1551 1.00D-06 EigRej= -1.00D+00 NBFU=  1551
 ExpMin= 4.20D-02 ExpMax= 3.01D+05 ExpMxC= 2.91D+03 IAcc=3 IRadAn=         5 AccDes= 0.00D+00
 Harris functional with IExCor= 3731 and IRadAn=       5 diagonalized for initial guess.
 HarFok:  IExCor= 3731 AccDes= 0.00D+00 IRadAn=         5 IDoV= 1 UseB2=F ITyADJ=14
 ICtDFT=  3500011 ScaDFX=  1.000000  1.000000  1.000000  1.000000
 FoFCou: FMM=F IPFlag=           0 FMFlag=      100000 FMFlg1=        2001
         NFxFlg=           0 DoJE=T BraDBF=F KetDBF=T FulRan=T
         wScrn=  0.000000 ICntrl=       500 IOpCl=  0 I1Cent=   200000004 NGrid=           0
         NMat0=    1 NMatS0=      1 NMatT0=    0 NMatD0=    1 NMtDS0=    0 NMtDT0=    0
 Petite list used in FoFCou.
 Requested convergence on RMS density matrix=1.00D-08 within 128 cycles.
 Requested convergence on MAX density matrix=1.00D-06.
 Requested convergence on             energy=1.00D-06.
 No special actions if energy rises.
 EnCoef did     2 forward-backward iterations
 EnCoef did   100 forward-backward iterations
 EnCoef did   100 forward-backward iterations
 EnCoef did     2 forward-backward iterations
 EnCoef did     5 forward-backward iterations
 EnCoef did     5 forward-backward iterations
 EnCoef did     6 forward-backward iterations
 EnCoef did     5 forward-backward iterations
 Restarting incremental Fock formation.
 SCF Done:  E(RAPFD) =  -3057.87529736     A.U. after   28 cycles
            NFock= 28  Conv=0.51D-08     -V/T= 2.0035
 DoSCS=F DFT=T ScalE2(SS,OS)=  1.000000  1.000000
 Range of M.O.s used for correlation:     1  1551
 NBasis=  1551 NAE=   161 NBE=   161 NFC=     0 NFV=     0
 NROrb=   1551 NOA=   161 NOB=   161 NVA=  1390 NVB=  1390

 **** Warning!!: The largest alpha MO coefficient is  0.43446628D+02


 **** Warning!!: The smallest alpha delta epsilon is  0.81793481D-01

          Differentiating once with respect to electric field.
                with respect to dipole field.
          Electric field/nuclear overlap derivatives assumed to be zero.
          There are     3 degrees of freedom in the 1st order CPHF.  IDoFFX=0 NUNeed=     3.
      3 vectors produced by pass  0 Test12= 7.46D-12 3.33D-08 XBig12= 1.92D+03 2.72D+01.
 AX will form     3 AO Fock derivatives at one time.
      3 vectors produced by pass  1 Test12= 7.46D-12 3.33D-08 XBig12= 3.81D+03 2.06D+01.
      3 vectors produced by pass  2 Test12= 7.46D-12 3.33D-08 XBig12= 3.03D+03 8.47D+00.
      3 vectors produced by pass  3 Test12= 7.46D-12 3.33D-08 XBig12= 1.95D+03 9.23D+00.
      3 vectors produced by pass  4 Test12= 7.46D-12 3.33D-08 XBig12= 1.02D+03 9.40D+00.
      3 vectors produced by pass  5 Test12= 7.46D-12 3.33D-08 XBig12= 9.36D+02 8.53D+00.
      3 vectors produced by pass  6 Test12= 7.46D-12 3.33D-08 XBig12= 4.60D+02 5.95D+00.
      3 vectors produced by pass  7 Test12= 7.46D-12 3.33D-08 XBig12= 2.19D+02 2.41D+00.
      3 vectors produced by pass  8 Test12= 7.46D-12 3.33D-08 XBig12= 1.11D+02 1.81D+00.
      3 vectors produced by pass  9 Test12= 7.46D-12 3.33D-08 XBig12= 5.06D+01 2.14D+00.
      3 vectors produced by pass 10 Test12= 7.46D-12 3.33D-08 XBig12= 2.68D+01 1.71D+00.
      3 vectors produced by pass 11 Test12= 7.46D-12 3.33D-08 XBig12= 1.13D+01 1.11D+00.
      3 vectors produced by pass 12 Test12= 7.46D-12 3.33D-08 XBig12= 7.74D+00 5.97D-01.
      3 vectors produced by pass 13 Test12= 7.46D-12 3.33D-08 XBig12= 3.19D+00 4.84D-01.
      3 vectors produced by pass 14 Test12= 7.46D-12 3.33D-08 XBig12= 1.68D+00 4.14D-01.
      3 vectors produced by pass 15 Test12= 7.46D-12 3.33D-08 XBig12= 5.77D-01 2.43D-01.
      3 vectors produced by pass 16 Test12= 7.46D-12 3.33D-08 XBig12= 3.08D-01 2.26D-01.
      3 vectors produced by pass 17 Test12= 7.46D-12 3.33D-08 XBig12= 6.78D-02 7.37D-02.
      3 vectors produced by pass 18 Test12= 7.46D-12 3.33D-08 XBig12= 2.35D-02 3.65D-02.
      3 vectors produced by pass 19 Test12= 7.46D-12 3.33D-08 XBig12= 5.04D-03 1.79D-02.
      3 vectors produced by pass 20 Test12= 7.46D-12 3.33D-08 XBig12= 7.80D-04 5.26D-03.
      3 vectors produced by pass 21 Test12= 7.46D-12 3.33D-08 XBig12= 2.07D-04 2.52D-03.
      3 vectors produced by pass 22 Test12= 7.46D-12 3.33D-08 XBig12= 4.01D-05 8.19D-04.
      3 vectors produced by pass 23 Test12= 7.46D-12 3.33D-08 XBig12= 9.28D-06 5.45D-04.
      3 vectors produced by pass 24 Test12= 7.46D-12 3.33D-08 XBig12= 1.54D-06 2.10D-04.
      3 vectors produced by pass 25 Test12= 7.46D-12 3.33D-08 XBig12= 1.85D-07 7.52D-05.
      3 vectors produced by pass 26 Test12= 7.46D-12 3.33D-08 XBig12= 3.47D-08 4.87D-05.
      3 vectors produced by pass 27 Test12= 7.46D-12 3.33D-08 XBig12= 1.19D-08 3.09D-05.
      3 vectors produced by pass 28 Test12= 7.46D-12 3.33D-08 XBig12= 1.78D-09 1.30D-05.
      3 vectors produced by pass 29 Test12= 7.46D-12 3.33D-08 XBig12= 2.14D-10 2.73D-06.
      3 vectors produced by pass 30 Test12= 7.46D-12 3.33D-08 XBig12= 3.11D-11 1.01D-06.
      3 vectors produced by pass 31 Test12= 7.46D-12 3.33D-08 XBig12= 3.41D-12 2.74D-07.
      3 vectors produced by pass 32 Test12= 7.46D-12 3.33D-08 XBig12= 6.00D-13 1.01D-07.
      1 vectors produced by pass 33 Test12= 7.46D-12 3.33D-08 XBig12= 1.17D-13 4.48D-08.
 InvSVY:  IOpt=1 It=  1 EMax= 3.55D-14
 Solved reduced A of dimension   100 with     3 vectors.
 Isotropic polarizability for W=    0.000000      576.92 Bohr**3.
 End of Minotr F.D. properties file   721 does not exist.
 End of Minotr F.D. properties file   722 does not exist.
 End of Minotr F.D. properties file   788 does not exist.

 **********************************************************************

            Population analysis using the SCF Density.

 **********************************************************************

 Orbital symmetries:
       Occupied  (A) (A) (A) (A) (A) (A) (A) (A) (A) (A) (A) (A)
                 (A) (A) (A) (A) (A) (A) (A) (A) (A) (A) (A) (A)
                 (A) (A) (A) (A) (A) (A) (A) (A) (A) (A) (A) (A)
                 (A) (A) (A) (A) (A) (A) (A) (A) (A) (A) (A) (A)
                 (A) (A) (A) (A) (A) (A) (A) (A) (A) (A) (A) (A)
                 (A) (A) (A) (A) (A) (A) (A) (A) (A) (A) (A) (A)
                 (A) (A) (A) (A) (A) (A) (A) (A) (A) (A) (A) (A)
                 (A) (A) (A) (A) (A) (A) (A) (A) (A) (A) (A) (A)
                 (A) (A) (A) (A) (A) (A) (A) (A) (A) (A) (A) (A)
                 (A) (A) (A) (A) (A) (A) (A) (A) (A) (A) (A) (A)
                 (A) (A) (A) (A) (A) (A) (A) (A) (A) (A) (A) (A)
                 (A) (A) (A) (A) (A) (A) (A) (A) (A) (A) (A) (A)
                 (A) (A) (A) (A) (A) (A) (A) (A) (A) (A) (A) (A)
                 (A) (A) (A) (A) (A)
       Virtual   (A) (A) (A) (A) (A) (A) (A) (A) (A) (A) (A) (A)
                 (A) (A) (A) (A) (A) (A) (A) (A) (A) (A) (A) (A)
                 (A) (A) (A) (A) (A) (A) (A) (A) (A) (A) (A) (A)
                 (A) (A) (A) (A) (A) (A) (A) (A) (A) (A) (A) (A)
                 (A) (A) (A) (A) (A) (A) (A) (A) (A) (A) (A) (A)
                 (A) (A) (A) (A) (A) (A) (A) (A) (A) (A) (A) (A)
                 (A) (A) (A) (A) (A) (A) (A) (A) (A) (A) (A) (A)
                 (A) (A) (A) (A) (A) (A) (A) (A) (A) (A) (A) (A)
                 (A) (A) (A) (A) (A) (A) (A) (A) (A) (A) (A) (A)
                 (A) (A) (A) (A) (A) (A) (A) (A) (A) (A) (A) (A)
                 (A) (A) (A) (A) (A) (A) (A) (A) (A) (A) (A) (A)
                 (A) (A) (A) (A) (A) (A) (A) (A) (A) (A) (A) (A)
                 (A) (A) (A) (A) (A) (A) (A) (A) (A) (A) (A) (A)
                 (A) (A) (A) (A) (A) (A) (A) (A) (A) (A) (A) (A)
                 (A) (A) (A) (A) (A) (A) (A) (A) (A) (A) (A) (A)
                 (A) (A) (A) (A) (A) (A) (A) (A) (A) (A) (A) (A)
                 (A) (A) (A) (A) (A) (A) (A) (A) (A) (A) (A) (A)
                 (A) (A) (A) (A) (A) (A) (A) (A) (A) (A) (A) (A)
                 (A) (A) (A) (A) (A) (A) (A) (A) (A) (A) (A) (A)
                 (A) (A) (A) (A) (A) (A) (A) (A) (A) (A) (A) (A)
                 (A) (A) (A) (A) (A) (A) (A) (A) (A) (A) (A) (A)
                 (A) (A) (A) (A) (A) (A) (A) (A) (A) (A) (A) (A)
                 (A) (A) (A) (A) (A) (A) (A) (A) (A) (A) (A) (A)
                 (A) (A) (A) (A) (A) (A) (A) (A) (A) (A) (A) (A)
                 (A) (A) (A) (A) (A) (A) (A) (A) (A) (A) (A) (A)
                 (A) (A) (A) (A) (A) (A) (A) (A) (A) (A) (A) (A)
                 (A) (A) (A) (A) (A) (A) (A) (A) (A) (A) (A) (A)
                 (A) (A) (A) (A) (A) (A) (A) (A) (A) (A) (A) (A)
                 (A) (A) (A) (A) (A) (A) (A) (A) (A) (A) (A) (A)
                 (A) (A) (A) (A) (A) (A) (A) (A) (A) (A) (A) (A)
                 (A) (A) (A) (A) (A) (A) (A) (A) (A) (A) (A) (A)
                 (A) (A) (A) (A) (A) (A) (A) (A) (A) (A) (A) (A)
                 (A) (A) (A) (A) (A) (A) (A) (A) (A) (A) (A) (A)
                 (A) (A) (A) (A) (A) (A) (A) (A) (A) (A) (A) (A)
                 (A) (A) (A) (A) (A) (A) (A) (A) (A) (A) (A) (A)
                 (A) (A) (A) (A) (A) (A) (A) (A) (A) (A) (A) (A)
                 (A) (A) (A) (A) (A) (A) (A) (A) (A) (A) (A) (A)
                 (A) (A) (A) (A) (A) (A) (A) (A) (A) (A) (A) (A)
                 (A) (A) (A) (A) (A) (A) (A) (A) (A) (A) (A) (A)
                 (A) (A) (A) (A) (A) (A) (A) (A) (A) (A) (A) (A)
                 (A) (A) (A) (A) (A) (A) (A) (A) (A) (A) (A) (A)
                 (A) (A) (A) (A) (A) (A) (A) (A) (A) (A) (A) (A)
                 (A) (A) (A) (A) (A) (A) (A) (A) (A) (A) (A) (A)
                 (A) (A) (A) (A) (A) (A) (A) (A) (A) (A) (A) (A)
                 (A) (A) (A) (A) (A) (A) (A) (A) (A) (A) (A) (A)
                 (A) (A) (A) (A) (A) (A) (A) (A) (A) (A) (A) (A)
                 (A) (A) (A) (A) (A) (A) (A) (A) (A) (A) (A) (A)
                 (A) (A) (A) (A) (A) (A) (A) (A) (A) (A) (A) (A)
                 (A) (A) (A) (A) (A) (A) (A) (A) (A) (A) (A) (A)
                 (A) (A) (A) (A) (A) (A) (A) (A) (A) (A) (A) (A)
                 (A) (A) (A) (A) (A) (A) (A) (A) (A) (A) (A) (A)
                 (A) (A) (A) (A) (A) (A) (A) (A) (A) (A) (A) (A)
                 (A) (A) (A) (A) (A) (A) (A) (A) (A) (A) (A) (A)
                 (A) (A) (A) (A) (A) (A) (A) (A) (A) (A) (A) (A)
                 (A) (A) (A) (A) (A) (A) (A) (A) (A) (A) (A) (A)
                 (A) (A) (A) (A) (A) (A) (A) (A) (A) (A) (A) (A)
                 (A) (A) (A) (A) (A) (A) (A) (A) (A) (A) (A) (A)
                 (A) (A) (A) (A) (A) (A) (A) (A) (A) (A) (A) (A)
                 (A) (A) (A) (A) (A) (A) (A) (A) (A) (A) (A) (A)
                 (A) (A) (A) (A) (A) (A) (A) (A) (A) (A) (A) (A)
                 (A) (A) (A) (A) (A) (A) (A) (A) (A) (A) (A) (A)
                 (A) (A) (A) (A) (A) (A) (A) (A) (A) (A) (A) (A)
                 (A) (A) (A) (A) (A) (A) (A) (A) (A) (A) (A) (A)
                 (A) (A) (A) (A) (A) (A) (A) (A) (A) (A) (A) (A)
                 (A) (A) (A) (A) (A) (A) (A) (A) (A) (A) (A) (A)
                 (A) (A) (A) (A) (A) (A) (A) (A) (A) (A) (A) (A)
                 (A) (A) (A) (A) (A) (A) (A) (A) (A) (A) (A) (A)
                 (A) (A) (A) (A) (A) (A) (A) (A) (A) (A) (A) (A)
                 (A) (A) (A) (A) (A) (A) (A) (A) (A) (A) (A) (A)
                 (A) (A) (A) (A) (A) (A) (A) (A) (A) (A) (A) (A)
                 (A) (A) (A) (A) (A) (A) (A) (A) (A) (A) (A) (A)
                 (A) (A) (A) (A) (A) (A) (A) (A) (A) (A) (A) (A)
                 (A) (A) (A) (A) (A) (A) (A) (A) (A) (A) (A) (A)
                 (A) (A) (A) (A) (A) (A) (A) (A) (A) (A) (A) (A)
                 (A) (A) (A) (A) (A) (A) (A) (A) (A) (A) (A) (A)
                 (A) (A) (A) (A) (A) (A) (A) (A) (A) (A) (A) (A)
                 (A) (A) (A) (A) (A) (A) (A) (A) (A) (A) (A) (A)
                 (A) (A) (A) (A) (A) (A) (A) (A) (A) (A) (A) (A)
                 (A) (A) (A) (A) (A) (A) (A) (A) (A) (A) (A) (A)
                 (A) (A) (A) (A) (A) (A) (A) (A) (A) (A) (A) (A)
                 (A) (A) (A) (A) (A) (A) (A) (A) (A) (A) (A) (A)
                 (A) (A) (A) (A) (A) (A) (A) (A) (A) (A) (A) (A)
                 (A) (A) (A) (A) (A) (A) (A) (A) (A) (A) (A) (A)
                 (A) (A) (A) (A) (A) (A) (A) (A) (A) (A) (A) (A)
                 (A) (A) (A) (A) (A) (A) (A) (A) (A) (A) (A) (A)
                 (A) (A) (A) (A) (A) (A) (A) (A) (A) (A) (A) (A)
                 (A) (A) (A) (A) (A) (A) (A) (A) (A) (A) (A) (A)
                 (A) (A) (A) (A) (A) (A) (A) (A) (A) (A) (A) (A)
                 (A) (A) (A) (A) (A) (A) (A) (A) (A) (A) (A) (A)
                 (A) (A) (A) (A) (A) (A) (A) (A) (A) (A) (A) (A)
                 (A) (A) (A) (A) (A) (A) (A) (A) (A) (A) (A) (A)
                 (A) (A) (A) (A) (A) (A) (A) (A) (A) (A) (A) (A)
                 (A) (A) (A) (A) (A) (A) (A) (A) (A) (A) (A) (A)
                 (A) (A) (A) (A) (A) (A) (A) (A) (A) (A) (A) (A)
                 (A) (A) (A) (A) (A) (A) (A) (A) (A) (A) (A) (A)
                 (A) (A) (A) (A) (A) (A) (A) (A) (A) (A) (A) (A)
                 (A) (A) (A) (A) (A) (A) (A) (A) (A) (A) (A) (A)
                 (A) (A) (A) (A) (A) (A) (A) (A) (A) (A) (A) (A)
                 (A) (A) (A) (A) (A) (A) (A) (A) (A) (A) (A) (A)
                 (A) (A) (A) (A) (A) (A) (A) (A) (A) (A) (A) (A)
                 (A) (A) (A) (A) (A) (A) (A) (A) (A) (A) (A) (A)
                 (A) (A) (A) (A) (A) (A) (A) (A) (A) (A) (A) (A)
                 (A) (A) (A) (A) (A) (A) (A) (A) (A) (A) (A) (A)
                 (A) (A) (A) (A) (A) (A) (A) (A) (A) (A) (A) (A)
                 (A) (A) (A) (A) (A) (A) (A) (A) (A) (A) (A) (A)
                 (A) (A) (A) (A) (A) (A) (A) (A) (A) (A) (A) (A)
                 (A) (A) (A) (A) (A) (A) (A) (A) (A) (A) (A) (A)
                 (A) (A) (A) (A) (A) (A) (A) (A) (A) (A) (A) (A)
                 (A) (A) (A) (A) (A) (A) (A) (A) (A) (A) (A) (A)
                 (A) (A) (A) (A) (A) (A) (A) (A) (A) (A) (A) (A)
                 (A) (A) (A) (A) (A) (A) (A) (A) (A) (A) (A) (A)
                 (A) (A) (A) (A) (A) (A) (A) (A) (A) (A) (A) (A)
                 (A) (A) (A) (A) (A) (A) (A) (A) (A) (A) (A) (A)
                 (A) (A) (A) (A) (A) (A) (A) (A) (A) (A) (A) (A)
                 (A) (A) (A) (A) (A) (A) (A) (A) (A) (A) (A) (A)
                 (A) (A) (A) (A) (A) (A) (A) (A) (A) (A)
 The electronic state is 1-A.
 Alpha  occ. eigenvalues -- -256.24308 -30.09932 -25.94326 -25.94059 -25.92899
 Alpha  occ. eigenvalues --  -19.27295 -19.19421 -14.42251 -14.35960 -14.34396
 Alpha  occ. eigenvalues --  -14.34359 -14.34332 -14.34192 -10.26022 -10.24218
 Alpha  occ. eigenvalues --  -10.21968 -10.21851 -10.21833 -10.21776 -10.21679
 Alpha  occ. eigenvalues --  -10.21677 -10.21625 -10.21604 -10.21529 -10.21308
 Alpha  occ. eigenvalues --  -10.20200 -10.19845 -10.19587 -10.19576 -10.19372
 Alpha  occ. eigenvalues --  -10.19334 -10.19322 -10.19283 -10.19144 -10.19134
 Alpha  occ. eigenvalues --  -10.19134 -10.19126 -10.19095 -10.19085 -10.19018
 Alpha  occ. eigenvalues --  -10.18955 -10.18942 -10.18924 -10.18888 -10.18734
 Alpha  occ. eigenvalues --  -10.18558 -10.18416  -3.46806  -2.24051  -2.23088
 Alpha  occ. eigenvalues --   -2.21304  -1.17672  -1.05770  -0.97730  -0.96825
 Alpha  occ. eigenvalues --   -0.96756  -0.95853  -0.91075  -0.82852  -0.82396
 Alpha  occ. eigenvalues --   -0.82045  -0.81309  -0.81003  -0.80733  -0.80210
 Alpha  occ. eigenvalues --   -0.80109  -0.78552  -0.77397  -0.76267  -0.74745
 Alpha  occ. eigenvalues --   -0.74523  -0.73587  -0.72217  -0.71312  -0.70527
 Alpha  occ. eigenvalues --   -0.68753  -0.68480  -0.68374  -0.64984  -0.64750
 Alpha  occ. eigenvalues --   -0.64639  -0.61723  -0.61191  -0.60665  -0.58223
 Alpha  occ. eigenvalues --   -0.57427  -0.56312  -0.55010  -0.54751  -0.54028
 Alpha  occ. eigenvalues --   -0.52775  -0.51950  -0.51457  -0.51065  -0.49319
 Alpha  occ. eigenvalues --   -0.48942  -0.48669  -0.48141  -0.48044  -0.47898
 Alpha  occ. eigenvalues --   -0.46788  -0.46284  -0.45898  -0.45298  -0.45023
 Alpha  occ. eigenvalues --   -0.44807  -0.44325  -0.43925  -0.43821  -0.43652
 Alpha  occ. eigenvalues --   -0.43514  -0.43398  -0.43139  -0.43039  -0.42867
 Alpha  occ. eigenvalues --   -0.42742  -0.42047  -0.41970  -0.41870  -0.41518
 Alpha  occ. eigenvalues --   -0.40781  -0.40571  -0.40521  -0.40323  -0.40014
 Alpha  occ. eigenvalues --   -0.39522  -0.39389  -0.39250  -0.38993  -0.38305
 Alpha  occ. eigenvalues --   -0.38198  -0.37721  -0.37544  -0.37269  -0.36767
 Alpha  occ. eigenvalues --   -0.36172  -0.35950  -0.35113  -0.34754  -0.34298
 Alpha  occ. eigenvalues --   -0.33049  -0.32509  -0.32129  -0.32020  -0.30793
 Alpha  occ. eigenvalues --   -0.30480  -0.29605  -0.29211  -0.27357  -0.27159
 Alpha  occ. eigenvalues --   -0.25783  -0.25337  -0.24660  -0.24357  -0.23406
 Alpha  occ. eigenvalues --   -0.22841  -0.22344  -0.21331  -0.21194  -0.18937
 Alpha  occ. eigenvalues --   -0.18442
 Alpha virt. eigenvalues --   -0.10262  -0.07240  -0.06989  -0.02266  -0.00881
 Alpha virt. eigenvalues --   -0.00030   0.00211   0.01032   0.01598   0.02330
 Alpha virt. eigenvalues --    0.03770   0.04388   0.04789   0.05287   0.05543
 Alpha virt. eigenvalues --    0.05802   0.06027   0.06834   0.07184   0.07313
 Alpha virt. eigenvalues --    0.07872   0.07998   0.08249   0.09012   0.09211
 Alpha virt. eigenvalues --    0.09766   0.09979   0.10290   0.10628   0.11034
 Alpha virt. eigenvalues --    0.11075   0.11532   0.11630   0.11938   0.12167
 Alpha virt. eigenvalues --    0.12444   0.12598   0.12714   0.13051   0.13106
 Alpha virt. eigenvalues --    0.13422   0.13612   0.13804   0.13926   0.14338
 Alpha virt. eigenvalues --    0.14438   0.14471   0.14978   0.15116   0.15280
 Alpha virt. eigenvalues --    0.15480   0.15656   0.15688   0.15986   0.16464
 Alpha virt. eigenvalues --    0.16712   0.16813   0.16923   0.16982   0.17300
 Alpha virt. eigenvalues --    0.17687   0.18037   0.18204   0.18760   0.19169
 Alpha virt. eigenvalues --    0.19590   0.19843   0.19986   0.20209   0.20435
 Alpha virt. eigenvalues --    0.20783   0.20977   0.21213   0.21695   0.22102
 Alpha virt. eigenvalues --    0.22260   0.22430   0.22758   0.22872   0.23033
 Alpha virt. eigenvalues --    0.23253   0.23762   0.24068   0.24497   0.24885
 Alpha virt. eigenvalues --    0.25108   0.25292   0.25671   0.26104   0.26297
 Alpha virt. eigenvalues --    0.26710   0.26851   0.27218   0.27339   0.27557
 Alpha virt. eigenvalues --    0.27906   0.28060   0.28229   0.28887   0.29153
 Alpha virt. eigenvalues --    0.29195   0.29245   0.29494   0.29645   0.29757
 Alpha virt. eigenvalues --    0.29990   0.30313   0.30663   0.31221   0.31657
 Alpha virt. eigenvalues --    0.31784   0.31954   0.32318   0.32762   0.33151
 Alpha virt. eigenvalues --    0.33365   0.33711   0.33906   0.34149   0.34478
 Alpha virt. eigenvalues --    0.34639   0.35043   0.35097   0.35403   0.35591
 Alpha virt. eigenvalues --    0.35814   0.36377   0.36557   0.36696   0.36875
 Alpha virt. eigenvalues --    0.37112   0.37419   0.37643   0.38152   0.38403
 Alpha virt. eigenvalues --    0.38732   0.39153   0.39338   0.39606   0.39661
 Alpha virt. eigenvalues --    0.39799   0.40079   0.40183   0.40531   0.40725
 Alpha virt. eigenvalues --    0.41022   0.41287   0.41569   0.41603   0.41805
 Alpha virt. eigenvalues --    0.41992   0.42283   0.42304   0.42591   0.42793
 Alpha virt. eigenvalues --    0.43108   0.43406   0.43557   0.43685   0.43876
 Alpha virt. eigenvalues --    0.44118   0.44348   0.44629   0.44858   0.44990
 Alpha virt. eigenvalues --    0.45176   0.45443   0.45848   0.46084   0.46225
 Alpha virt. eigenvalues --    0.46300   0.46557   0.46686   0.47068   0.47248
 Alpha virt. eigenvalues --    0.47373   0.47554   0.47978   0.48099   0.48352
 Alpha virt. eigenvalues --    0.48494   0.48559   0.48932   0.49052   0.49251
 Alpha virt. eigenvalues --    0.49686   0.49703   0.49949   0.49986   0.50379
 Alpha virt. eigenvalues --    0.50561   0.50853   0.51061   0.51237   0.51510
 Alpha virt. eigenvalues --    0.51732   0.52007   0.52242   0.52392   0.52993
 Alpha virt. eigenvalues --    0.53202   0.53370   0.53600   0.53886   0.54064
 Alpha virt. eigenvalues --    0.54192   0.54483   0.54702   0.54907   0.55023
 Alpha virt. eigenvalues --    0.55493   0.56158   0.56221   0.56453   0.56664
 Alpha virt. eigenvalues --    0.57155   0.57293   0.57646   0.57840   0.58006
 Alpha virt. eigenvalues --    0.58243   0.58595   0.59185   0.59231   0.59496
 Alpha virt. eigenvalues --    0.59766   0.59967   0.60360   0.60604   0.61024
 Alpha virt. eigenvalues --    0.61479   0.62103   0.62279   0.62632   0.62916
 Alpha virt. eigenvalues --    0.63162   0.63401   0.63574   0.63722   0.64381
 Alpha virt. eigenvalues --    0.64572   0.64786   0.65030   0.65414   0.65887
 Alpha virt. eigenvalues --    0.65982   0.66421   0.66671   0.67035   0.67119
 Alpha virt. eigenvalues --    0.67336   0.67797   0.67971   0.68643   0.68728
 Alpha virt. eigenvalues --    0.69127   0.69449   0.69796   0.70029   0.70343
 Alpha virt. eigenvalues --    0.70567   0.71203   0.71282   0.71791   0.72223
 Alpha virt. eigenvalues --    0.72577   0.72920   0.73058   0.73214   0.73560
 Alpha virt. eigenvalues --    0.74139   0.74205   0.74589   0.74739   0.74926
 Alpha virt. eigenvalues --    0.75525   0.75780   0.76243   0.76549   0.76738
 Alpha virt. eigenvalues --    0.77231   0.77619   0.77794   0.78044   0.78570
 Alpha virt. eigenvalues --    0.79033   0.79513   0.80060   0.80113   0.80432
 Alpha virt. eigenvalues --    0.80687   0.81207   0.81643   0.81930   0.82318
 Alpha virt. eigenvalues --    0.82578   0.82595   0.83519   0.83584   0.83861
 Alpha virt. eigenvalues --    0.84351   0.84813   0.85141   0.85339   0.85905
 Alpha virt. eigenvalues --    0.86132   0.86393   0.86735   0.86855   0.87890
 Alpha virt. eigenvalues --    0.88026   0.88455   0.88618   0.88711   0.89255
 Alpha virt. eigenvalues --    0.90042   0.90190   0.90409   0.90885   0.91204
 Alpha virt. eigenvalues --    0.91416   0.91670   0.92017   0.92136   0.92638
 Alpha virt. eigenvalues --    0.93473   0.93732   0.94012   0.94120   0.94553
 Alpha virt. eigenvalues --    0.94787   0.95115   0.95401   0.96093   0.96422
 Alpha virt. eigenvalues --    0.96581   0.97278   0.97461   0.98059   0.98088
 Alpha virt. eigenvalues --    0.98311   0.98987   0.99113   0.99429   0.99488
 Alpha virt. eigenvalues --    0.99934   1.00746   1.00952   1.01182   1.01448
 Alpha virt. eigenvalues --    1.01762   1.01981   1.02246   1.02353   1.02659
 Alpha virt. eigenvalues --    1.03106   1.03330   1.03679   1.04086   1.04441
 Alpha virt. eigenvalues --    1.04804   1.05212   1.05852   1.06141   1.06546
 Alpha virt. eigenvalues --    1.06876   1.07076   1.07654   1.07910   1.08233
 Alpha virt. eigenvalues --    1.08797   1.09381   1.09891   1.10404   1.10547
 Alpha virt. eigenvalues --    1.10726   1.11397   1.12316   1.12457   1.12570
 Alpha virt. eigenvalues --    1.13333   1.13528   1.14183   1.14597   1.14714
 Alpha virt. eigenvalues --    1.14907   1.15729   1.16296   1.16597   1.17268
 Alpha virt. eigenvalues --    1.17366   1.17636   1.18205   1.18760   1.19302
 Alpha virt. eigenvalues --    1.19382   1.19774   1.19910   1.20723   1.20874
 Alpha virt. eigenvalues --    1.21133   1.22184   1.22352   1.22902   1.23490
 Alpha virt. eigenvalues --    1.23972   1.24315   1.24368   1.24913   1.25240
 Alpha virt. eigenvalues --    1.25576   1.25838   1.26421   1.26682   1.26933
 Alpha virt. eigenvalues --    1.27203   1.27376   1.28169   1.28631   1.29124
 Alpha virt. eigenvalues --    1.29524   1.29696   1.29963   1.30035   1.30999
 Alpha virt. eigenvalues --    1.31253   1.31925   1.32262   1.33058   1.33234
 Alpha virt. eigenvalues --    1.33632   1.34246   1.34802   1.35486   1.36091
 Alpha virt. eigenvalues --    1.36556   1.37278   1.37870   1.38084   1.38173
 Alpha virt. eigenvalues --    1.39520   1.39802   1.40106   1.40635   1.40790
 Alpha virt. eigenvalues --    1.41298   1.41564   1.42104   1.42526   1.42841
 Alpha virt. eigenvalues --    1.43368   1.44191   1.44532   1.45420   1.45517
 Alpha virt. eigenvalues --    1.45867   1.46270   1.46535   1.47523   1.47970
 Alpha virt. eigenvalues --    1.48102   1.48235   1.48852   1.49004   1.49245
 Alpha virt. eigenvalues --    1.49805   1.50211   1.50826   1.50881   1.51296
 Alpha virt. eigenvalues --    1.51592   1.51793   1.52025   1.52145   1.52556
 Alpha virt. eigenvalues --    1.52697   1.53019   1.53357   1.53949   1.54055
 Alpha virt. eigenvalues --    1.54323   1.54501   1.54557   1.55081   1.55275
 Alpha virt. eigenvalues --    1.55438   1.55898   1.55958   1.56126   1.56410
 Alpha virt. eigenvalues --    1.56560   1.56864   1.57057   1.57479   1.57599
 Alpha virt. eigenvalues --    1.57940   1.58206   1.58399   1.58727   1.59053
 Alpha virt. eigenvalues --    1.59775   1.60170   1.60323   1.60487   1.60885
 Alpha virt. eigenvalues --    1.61219   1.61611   1.61809   1.62203   1.62438
 Alpha virt. eigenvalues --    1.62848   1.63001   1.63346   1.64026   1.64242
 Alpha virt. eigenvalues --    1.64391   1.64659   1.65034   1.65377   1.65410
 Alpha virt. eigenvalues --    1.65931   1.66308   1.66650   1.66870   1.67204
 Alpha virt. eigenvalues --    1.67282   1.68121   1.68453   1.68615   1.68651
 Alpha virt. eigenvalues --    1.69508   1.70152   1.70166   1.70415   1.70910
 Alpha virt. eigenvalues --    1.70969   1.71626   1.72097   1.72329   1.72632
 Alpha virt. eigenvalues --    1.73302   1.73451   1.73645   1.74302   1.74954
 Alpha virt. eigenvalues --    1.75047   1.75288   1.75798   1.76614   1.76762
 Alpha virt. eigenvalues --    1.78097   1.78513   1.78817   1.79618   1.79847
 Alpha virt. eigenvalues --    1.80331   1.80810   1.81055   1.81458   1.82318
 Alpha virt. eigenvalues --    1.82639   1.83610   1.83923   1.84190   1.84796
 Alpha virt. eigenvalues --    1.85413   1.85512   1.86041   1.86138   1.87113
 Alpha virt. eigenvalues --    1.87321   1.87416   1.88178   1.88210   1.88505
 Alpha virt. eigenvalues --    1.89091   1.89406   1.89983   1.91009   1.91304
 Alpha virt. eigenvalues --    1.92025   1.92241   1.93025   1.93388   1.94079
 Alpha virt. eigenvalues --    1.94650   1.94890   1.95704   1.96226   1.96282
 Alpha virt. eigenvalues --    1.96646   1.97072   1.97458   1.97980   1.98306
 Alpha virt. eigenvalues --    1.98657   1.99019   1.99551   2.00149   2.00325
 Alpha virt. eigenvalues --    2.00507   2.01098   2.01462   2.01558   2.02631
 Alpha virt. eigenvalues --    2.03309   2.03869   2.04131   2.04985   2.05368
 Alpha virt. eigenvalues --    2.05621   2.06013   2.06309   2.06498   2.06933
 Alpha virt. eigenvalues --    2.07529   2.08038   2.08794   2.09219   2.09620
 Alpha virt. eigenvalues --    2.10452   2.10513   2.11100   2.11552   2.11872
 Alpha virt. eigenvalues --    2.12471   2.12915   2.13221   2.13530   2.14186
 Alpha virt. eigenvalues --    2.14639   2.14860   2.15252   2.15438   2.16045
 Alpha virt. eigenvalues --    2.16351   2.16808   2.17175   2.17746   2.18369
 Alpha virt. eigenvalues --    2.19175   2.19351   2.19527   2.20377   2.20687
 Alpha virt. eigenvalues --    2.21245   2.21527   2.22206   2.22474   2.22776
 Alpha virt. eigenvalues --    2.23331   2.24272   2.24732   2.25192   2.25911
 Alpha virt. eigenvalues --    2.26364   2.26745   2.27189   2.27294   2.28053
 Alpha virt. eigenvalues --    2.28258   2.28483   2.28734   2.29056   2.29281
 Alpha virt. eigenvalues --    2.29741   2.30035   2.31083   2.31339   2.32099
 Alpha virt. eigenvalues --    2.32381   2.32651   2.33194   2.34005   2.34378
 Alpha virt. eigenvalues --    2.34541   2.34841   2.35022   2.35403   2.36022
 Alpha virt. eigenvalues --    2.36591   2.36792   2.37470   2.37949   2.38486
 Alpha virt. eigenvalues --    2.38770   2.39207   2.39578   2.39787   2.40469
 Alpha virt. eigenvalues --    2.40638   2.41297   2.41822   2.41952   2.42317
 Alpha virt. eigenvalues --    2.42911   2.43138   2.43570   2.44190   2.44340
 Alpha virt. eigenvalues --    2.45154   2.45565   2.46036   2.46172   2.46808
 Alpha virt. eigenvalues --    2.47257   2.47646   2.47909   2.48703   2.49246
 Alpha virt. eigenvalues --    2.49422   2.49864   2.49991   2.50777   2.51284
 Alpha virt. eigenvalues --    2.51817   2.52270   2.52574   2.52945   2.53185
 Alpha virt. eigenvalues --    2.53462   2.54042   2.54767   2.55083   2.55228
 Alpha virt. eigenvalues --    2.55900   2.56014   2.56213   2.56819   2.57221
 Alpha virt. eigenvalues --    2.57505   2.57560   2.58346   2.58448   2.59010
 Alpha virt. eigenvalues --    2.59195   2.59642   2.60320   2.60387   2.60760
 Alpha virt. eigenvalues --    2.61259   2.61876   2.62568   2.62641   2.63013
 Alpha virt. eigenvalues --    2.63674   2.63968   2.64324   2.65142   2.65842
 Alpha virt. eigenvalues --    2.65988   2.66311   2.66753   2.67011   2.67612
 Alpha virt. eigenvalues --    2.68003   2.68345   2.68758   2.69111   2.69732
 Alpha virt. eigenvalues --    2.70172   2.70418   2.71264   2.71576   2.71855
 Alpha virt. eigenvalues --    2.72269   2.72622   2.73198   2.73717   2.73923
 Alpha virt. eigenvalues --    2.74477   2.74647   2.75292   2.75524   2.76551
 Alpha virt. eigenvalues --    2.76884   2.77411   2.77809   2.78655   2.79553
 Alpha virt. eigenvalues --    2.79652   2.79762   2.80117   2.80764   2.80942
 Alpha virt. eigenvalues --    2.81633   2.81983   2.82565   2.82654   2.83011
 Alpha virt. eigenvalues --    2.83276   2.83644   2.83714   2.84707   2.85092
 Alpha virt. eigenvalues --    2.85547   2.85832   2.86349   2.86819   2.87436
 Alpha virt. eigenvalues --    2.87673   2.87960   2.88366   2.88628   2.88890
 Alpha virt. eigenvalues --    2.89432   2.89709   2.89937   2.90326   2.90744
 Alpha virt. eigenvalues --    2.90989   2.91405   2.91759   2.91900   2.92091
 Alpha virt. eigenvalues --    2.92408   2.93273   2.93404   2.93496   2.94092
 Alpha virt. eigenvalues --    2.94605   2.94816   2.95418   2.95590   2.95963
 Alpha virt. eigenvalues --    2.96326   2.96719   2.96943   2.97427   2.97727
 Alpha virt. eigenvalues --    2.98432   2.98765   2.98998   2.99359   2.99663
 Alpha virt. eigenvalues --    3.00266   3.00390   3.01035   3.01632   3.01866
 Alpha virt. eigenvalues --    3.02087   3.02210   3.02878   3.03357   3.03429
 Alpha virt. eigenvalues --    3.03845   3.04482   3.04674   3.05234   3.05589
 Alpha virt. eigenvalues --    3.05871   3.06173   3.06866   3.06896   3.07364
 Alpha virt. eigenvalues --    3.07446   3.07607   3.07831   3.08146   3.08587
 Alpha virt. eigenvalues --    3.08881   3.09431   3.09615   3.09781   3.10286
 Alpha virt. eigenvalues --    3.10492   3.10943   3.11410   3.11655   3.11863
 Alpha virt. eigenvalues --    3.12305   3.12435   3.12658   3.13090   3.13423
 Alpha virt. eigenvalues --    3.14002   3.14361   3.14732   3.14998   3.15374
 Alpha virt. eigenvalues --    3.15444   3.15886   3.16061   3.16489   3.16772
 Alpha virt. eigenvalues --    3.16939   3.17162   3.17513   3.17861   3.18510
 Alpha virt. eigenvalues --    3.18556   3.19205   3.19268   3.19671   3.20328
 Alpha virt. eigenvalues --    3.20519   3.20853   3.21188   3.21717   3.21985
 Alpha virt. eigenvalues --    3.22423   3.22770   3.22953   3.23481   3.23692
 Alpha virt. eigenvalues --    3.23947   3.24106   3.24256   3.24714   3.25019
 Alpha virt. eigenvalues --    3.25468   3.25640   3.25939   3.26078   3.26334
 Alpha virt. eigenvalues --    3.26686   3.26738   3.27386   3.27527   3.27761
 Alpha virt. eigenvalues --    3.28219   3.28673   3.28894   3.29261   3.29491
 Alpha virt. eigenvalues --    3.29616   3.29854   3.30222   3.30478   3.30815
 Alpha virt. eigenvalues --    3.31170   3.31315   3.31473   3.31783   3.32160
 Alpha virt. eigenvalues --    3.32369   3.32608   3.32912   3.33128   3.33463
 Alpha virt. eigenvalues --    3.33525   3.34033   3.34525   3.34789   3.34881
 Alpha virt. eigenvalues --    3.35053   3.35313   3.35861   3.36054   3.36322
 Alpha virt. eigenvalues --    3.36423   3.36575   3.36937   3.37244   3.37612
 Alpha virt. eigenvalues --    3.37920   3.38013   3.38453   3.38798   3.39436
 Alpha virt. eigenvalues --    3.39576   3.39892   3.39941   3.40010   3.40346
 Alpha virt. eigenvalues --    3.41009   3.41385   3.41893   3.42298   3.42499
 Alpha virt. eigenvalues --    3.43309   3.43631   3.44075   3.44659   3.44865
 Alpha virt. eigenvalues --    3.45069   3.45529   3.45824   3.46385   3.46718
 Alpha virt. eigenvalues --    3.47109   3.47789   3.48145   3.48791   3.49066
 Alpha virt. eigenvalues --    3.49213   3.49415   3.49845   3.50433   3.50842
 Alpha virt. eigenvalues --    3.51207   3.51372   3.52212   3.52403   3.52789
 Alpha virt. eigenvalues --    3.53465   3.53785   3.54240   3.54491   3.55601
 Alpha virt. eigenvalues --    3.56570   3.56898   3.57014   3.57695   3.58046
 Alpha virt. eigenvalues --    3.58605   3.59051   3.59773   3.60366   3.60514
 Alpha virt. eigenvalues --    3.61027   3.61373   3.61883   3.62191   3.63046
 Alpha virt. eigenvalues --    3.63219   3.63783   3.64643   3.64943   3.65077
 Alpha virt. eigenvalues --    3.65813   3.66057   3.66639   3.67142   3.67500
 Alpha virt. eigenvalues --    3.68245   3.68387   3.69174   3.69451   3.69793
 Alpha virt. eigenvalues --    3.70331   3.70431   3.70606   3.70993   3.71554
 Alpha virt. eigenvalues --    3.71669   3.71712   3.72642   3.73351   3.73738
 Alpha virt. eigenvalues --    3.74002   3.74361   3.75147   3.75430   3.75607
 Alpha virt. eigenvalues --    3.76071   3.77192   3.77965   3.77994   3.78545
 Alpha virt. eigenvalues --    3.78938   3.79474   3.79867   3.80523   3.80978
 Alpha virt. eigenvalues --    3.82033   3.82199   3.82823   3.83206   3.84108
 Alpha virt. eigenvalues --    3.84839   3.85584   3.85830   3.86529   3.87006
 Alpha virt. eigenvalues --    3.87722   3.88234   3.88330   3.88758   3.89513
 Alpha virt. eigenvalues --    3.90425   3.91019   3.91584   3.92057   3.92292
 Alpha virt. eigenvalues --    3.92691   3.93410   3.94547   3.95742   3.95884
 Alpha virt. eigenvalues --    3.96055   3.97513   3.98078   3.98638   3.99014
 Alpha virt. eigenvalues --    3.99587   3.99857   4.00348   4.00713   4.01079
 Alpha virt. eigenvalues --    4.01476   4.02845   4.03252   4.03347   4.04057
 Alpha virt. eigenvalues --    4.04378   4.04564   4.04691   4.05534   4.06512
 Alpha virt. eigenvalues --    4.07661   4.08658   4.10054   4.10246   4.10487
 Alpha virt. eigenvalues --    4.11090   4.12035   4.12771   4.13339   4.14197
 Alpha virt. eigenvalues --    4.14443   4.15207   4.15367   4.16337   4.16617
 Alpha virt. eigenvalues --    4.17296   4.17683   4.18434   4.18802   4.19165
 Alpha virt. eigenvalues --    4.19553   4.20110   4.21039   4.22270   4.22722
 Alpha virt. eigenvalues --    4.23038   4.23458   4.23526   4.23950   4.24533
 Alpha virt. eigenvalues --    4.24958   4.25757   4.26828   4.26864   4.27197
 Alpha virt. eigenvalues --    4.27900   4.28847   4.29017   4.29348   4.30433
 Alpha virt. eigenvalues --    4.30731   4.31922   4.32330   4.33151   4.33994
 Alpha virt. eigenvalues --    4.34466   4.35036   4.35691   4.36870   4.37024
 Alpha virt. eigenvalues --    4.37792   4.38301   4.39312   4.39603   4.39948
 Alpha virt. eigenvalues --    4.40474   4.41194   4.41429   4.41551   4.42258
 Alpha virt. eigenvalues --    4.42613   4.42811   4.43222   4.44002   4.44105
 Alpha virt. eigenvalues --    4.44727   4.44892   4.45116   4.45679   4.46366
 Alpha virt. eigenvalues --    4.47042   4.48288   4.49634   4.50432   4.51870
 Alpha virt. eigenvalues --    4.52813   4.53880   4.54380   4.55330   4.55922
 Alpha virt. eigenvalues --    4.56660   4.57601   4.57751   4.58557   4.59521
 Alpha virt. eigenvalues --    4.60757   4.61968   4.62447   4.63355   4.64717
 Alpha virt. eigenvalues --    4.65480   4.66149   4.67058   4.67562   4.68308
 Alpha virt. eigenvalues --    4.68795   4.69467   4.70689   4.71136   4.71395
 Alpha virt. eigenvalues --    4.72573   4.72741   4.73684   4.74257   4.74425
 Alpha virt. eigenvalues --    4.75266   4.75865   4.76288   4.77426   4.78908
 Alpha virt. eigenvalues --    4.79154   4.79978   4.80481   4.80685   4.81411
 Alpha virt. eigenvalues --    4.82860   4.83422   4.84079   4.84618   4.84771
 Alpha virt. eigenvalues --    4.86099   4.86358   4.86969   4.88143   4.88704
 Alpha virt. eigenvalues --    4.89709   4.90963   4.91772   4.92091   4.92805
 Alpha virt. eigenvalues --    4.93490   4.94071   4.94722   4.94989   4.95640
 Alpha virt. eigenvalues --    4.96450   4.97229   4.97979   5.00192   5.00671
 Alpha virt. eigenvalues --    5.01239   5.01739   5.02221   5.02947   5.03648
 Alpha virt. eigenvalues --    5.04208   5.05837   5.06344   5.06662   5.06760
 Alpha virt. eigenvalues --    5.07819   5.08252   5.08856   5.09705   5.10667
 Alpha virt. eigenvalues --    5.11179   5.12908   5.14020   5.15912   5.17483
 Alpha virt. eigenvalues --    5.18275   5.18542   5.19408   5.19554   5.20792
 Alpha virt. eigenvalues --    5.21127   5.22230   5.24146   5.25459   5.26163
 Alpha virt. eigenvalues --    5.27567   5.28099   5.28621   5.29963   5.31130
 Alpha virt. eigenvalues --    5.33781   5.34215   5.35634   5.37082   5.37371
 Alpha virt. eigenvalues --    5.38423   5.38631   5.39880   5.40126   5.40504
 Alpha virt. eigenvalues --    5.41722   5.41870   5.43021   5.46148   5.47371
 Alpha virt. eigenvalues --    5.48192   5.49113   5.50522   5.50818   5.51397
 Alpha virt. eigenvalues --    5.52242   5.53490   5.58548   5.60480   5.60529
 Alpha virt. eigenvalues --    5.61658   5.62574   5.62855   5.64450   5.64951
 Alpha virt. eigenvalues --    5.66435   5.67091   5.68613   5.69119   5.71908
 Alpha virt. eigenvalues --    5.75523   5.76625   5.77584   5.80151   5.80947
 Alpha virt. eigenvalues --    5.82343   5.87859   5.88612   5.90608   5.91403
 Alpha virt. eigenvalues --    5.95055   6.00462   6.00982   6.02002   6.07582
 Alpha virt. eigenvalues --    6.11469   6.12240   6.13633   6.14331   6.16126
 Alpha virt. eigenvalues --    6.19104   6.24490   6.33002   6.34340   6.35164
 Alpha virt. eigenvalues --    6.37492   6.41669   6.44299   6.46767   6.51577
 Alpha virt. eigenvalues --    6.53719   6.60287   6.66879   6.93247   7.16151
 Alpha virt. eigenvalues --    7.32811   7.48894   8.66862  22.32942  22.34638
 Alpha virt. eigenvalues --   22.43530  22.44894  22.45496  22.53653  22.54589
 Alpha virt. eigenvalues --   22.59334  22.61363  22.75042  22.85056  22.87173
 Alpha virt. eigenvalues --   22.89289  22.92460  22.94221  22.94834  22.96166
 Alpha virt. eigenvalues --   23.01864  23.03054  23.04742  23.13208  23.25637
 Alpha virt. eigenvalues --   23.27537  23.29305  23.30956  23.39584  23.41526
 Alpha virt. eigenvalues --   23.50267  23.52428  23.56299  23.72229  23.77124
 Alpha virt. eigenvalues --   23.78471  23.87899  32.39478  32.67904  32.91905
 Alpha virt. eigenvalues --   32.95506  33.01868  33.12601  43.87217  44.22551
          Condensed to atoms (all electrons):
 Mulliken charges:
               1
     1  Fe  -0.226112
     2  N    0.053223
     3  N    0.002546
     4  N   -0.006306
     5  N    0.005878
     6  C    0.238465
     7  C   -0.075942
     8  C   -0.008980
     9  C    0.178129
    10  C    0.297785
    11  C   -0.059195
    12  C   -0.035570
    13  C    0.233947
    14  C    0.272543
    15  C    0.055147
    16  C   -0.052651
    17  C    0.251699
    18  C    0.232143
    19  C    0.096515
    20  C   -0.078927
    21  C    0.206458
    22  C   -0.443808
    23  H    0.138635
    24  C   -0.430451
    25  H    0.121607
    26  C   -0.484225
    27  H    0.119348
    28  C   -0.459397
    29  H    0.171170
    30  C   -0.407880
    31  H    0.139935
    32  H    0.132849
    33  H    0.119280
    34  C   -0.411896
    35  H    0.133006
    36  H    0.142957
    37  H    0.119991
    38  C   -0.395820
    39  H    0.135096
    40  H    0.140754
    41  H    0.125210
    42  C   -0.250293
    43  H    0.118966
    44  C   -0.300589
    45  H    0.142996
    46  H    0.124543
    47  C   -0.446217
    48  H    0.127857
    49  H    0.149044
    50  H    0.157859
    51  C   -0.214454
    52  H    0.112289
    53  C   -0.276367
    54  H    0.142054
    55  H    0.122929
    56  C   -0.412192
    57  H    0.131559
    58  H    0.148081
    59  H    0.125737
    60  C   -0.423008
    61  H    0.129034
    62  H    0.145877
    63  H    0.127881
    64  O    0.042382
    65  O   -0.222546
    66  C   -0.388063
    67  H    0.145948
    68  H    0.136228
    69  H    0.135431
    70  N   -0.227388
    71  H    0.235649
    72  C    0.160217
    73  C    0.033440
    74  H    0.164555
    75  N   -0.148277
    76  C   -0.183927
    77  H    0.145610
 Sum of Mulliken charges =  -0.00000
 Mulliken charges with hydrogens summed into heavy atoms:
               1
     1  Fe  -0.226112
     2  N    0.053223
     3  N    0.002546
     4  N   -0.006306
     5  N    0.005878
     6  C    0.238465
     7  C   -0.075942
     8  C   -0.008980
     9  C    0.178129
    10  C    0.297785
    11  C   -0.059195
    12  C   -0.035570
    13  C    0.233947
    14  C    0.272543
    15  C    0.055147
    16  C   -0.052651
    17  C    0.251699
    18  C    0.232143
    19  C    0.096515
    20  C   -0.078927
    21  C    0.206458
    22  C   -0.305173
    24  C   -0.308844
    26  C   -0.364877
    28  C   -0.288227
    30  C   -0.015816
    34  C   -0.015941
    38  C    0.005240
    42  C   -0.131327
    44  C   -0.033049
    47  C   -0.011458
    51  C   -0.102165
    53  C   -0.011384
    56  C   -0.006815
    60  C   -0.020216
    64  O    0.042382
    65  O   -0.222546
    66  C    0.029544
    70  N    0.008261
    72  C    0.160217
    73  C    0.197995
    75  N   -0.148277
    76  C   -0.038316
 Electronic spatial extent (au):  <R**2>=          20230.7320
 Charge=             -0.0000 electrons
 Dipole moment (field-independent basis, Debye):
    X=             -2.2683    Y=              0.9481    Z=              7.4592  Tot=              7.8539
 Quadrupole moment (field-independent basis, Debye-Ang):
   XX=           -238.1533   YY=           -230.4342   ZZ=           -241.9788
   XY=             -1.0756   XZ=             -3.6639   YZ=              0.7124
 Traceless Quadrupole moment (field-independent basis, Debye-Ang):
   XX=             -1.2979   YY=              6.4212   ZZ=             -5.1234
   XY=             -1.0756   XZ=             -3.6639   YZ=              0.7124
 Octapole moment (field-independent basis, Debye-Ang**2):
  XXX=            -33.6393  YYY=            -20.1365  ZZZ=            166.9182  XYY=            -17.0597
  XXY=              6.7229  XXZ=            -23.8279  XZZ=            -36.3175  YZZ=             24.9025
  YYZ=            -15.0766  XYZ=             -6.7818
 Hexadecapole moment (field-independent basis, Debye-Ang**3):
 XXXX=         -11694.0726 YYYY=         -11207.6327 ZZZZ=          -3314.9942 XXXY=             15.2480
 XXXZ=            -37.9815 YYYX=              0.5044 YYYZ=            -70.5449 ZZZX=           -135.0847
 ZZZY=             70.7366 XXYY=          -3798.4432 XXZZ=          -2722.4110 YYZZ=          -2585.6272
 XXYZ=             53.3595 YYXZ=             -2.8080 ZZXY=            -20.7349
 N-N= 6.190161967079D+03 E-N=-1.956682670461D+04  KE= 3.047192444308D+03
  Exact polarizability:     706.999      -4.200     688.785      10.167       6.181     334.974
 Approx polarizability:    1330.602     -17.030    1333.843      23.752      23.897     639.029

 ----------------------------------------------------------------------

 Electric dipole moment (input orientation):
 (Debye = 10**-18 statcoulomb cm , SI units = C m)
                  (au)            (Debye)         (10**-30 SI)
   Tot        0.308997D+01      0.785393D+01      0.261979D+02
   x          0.984171D+00      0.250151D+01      0.834415D+01
   y          0.823155D-01      0.209225D+00      0.697900D+00
   z          0.292789D+01      0.744197D+01      0.248237D+02

 Dipole polarizability, Alpha (input orientation).
 (esu units = cm**3 , SI units = C**2 m**2 J**-1)
 Alpha(0;0):
               (au)            (10**-24 esu)      (10**-40 SI)
   iso        0.576920D+03      0.854907D+02      0.951212D+02
   aniso      0.363917D+03      0.539270D+02      0.600018D+02
   xx         0.579993D+03      0.859461D+02      0.956279D+02
   yx        -0.126653D+02     -0.187680D+01     -0.208823D+01
   yy         0.689365D+03      0.102153D+03      0.113661D+03
   zx        -0.173063D+03     -0.256453D+02     -0.285343D+02
   zy        -0.321702D+02     -0.476713D+01     -0.530415D+01
   zz         0.461401D+03      0.683725D+02      0.760747D+02

 First dipole hyperpolarizability, Beta (input orientation).
 ||, _|_  parallel and perpendicular components, (z) with respect to z axis,
 vector components x,y,z.  Values do not include the 1/n! factor of 1/2.
 (esu units = statvolt**-1 cm**4 , SI units = C**3 m**3 J**-2)
 Beta(0;0,0):
               (au)            (10**-30 esu)      (10**-50 SI)
   || (z)    -0.413730D+03     -0.357430D+01     -0.132657D+01
   _|_(z)    -0.137910D+03     -0.119143D+01     -0.442189D+00
   x          0.305991D+03      0.264353D+01      0.981119D+00
   y          0.256829D+04      0.221880D+02      0.823486D+01
   z         -0.206865D+04     -0.178715D+02     -0.663284D+01
   ||         0.662391D+03      0.572254D+01      0.212387D+01
   xxx        0.176284D+03      0.152295D+01      0.565230D+00
   xxy        0.819929D+02      0.708355D+00      0.262899D+00
   yxy       -0.343636D+03     -0.296875D+01     -0.110182D+01
   yyy        0.768257D+03      0.663714D+01      0.246331D+01
   xxz       -0.354043D+03     -0.305866D+01     -0.113519D+01
   yxz       -0.172608D+02     -0.149120D+00     -0.553444D-01
   yyz        0.109396D+03      0.945100D+00      0.350764D+00
   zxz        0.269350D+03      0.232697D+01      0.863632D+00
   zyz        0.584588D+01      0.505038D-01      0.187440D-01
   zzz       -0.444903D+03     -0.384362D+01     -0.142652D+01

 ----------------------------------------------------------------------

 Dipole orientation:
    26         34.06105551        -39.70655952         16.33878056
     7         30.73698003        -41.08399833         17.45409510
     7         35.49781273        -43.18845915         16.19972735
     7         37.47100629        -38.14649345         15.57694374
     7         32.59966863        -36.12768684         16.42355324
     6         28.51970240        -39.80918070         17.67318742
     6         26.52323111        -41.50116569         18.45007328
     6         27.59249621        -43.82863162         18.68925451
     6         30.22790542        -43.54158683         18.01198833
     6         34.32013662        -45.38829776         16.78546948
     6         36.01407130        -47.49942098         16.35162823
     6         38.20909699        -46.50038652         15.45723501
     6         37.88123374        -43.78845134         15.45380488
     6         39.56577414        -39.47788088         14.94607299
     6         41.59761989        -37.79043322         14.23086573
     6         40.64519165        -35.39409642         14.44575596
     6         38.06625187        -35.66107512         15.27870680
     6         33.85074776        -33.91047940         16.08841092
     6         32.10919814        -31.80561201         16.30348844
     6         29.77024208        -32.84599692         16.67497147
     6         30.13260412        -35.54160420         16.78328354
     6         28.20526898        -37.25453728         17.25553174
     1         26.31443695        -36.50607801         17.37867730
     6         31.87973071        -45.55280360         17.71817243
     1         31.15020947        -47.41413083         18.13847444
     6         39.77014601        -42.08677772         14.86662978
     1         41.56750816        -42.85612849         14.28027174
     6         36.39774307        -33.66442916         15.56130060
     1         37.11533579        -31.77917970         15.27825856
     6         23.88888202        -40.68555305         19.02409055
     1         22.96991519        -39.91544002         17.35030808
     1         23.90138980        -39.22647037         20.48236555
     1         22.77741590        -42.27319817         19.70721271
     6         26.40863162        -46.24747438         19.51888240
     1         27.49676594        -47.07255848         21.06133775
     1         26.34155726        -47.60719941         17.97099964
     1         24.48821347        -45.91681648         20.17489238
     6         27.29219715        -31.54176030         16.95660529
     1         26.50903412        -31.88624585         18.82926903
     1         25.94351663        -32.23382970         15.56098798
     1         27.51158910        -29.51604451         16.70909869
     6         32.68172383        -29.13421322         16.06386158
     1         31.31514079        -28.03231089         15.00525315
     6         34.65380725        -27.97502351         17.08993450
     1         36.00882452        -28.96494107         18.24242340
     1         34.94537747        -25.97385831         16.86127746
     6         41.93595088        -32.94925845         13.93532456
     1         41.43605631        -31.52055456         15.33087252
     1         41.37459978        -32.25113117         12.07931014
     1         43.97672015        -33.19882543         13.94791455
     6         44.08337679        -38.59463157         13.41141019
     1         44.89297456        -40.19550944         14.40034654
     6         45.36315362        -37.52134315         11.54102468
     1         44.57713063        -35.98750172         10.46526045
     1         47.19842738        -38.19080926         10.97536146
     6         40.51376997        -47.83558275         14.54306521
     1         42.14689570        -47.28915410         15.67085289
     1         40.91285697        -47.36498927         12.57521213
     1         40.26938666        -49.87187282         14.66524562
     6         35.36005503        -50.22089707         16.65539173
     1         37.03638730        -51.31636796         17.12660757
     1         34.60000325        -50.96330974         14.89056804
     1         33.94573843        -50.49100904         18.12144539
     8         33.08321965        -39.80238448         13.30232094
     8         34.45824566        -40.81869544         11.59664609
     6         38.38162844        -41.09556885         26.49485190
     1         39.85690317        -42.34185277         25.80327947
     1         37.24510471        -42.12105456         27.87298817
     1         39.26174829        -39.49772319         27.45057467
     7         34.82363264        -38.58005921         24.64017495
     1         34.26958669        -37.80004909         26.28553060
     6         36.80197870        -40.22887830         24.34579837
     6         33.79323242        -38.19157247         22.33796314
     1         32.20006797        -36.99136374         21.99656300
     7         34.99123972        -39.48290183         20.60762715
     6         36.86549398        -40.76315624         21.82057924
     1         38.11764734        -41.97879056         20.79817555

 Electric dipole moment (dipole orientation):
 (Debye = 10**-18 statcoulomb cm , SI units = C m)
                  (au)            (Debye)         (10**-30 SI)
   Tot        0.308997D+01      0.785393D+01      0.261979D+02
   x          0.000000D+00      0.000000D+00      0.000000D+00
   y          0.000000D+00      0.000000D+00      0.000000D+00
   z          0.308997D+01      0.785393D+01      0.261979D+02

 Dipole polarizability, Alpha (dipole orientation).
 (esu units = cm**3 , SI units = C**2 m**2 J**-1)
 Alpha(0;0):
               (au)            (10**-24 esu)      (10**-40 SI)
   iso        0.576920D+03      0.854907D+02      0.951212D+02
   aniso      0.363917D+03      0.539270D+02      0.600018D+02
   xx         0.672480D+03      0.996513D+02      0.110877D+03
   yx         0.884915D+00      0.131131D+00      0.145903D+00
   yy         0.690985D+03      0.102393D+03      0.113928D+03
   zx        -0.102005D+03     -0.151157D+02     -0.168184D+02
   zy        -0.263909D+02     -0.391073D+01     -0.435127D+01
   zz         0.367294D+03      0.544273D+02      0.605585D+02

 First dipole hyperpolarizability, Beta (dipole orientation).
 ||, _|_  parallel and perpendicular components, (z) with respect to z axis,
 vector components x,y,z.  Values do not include the 1/n! factor of 1/2.
 (esu units = statvolt**-1 cm**4 , SI units = C**3 m**3 J**-2)
 Beta(0;0,0):
               (au)            (10**-30 esu)      (10**-50 SI)
   || (z)    -0.358853D+03     -0.310021D+01     -0.115061D+01
   _|_(z)    -0.119618D+03     -0.103340D+01     -0.383537D+00
   x          0.937738D+03      0.810133D+01      0.300673D+01
   y          0.262113D+04      0.226445D+02      0.840428D+01
   z         -0.179427D+04     -0.155011D+02     -0.575306D+01
   ||         0.662391D+03      0.572254D+01      0.212387D+01
   xxx        0.545066D+03      0.470894D+01      0.174768D+01
   xxy        0.100082D+03      0.864627D+00      0.320898D+00
   yxy       -0.363215D+03     -0.313789D+01     -0.116460D+01
   yyy        0.763181D+03      0.659329D+01      0.244703D+01
   xxz       -0.368807D+03     -0.318620D+01     -0.118253D+01
   yxz       -0.552286D+01     -0.477132D-01     -0.177083D-01
   yyz        0.142906D+02      0.123460D+00      0.458208D-01
   zxz        0.130728D+03      0.112939D+01      0.419162D+00
   zyz        0.104466D+02      0.902501D-01      0.334954D-01
   zzz       -0.243572D+03     -0.210427D+01     -0.780981D+00

 ----------------------------------------------------------------------
 Unable to Open any file for archive entry.
 1\1\GINC-BGN1042\SP\RAPFD\def2TZVP\C34H34Fe1N6O2\BEBJONES\10-Jul-2024\
 0\\# polar def2tzvp apfd int=(grid=ultrafine)\\1ash_II_S\\0,1\Fe,0,19.
 9308380269,-20.8523476691,3.0115035997\N,0,18.4545952433,-21.557605174
 3,4.1504204444\N,0,20.63612474,-22.6994908115,2.7487050777\N,0,21.5093
 13006,-20.0456981924,2.0327792381\N,0,19.2038244551,-18.9546157109,3.2
 498689524\C,0,17.3763678651,-20.8750461802,4.6160186679\C,0,16.5097532
 05,-21.754525267,5.3659130557\C,0,17.0917892823,-22.9848117922,5.33843
 39547\C,0,18.2989329939,-22.8485928292,4.5506062997\C,0,20.1491828409,
 -23.8521987849,3.2719111687\C,0,20.9306276748,-24.9789711613,2.7986299
 936\C,0,21.8786320441,-24.4681663453,1.9661181473\C,0,21.707341201,-23
 .0328874631,1.9814278262\C,0,22.456814918,-20.7637041388,1.3821529186\
 C,0,23.3515799819,-19.8858372988,0.6572871858\C,0,22.9045236929,-18.61
 29874613,0.891783693\C,0,21.7518994615,-18.7365272703,1.747874246\C,0,
 19.7697836851,-17.7893564106,2.8397020822\C,0,18.9275973608,-16.668867
 4212,3.21140417\C,0,17.819356842,-17.2085856332,3.806560011\C,0,18.025
 5924587,-18.6338283209,3.8377954614\C,0,17.1423603983,-19.528842497,4.
 4235810951\H,0,16.2129244904,-19.1268240289,4.7934688466\C,0,19.082625
 5226,-23.9204452295,4.1532256278\H,0,18.7918193419,-24.8974513796,4.51
 31702255\C,0,22.5519554053,-22.1453609113,1.3446502457\H,0,23.35648140
 89,-22.5647450954,0.7585468287\C,0,20.9579804313,-17.6725023406,2.1426
 452678\H,0,21.2658824992,-16.6808792398,1.8531988567\C,0,15.2831970063
 ,-21.3089136171,6.086246745\H,0,14.53834739,-20.9230125852,5.391009757
 7\H,0,15.5318928435,-20.5165531491,6.7947784348\H,0,14.844468481,-22.1
 365606706,6.6384916438\C,0,16.6433538975,-24.2499172083,5.9880596456\H
 ,0,17.4510522768,-24.6671384046,6.5897090796\H,0,16.3519547105,-24.990
 8564357,5.2423931156\H,0,15.7898522986,-24.0613291173,6.6360127496\C,0
 ,16.6207984519,-16.5089816207,4.3470542231\H,0,16.5443768119,-16.66300
 45472,5.4229004548\H,0,15.7106533052,-16.8916402738,3.8843335894\H,0,1
 6.6844620145,-15.4414045046,4.1574153127\C,0,19.1682369193,-15.2604371
 329,2.9570950227\H,0,18.3017770374,-14.6893206572,2.6410851599\C,0,20.
 3277271352,-14.6373258304,3.1228618992\H,0,21.2039504284,-15.147854013
 5,3.4863160336\H,0,20.4308298703,-13.5826362743,2.9308553113\C,0,23.46
 03180092,-17.3298777001,0.3838265186\H,0,23.4414838279,-16.5532900833,
 1.147696933\H,0,22.8643047001,-16.9854494029,-0.4620449737\H,0,24.4866
 918281,-17.4664221477,0.0496951738\C,0,24.4622065802,-20.3285283495,-0
 .1612305792\H,0,25.0386828408,-21.1632931618,0.2207556993\C,0,24.78643
 99461,-19.7900928849,-1.3299104178\H,0,24.2073092083,-18.9920676665,-1
 .7584623601\H,0,25.6132406481,-20.1564353084,-1.9134349411\C,0,22.8836
 851237,-25.1926646925,1.1381150998\H,0,23.8917059965,-24.8914790981,1.
 4206516987\H,0,22.7511147558,-24.9723890586,0.0774955246\H,0,22.786386
 7882,-26.2675445441,1.2692741664\C,0,20.6600367733,-26.4127995507,3.09
 95393558\H,0,21.5828537284,-26.9895085,3.0687212171\H,0,19.9830434859,
 -26.8286507751,2.3531901766\H,0,20.1983165311,-26.5317569187,4.0768326
 93\O,0,18.9287822887,-20.9435883007,1.6551220144\O,0,19.333372581,-21.
 508415939,0.5824347715\C,0,23.8130556201,-21.4539023014,7.3953310249\H
 ,0,24.4393845177,-22.1263173258,6.8174806982\H,0,23.4776033052,-21.974
 3203963,8.2923686097\H,0,24.4119341801,-20.5972231139,7.7036846586\N,0
 ,21.709921809,-20.1411796444,7.0295812954\H,0,21.7075240685,-19.704094
 5093,7.9369819597\C,0,22.6564714157,-21.0220900105,6.5717771636\C,0,20
 .8041366654,-19.9657550467,6.0433985216\H,0,19.9446761518,-19.33200313
 69,6.1238148289\N,0,21.116409587,-20.6760026649,4.9920583241\C,0,22.26
 39490714,-21.3404592288,5.3024077791\H,0,22.7225266113,-22.0008104374,
 4.5958459988\\Version=ES64L-G16RevC.02\State=1-A\HF=-3057.8752974\RMSD
 =5.104e-09\Dipole=0.9841713,0.0823155,2.9278949\Polar=579.9930319,-12.
 6652968,689.3651766,-173.0632228,-32.1701746,461.4006192\HyperPolar=17
 6.2837933,81.9928747,-343.6363095,768.2572419,-354.0430513,-17.2608105
 ,109.396427,269.3496291,5.8458793,-444.9033392\Quadrupole=-1.6714629,1
 .1983353,0.4731275,-3.787712,-3.2845303,0.3071467\PG=C01 [X(C34H34Fe1N
 6O2)]\\@
 The archive entry for this job was punched.


 IF YOU DON'T HAVE THE LAW - ARGUE THE FACTS.
 IF YOU DON'T HAVE THE FACTS - ARGUE THE LAW.
 IF YOU DON'T HAVE EITHER - POUND THE TABLE.
 Job cpu time:       2 days  9 hours  7 minutes 53.5 seconds.
 Elapsed time:       0 days  0 hours 49 minutes 29.1 seconds.
 File lengths (MBytes):  RWF=   1238 Int=      0 D2E=      0 Chk=    158 Scr=      1
 Normal termination of Gaussian 16 at Wed Jul 10 10:14:01 2024.
 Initial command:
 /sw/chem/gaussian/g16_C02/a100/g16/l1.exe "/local/bebjones_7927464/Gau-1098303.inp" -scrdir="/local/bebjones_7927464/"
 Entering Link 1 = /sw/chem/gaussian/g16_C02/a100/g16/l1.exe PID=   1100108.
  
 Copyright (c) 1988-2021, Gaussian, Inc.  All Rights Reserved.
  
 This is part of the Gaussian(R) 16 program.  It is based on
 the Gaussian(R) 09 system (copyright 2009, Gaussian, Inc.),
 the Gaussian(R) 03 system (copyright 2003, Gaussian, Inc.),
 the Gaussian(R) 98 system (copyright 1998, Gaussian, Inc.),
 the Gaussian(R) 94 system (copyright 1995, Gaussian, Inc.),
 the Gaussian 92(TM) system (copyright 1992, Gaussian, Inc.),
 the Gaussian 90(TM) system (copyright 1990, Gaussian, Inc.),
 the Gaussian 88(TM) system (copyright 1988, Gaussian, Inc.),
 the Gaussian 86(TM) system (copyright 1986, Carnegie Mellon
 University), and the Gaussian 82(TM) system (copyright 1983,
 Carnegie Mellon University). Gaussian is a federally registered
 trademark of Gaussian, Inc.
  
 This software contains proprietary and confidential information,
 including trade secrets, belonging to Gaussian, Inc.
  
 This software is provided under written license and may be
 used, copied, transmitted, or stored only in accord with that
 written license.
  
 The following legend is applicable only to US Government
 contracts under FAR:
  
                    RESTRICTED RIGHTS LEGEND
  
 Use, reproduction and disclosure by the US Government is
 subject to restrictions as set forth in subparagraphs (a)
 and (c) of the Commercial Computer Software - Restricted
 Rights clause in FAR 52.227-19.
  
 Gaussian, Inc.
 340 Quinnipiac St., Bldg. 40, Wallingford CT 06492
  
  
 ---------------------------------------------------------------
 Warning -- This program may not be used in any manner that
 competes with the business of Gaussian, Inc. or will provide
 assistance to any competitor of Gaussian, Inc.  The licensee
 of this program is prohibited from giving any competitor of
 Gaussian, Inc. access to this program.  By using this program,
 the user acknowledges that Gaussian, Inc. is engaged in the
 business of creating and licensing software in the field of
[...]
   102. BD (   1) C  76 - H  77          1.98254    -0.54561  1548(v),1543(v),1338(v)
                                                    1395(v),1545(g),155(r)
                                                    1456(r),216(r)
   148. CR (   1) C  66                  1.99940   -10.06395  1545(v),1543(v),1338(v)
   149. CR (   1) N  70                  1.99938   -14.22674  1366(v),1340(v),1334(v)
                                                    1541(v),1341(v)
   150. CR (   1) C  72                  1.99915   -10.09484  1423(v),1545(g),1551(v)
                                                    1268(v),1311(v)
   151. CR (   1) C  73                  1.99939   -10.12732  1396(v),1542(v),1391(v)
                                                    155(r),1456(r)
   152. CR (   1) N  75                  1.99935   -14.15487  155(r),1364(v),1421(v)
                                                    1423(v),1547(v),1456(r)
   153. CR (   1) C  76                  1.99901   -10.06484  1541(v),1338(v),1396(v)
                                                    1545(g),1448(v),155(r)
                                                    1456(r)
   161. LP (   1) N  70                  1.57641    -0.28990  1549(v),1546(v),1367(v)
                                                    1339(v),1333(v),1365(v)
   162. LP (   1) N  75                  1.72341    -0.37667  155(r),1544(v),1456(r)
                                                    1545(v),1364(v),1547(v)
                                                    1551(v),1421(v),1548(g)
                                                    174(r),268(r),216(r),1452(r)
                                                    1457(r),1216(r),242(r)
                                                    1214(r),219(r),1222(r)
                                                    1462(r),1459(r),1221(r)
                                                    1463(r),271(r),245(r),270(r)
                                                    164(r),193(r),1460(r)
                                                    1465(r)
  1266. RY*(   1) C  66                  0.00123     1.13967   
  1267. RY*(   2) C  66                  0.00077     2.00171   
  1268. RY*(   3) C  66                  0.00053     1.30101   
  1269. RY*(   4) C  66                  0.00012     1.24459   
  1270. RY*(   5) C  66                  0.00007     1.09710   
  1271. RY*(   6) C  66                  0.00008     2.37426   
  1272. RY*(   7) C  66                  0.00001     1.37072   
  1273. RY*(   8) C  66                  0.00000     2.36998   
  1274. RY*(   9) C  66                  0.00001     1.31536   
  1275. RY*(  10) C  66                  0.00001     2.00539   
  1276. RY*(  11) C  66                  0.00001     1.90751   
  1277. RY*(  12) C  66                  0.00000     2.73930   
  1278. RY*(  13) C  66                  0.00000     2.39205   
  1279. RY*(  14) C  66                  0.00000     3.32643   
  1280. RY*(  15) C  66                  0.00000     2.53833   
  1281. RY*(  16) C  66                  0.00000     3.11609   
  1282. RY*(  17) C  66                  0.00000     2.45067   
  1283. RY*(  18) C  66                  0.00000    21.58835   
  1284. RY*(  19) C  66                  0.00000     2.72258   
  1285. RY*(  20) C  66                  0.00000     3.64146   
  1286. RY*(  21) C  66                  0.00000     2.99836   
  1287. RY*(  22) C  66                  0.00001     3.49589   
  1288. RY*(  23) C  66                  0.00000     3.60419   
  1289. RY*(  24) C  66                  0.00000     3.39688   
  1290. RY*(  25) C  66                  0.00000     3.34474   
  1291. RY*(  26) C  66                  0.00000     3.32723   
  1292. RY*(   1) H  67                  0.00025     1.25556   
  1293. RY*(   2) H  67                  0.00014     1.67057   
  1294. RY*(   3) H  67                  0.00008     2.05166   
  1295. RY*(   4) H  67                  0.00003     1.72781   
  1296. RY*(   5) H  67                  0.00001     2.88875   
  1297. RY*(   1) H  68                  0.00075     1.00253   
  1298. RY*(   2) H  68                  0.00014     1.68755   
  1299. RY*(   3) H  68                  0.00008     1.95896   
  1300. RY*(   4) H  68                  0.00006     2.00529   
  1301. RY*(   5) H  68                  0.00000     2.86842   
  1302. RY*(   1) H  69                  0.00074     0.99058   
  1303. RY*(   2) H  69                  0.00014     1.69870   
  1304. RY*(   3) H  69                  0.00008     1.96481   
  1305. RY*(   4) H  69                  0.00006     1.99990   
  1306. RY*(   5) H  69                  0.00000     2.86884   
  1307. RY*(   1) N  70                  0.00276     0.67125   
  1308. RY*(   2) N  70                  0.00240     1.75664   
  1309. RY*(   3) N  70                  0.00117     1.97961   
  1310. RY*(   4) N  70                  0.00069     2.30515   
  1311. RY*(   5) N  70                  0.00051     1.11911   
  1312. RY*(   6) N  70                  0.00024     2.20430   
  1313. RY*(   7) N  70                  0.00020     1.72141   
  1314. RY*(   8) N  70                  0.00007     2.56139   
  1315. RY*(   9) N  70                  0.00006     2.40741   
  1316. RY*(  10) N  70                  0.00005     2.98113   
  1317. RY*(  11) N  70                  0.00006     3.38979   
  1318. RY*(  12) N  70                  0.00000    30.64137   
  1319. RY*(  13) N  70                  0.00000     3.39341   
  1320. RY*(  14) N  70                  0.00000     2.07898   
  1321. RY*(  15) N  70                  0.00001     4.34009   
  1322. RY*(  16) N  70                  0.00001     2.50624   
  1323. RY*(  17) N  70                  0.00000     4.65080   
  1324. RY*(  18) N  70                  0.00001     3.79056   
  1325. RY*(  19) N  70                  0.00000     3.71866   
  1326. RY*(  20) N  70                  0.00000     4.64220   
  1327. RY*(  21) N  70                  0.00000     4.39396   
  1328. RY*(  22) N  70                  0.00000     4.66004   
  1329. RY*(  23) N  70                  0.00000     4.43702   
  1330. RY*(  24) N  70                  0.00000     4.34112   
  1331. RY*(  25) N  70                  0.00000     4.37592   
  1332. RY*(  26) N  70                  0.00000     4.46537   
  1333. RY*(   1) H  71                  0.00056     2.14246   
  1334. RY*(   2) H  71                  0.00040     2.12065   
  1335. RY*(   3) H  71                  0.00031     1.08059   
  1336. RY*(   4) H  71                  0.00021     2.47696   
  1337. RY*(   5) H  71                  0.00001     3.05657   
  1338. RY*(   1) C  72                  0.00414     1.67154   
  1339. RY*(   2) C  72                  0.00258     0.97790   
  1340. RY*(   3) C  72                  0.00187     1.47993   
  1341. RY*(   4) C  72                  0.00165     1.98932   
  1342. RY*(   5) C  72                  0.00119     1.59009   
  1343. RY*(   6) C  72                  0.00115     1.78024   
  1344. RY*(   7) C  72                  0.00037     2.84025   
  1345. RY*(   8) C  72                  0.00020     2.89133   
  1346. RY*(   9) C  72                  0.00015     2.22263   
  1347. RY*(  10) C  72                  0.00008     3.49934   
  1348. RY*(  11) C  72                  0.00003     2.65826   
  1349. RY*(  12) C  72                  0.00002     2.67676   
  1350. RY*(  13) C  72                  0.00003     2.31431   
  1351. RY*(  14) C  72                  0.00001     1.35121   
  1352. RY*(  15) C  72                  0.00000     1.06036   
  1353. RY*(  16) C  72                  0.00000    20.92251   
  1354. RY*(  17) C  72                  0.00000     3.51432   
  1355. RY*(  18) C  72                  0.00001     2.15396   
  1356. RY*(  19) C  72                  0.00000     2.87717   
  1357. RY*(  20) C  72                  0.00000     3.58430   
  1358. RY*(  21) C  72                  0.00000     3.54853   
  1359. RY*(  22) C  72                  0.00000     3.64023   
  1360. RY*(  23) C  72                  0.00000     3.37813   
  1361. RY*(  24) C  72                  0.00000     3.34054   
  1362. RY*(  25) C  72                  0.00000     3.43727   
  1363. RY*(  26) C  72                  0.00000     3.38933   
  1364. RY*(   1) C  73                  0.00412     1.54401   
  1365. RY*(   2) C  73                  0.00292     0.66949   
  1366. RY*(   3) C  73                  0.00225     1.43339   
  1367. RY*(   4) C  73                  0.00134     2.43502   
  1368. RY*(   5) C  73                  0.00075     1.66986   
  1369. RY*(   6) C  73                  0.00040     1.55216   
  1370. RY*(   7) C  73                  0.00028     1.69058   
  1371. RY*(   8) C  73                  0.00008     3.18438   
  1372. RY*(   9) C  73                  0.00004     3.65096   
  1373. RY*(  10) C  73                  0.00005     1.78026   
  1374. RY*(  11) C  73                  0.00003     1.51599   
  1375. RY*(  12) C  73                  0.00002     2.29375   
  1376. RY*(  13) C  73                  0.00001     2.91049   
  1377. RY*(  14) C  73                  0.00000    21.18140   
  1378. RY*(  15) C  73                  0.00001     2.39707   
  1379. RY*(  16) C  73                  0.00000     3.59979   
  1380. RY*(  17) C  73                  0.00001     2.75524   
  1381. RY*(  18) C  73                  0.00001     2.35676   
  1382. RY*(  19) C  73                  0.00000     3.00822   
  1383. RY*(  20) C  73                  0.00001     3.76847   
  1384. RY*(  21) C  73                  0.00000     3.52531   
  1385. RY*(  22) C  73                  0.00001     4.06457   
  1386. RY*(  23) C  73                  0.00000     3.80720   
  1387. RY*(  24) C  73                  0.00000     3.60051   
  1388. RY*(  25) C  73                  0.00000     3.40138   
  1389. RY*(  26) C  73                  0.00000     3.59634   
  1390. RY*(   1) H  74                  0.00057     0.65128   
  1391. RY*(   2) H  74                  0.00028     2.43032   
  1392. RY*(   3) H  74                  0.00021     2.03866   
  1393. RY*(   4) H  74                  0.00012     2.38064   
  1394. RY*(   5) H  74                  0.00002     3.15787   
  1395. RY*(   1) N  75                  0.00639     1.66076   
  1396. RY*(   2) N  75                  0.00473     1.15821   
  1397. RY*(   3) N  75                  0.00332     0.81776   
  1398. RY*(   4) N  75                  0.00119     1.08775   
  1399. RY*(   5) N  75                  0.00047     3.02868   
  1400. RY*(   6) N  75                  0.00035     2.00280   
  1401. RY*(   7) N  75                  0.00033     3.20293   
  1402. RY*(   8) N  75                  0.00022     2.54138   
  1403. RY*(   9) N  75                  0.00012     3.01601   
  1404. RY*(  10) N  75                  0.00009     2.54981   
  1405. RY*(  11) N  75                  0.00008     3.80006   
  1406. RY*(  12) N  75                  0.00004     2.11888   
  1407. RY*(  13) N  75                  0.00004     3.06258   
  1408. RY*(  14) N  75                  0.00001     4.72910   
  1409. RY*(  15) N  75                  0.00001     3.97546   
  1410. RY*(  16) N  75                  0.00001     4.96052   
  1411. RY*(  17) N  75                  0.00001     4.40756   
  1412. RY*(  18) N  75                  0.00000     4.52253   
  1413. RY*(  19) N  75                  0.00001     3.70485   
  1414. RY*(  20) N  75                  0.00001     4.57183   
  1415. RY*(  21) N  75                  0.00000     3.93621   
  1416. RY*(  22) N  75                  0.00000    31.60319   
  1417. RY*(  23) N  75                  0.00000     4.53524   
  1418. RY*(  24) N  75                  0.00000     4.69048   
  1419. RY*(  25) N  75                  0.00000     4.57161   
  1420. RY*(  26) N  75                  0.00000     4.66801   
  1421. RY*(   1) C  76                  0.00361     1.64393   
  1422. RY*(   2) C  76                  0.00246     0.73309   
  1423. RY*(   3) C  76                  0.00194     1.69798   
  1424. RY*(   4) C  76                  0.00065     2.06634   
  1425. RY*(   5) C  76                  0.00051     1.77776   
  1426. RY*(   6) C  76                  0.00043     2.17285   
  1427. RY*(   7) C  76                  0.00038     1.85914   
  1428. RY*(   8) C  76                  0.00015     1.42371   
  1429. RY*(   9) C  76                  0.00013     1.57176   
  1430. RY*(  10) C  76                  0.00011     1.77092   
  1431. RY*(  11) C  76                  0.00007     1.80318   
  1432. RY*(  12) C  76                  0.00005     2.71938   
  1433. RY*(  13) C  76                  0.00002     2.46608   
  1434. RY*(  14) C  76                  0.00002     2.29300   
  1435. RY*(  15) C  76                  0.00003     2.18324   
  1436. RY*(  16) C  76                  0.00002     4.66364   
  1437. RY*(  17) C  76                  0.00000     3.50912   
  1438. RY*(  18) C  76                  0.00000     3.23229   
  1439. RY*(  19) C  76                  0.00000    18.28354   
  1440. RY*(  20) C  76                  0.00001     3.80874   
  1441. RY*(  21) C  76                  0.00001     4.00129   
  1442. RY*(  22) C  76                  0.00000     3.47558   
  1443. RY*(  23) C  76                  0.00000     4.07668   
  1444. RY*(  24) C  76                  0.00000     3.42638   
  1445. RY*(  25) C  76                  0.00000     3.42287   
  1446. RY*(  26) C  76                  0.00000     3.54733   
  1447. RY*(   1) H  77                  0.00056     0.79839   
  1448. RY*(   2) H  77                  0.00024     2.27956   
  1449. RY*(   3) H  77                  0.00024     2.23543   
  1450. RY*(   4) H  77                  0.00005     2.64855   
  1451. RY*(   5) H  77                  0.00002     3.13883   
  1538. BD*(   1) C  66 - H  67          0.00355     0.36758   
  1539. BD*(   1) C  66 - H  68          0.01215     0.35459   
  1540. BD*(   1) C  66 - H  69          0.01164     0.35476   
  1541. BD*(   1) C  66 - C  72          0.01390     0.38481   
  1542. BD*(   1) N  70 - H  71          0.01473     0.36063   
  1543. BD*(   1) N  70 - C  72          0.02736     0.42212   
  1544. BD*(   1) N  70 - C  73          0.02593     0.44174   
  1545. BD*(   1) C  72 - C  76          0.02275     0.55650   
  1546. BD*(   2) C  72 - C  76          0.29882     0.02845  1549(v),1539(v),1540(v)
                                                    1426(g),1343(g)
  1547. BD*(   1) C  73 - H  74          0.01946     0.38115   
  1548. BD*(   1) C  73 - N  75          0.01252     0.54957   
  1549. BD*(   2) C  73 - N  75          0.40210    -0.00721  1546(v),1365(g),1397(g)
                                                    1422(v),1458(r),1464(r)
                                                    1454(r),1452(r)
  1550. BD*(   1) N  75 - C  76          0.01270     0.48725   
  1551. BD*(   1) C  76 - H  77          0.01528     0.42308   
       -------------------------------
              Total Lewis   42.80628  ( 97.7971%)
        Valence non-Lewis    0.89288  (  2.0399%)
        Rydberg non-Lewis    0.07132  (  0.1629%)
       -------------------------------
            Total unit  2   43.77049  (100.0000%)
           Charge unit  2    0.22951
 Unable to Open any file for archive entry.
 1\1\GINC-BGN1042\SP\RAPFD\def2TZVP\C34H34Fe1N6O2\BEBJONES\10-Jul-2024\
 0\\# apfd/def2TZVP int=(grid=ultrafine) geom=check guess=read pop=nbo 
 scf=qc\\1ash_II_S_nbo\\0,1\Fe,0,19.9308380269,-20.8523476691,3.0115035
 997\N,0,18.4545952433,-21.5576051743,4.1504204444\N,0,20.63612474,-22.
 6994908115,2.7487050777\N,0,21.509313006,-20.0456981924,2.0327792381\N
 ,0,19.2038244551,-18.9546157109,3.2498689524\C,0,17.3763678651,-20.875
 0461802,4.6160186679\C,0,16.509753205,-21.754525267,5.3659130557\C,0,1
 7.0917892823,-22.9848117922,5.3384339547\C,0,18.2989329939,-22.8485928
 292,4.5506062997\C,0,20.1491828409,-23.8521987849,3.2719111687\C,0,20.
 9306276748,-24.9789711613,2.7986299936\C,0,21.8786320441,-24.468166345
 3,1.9661181473\C,0,21.707341201,-23.0328874631,1.9814278262\C,0,22.456
 814918,-20.7637041388,1.3821529186\C,0,23.3515799819,-19.8858372988,0.
 6572871858\C,0,22.9045236929,-18.6129874613,0.891783693\C,0,21.7518994
 615,-18.7365272703,1.747874246\C,0,19.7697836851,-17.7893564106,2.8397
 020822\C,0,18.9275973608,-16.6688674212,3.21140417\C,0,17.819356842,-1
 7.2085856332,3.806560011\C,0,18.0255924587,-18.6338283209,3.8377954614
 \C,0,17.1423603983,-19.528842497,4.4235810951\H,0,16.2129244904,-19.12
 68240289,4.7934688466\C,0,19.0826255226,-23.9204452295,4.1532256278\H,
 0,18.7918193419,-24.8974513796,4.5131702255\C,0,22.5519554053,-22.1453
 609113,1.3446502457\H,0,23.3564814089,-22.5647450954,0.7585468287\C,0,
 20.9579804313,-17.6725023406,2.1426452678\H,0,21.2658824992,-16.680879
 2398,1.8531988567\C,0,15.2831970063,-21.3089136171,6.086246745\H,0,14.
 53834739,-20.9230125852,5.3910097577\H,0,15.5318928435,-20.5165531491,
 6.7947784348\H,0,14.844468481,-22.1365606706,6.6384916438\C,0,16.64335
 38975,-24.2499172083,5.9880596456\H,0,17.4510522768,-24.6671384046,6.5
 897090796\H,0,16.3519547105,-24.9908564357,5.2423931156\H,0,15.7898522
 986,-24.0613291173,6.6360127496\C,0,16.6207984519,-16.5089816207,4.347
 0542231\H,0,16.5443768119,-16.6630045472,5.4229004548\H,0,15.710653305
 2,-16.8916402738,3.8843335894\H,0,16.6844620145,-15.4414045046,4.15741
 53127\C,0,19.1682369193,-15.2604371329,2.9570950227\H,0,18.3017770374,
 -14.6893206572,2.6410851599\C,0,20.3277271352,-14.6373258304,3.1228618
 992\H,0,21.2039504284,-15.1478540135,3.4863160336\H,0,20.4308298703,-1
 3.5826362743,2.9308553113\C,0,23.4603180092,-17.3298777001,0.383826518
 6\H,0,23.4414838279,-16.5532900833,1.147696933\H,0,22.8643047001,-16.9
 854494029,-0.4620449737\H,0,24.4866918281,-17.4664221477,0.0496951738\
 C,0,24.4622065802,-20.3285283495,-0.1612305792\H,0,25.0386828408,-21.1
 632931618,0.2207556993\C,0,24.7864399461,-19.7900928849,-1.3299104178\
 H,0,24.2073092083,-18.9920676665,-1.7584623601\H,0,25.6132406481,-20.1
 564353084,-1.9134349411\C,0,22.8836851237,-25.1926646925,1.1381150998\
 H,0,23.8917059965,-24.8914790981,1.4206516987\H,0,22.7511147558,-24.97
 23890586,0.0774955246\H,0,22.7863867882,-26.2675445441,1.2692741664\C,
 0,20.6600367733,-26.4127995507,3.0995393558\H,0,21.5828537284,-26.9895
 085,3.0687212171\H,0,19.9830434859,-26.8286507751,2.3531901766\H,0,20.
 1983165311,-26.5317569187,4.076832693\O,0,18.9287822887,-20.9435883007
 ,1.6551220144\O,0,19.333372581,-21.508415939,0.5824347715\C,0,23.81305
 56201,-21.4539023014,7.3953310249\H,0,24.4393845177,-22.1263173258,6.8
 174806982\H,0,23.4776033052,-21.9743203963,8.2923686097\H,0,24.4119341
 801,-20.5972231139,7.7036846586\N,0,21.709921809,-20.1411796444,7.0295
 812954\H,0,21.7075240685,-19.7040945093,7.9369819597\C,0,22.6564714157
 ,-21.0220900105,6.5717771636\C,0,20.8041366654,-19.9657550467,6.043398
 5216\H,0,19.9446761518,-19.3320031369,6.1238148289\N,0,21.116409587,-2
 0.6760026649,4.9920583241\C,0,22.2639490714,-21.3404592288,5.302407779
 1\H,0,22.7225266113,-22.0008104374,4.5958459988\\Version=ES64L-G16RevC
 .02\State=1-A\HF=-3057.8752974\RMSD=6.549e-09\Dipole=0.9841713,0.08231
 55,2.9278949\Quadrupole=-1.6714629,1.1983353,0.4731275,-3.787712,-3.28
 45303,0.3071467\PG=C01 [X(C34H34Fe1N6O2)]\\@
 The archive entry for this job was punched.


 THERE'S NOTHING WRONG WITH FOLLOWING A TRAIN OF THOUGHT...
 AS LONG AS IT ULTIMATELY PULLS INTO THE STATION.
 Job cpu time:       0 days  0 hours 45 minutes 49.8 seconds.
 Elapsed time:       0 days  0 hours  0 minutes 58.2 seconds.
 File lengths (MBytes):  RWF=    812 Int=      0 D2E=      0 Chk=    157 Scr=      1
 Normal termination of Gaussian 16 at Wed Jul 10 10:15:02 2024.
