 Entering Gaussian System, Link 0=g16
 Input=1beq05re.com
 Output=1beq05re.log
 Initial command:
 /sw/chem/gaussian/g16_C02/a100/g16/l1.exe "/local/bebjones_7797015/Gau-531015.inp" -scrdir="/local/bebjones_7797015/"
 Entering Link 1 = /sw/chem/gaussian/g16_C02/a100/g16/l1.exe PID=    531016.
  
 Copyright (c) 1988-2021, Gaussian, Inc.  All Rights Reserved.
  
 This is part of the Gaussian(R) 16 program.  It is based on
 the Gaussian(R) 09 system (copyright 2009, Gaussian, Inc.),
 the Gaussian(R) 03 system (copyright 2003, Gaussian, Inc.),
 the Gaussian(R) 98 system (copyright 1998, Gaussian, Inc.),
 the Gaussian(R) 94 system (copyright 1995, Gaussian, Inc.),
 the Gaussian 92(TM) system (copyright 1992, Gaussian, Inc.),
 the Gaussian 90(TM) system (copyright 1990, Gaussian, Inc.),
 the Gaussian 88(TM) system (copyright 1988, Gaussian, Inc.),
 the Gaussian 86(TM) system (copyright 1986, Carnegie Mellon
 University), and the Gaussian 82(TM) system (copyright 1983,
 Carnegie Mellon University). Gaussian is a federally registered
 trademark of Gaussian, Inc.
  
 This software contains proprietary and confidential information,
 including trade secrets, belonging to Gaussian, Inc.
  
 This software is provided under written license and may be
 used, copied, transmitted, or stored only in accord with that
 written license.
  
 The following legend is applicable only to US Government
 contracts under FAR:
  
                    RESTRICTED RIGHTS LEGEND
  
 Use, reproduction and disclosure by the US Government is
 subject to restrictions as set forth in subparagraphs (a)
 and (c) of the Commercial Computer Software - Restricted
 Rights clause in FAR 52.227-19.
  
 Gaussian, Inc.
 340 Quinnipiac St., Bldg. 40, Wallingford CT 06492
  
  
 ---------------------------------------------------------------
 Warning -- This program may not be used in any manner that
 competes with the business of Gaussian, Inc. or will provide
 assistance to any competitor of Gaussian, Inc.  The licensee
 of this program is prohibited from giving any competitor of
 Gaussian, Inc. access to this program.  By using this program,
 the user acknowledges that Gaussian, Inc. is engaged in the
 business of creating and licensing software in the field of
 computational chemistry and represents and warrants to the
 licensee that it is not a competitor of Gaussian, Inc. and that
 it will not use this program in any manner prohibited above.
 ---------------------------------------------------------------
  

 Cite this work as:
 Gaussian 16, Revision C.02,
 M. J. Frisch, G. W. Trucks, H. B. Schlegel, G. E. Scuseria, 
 M. A. Robb, J. R. Cheeseman, G. Scalmani, V. Barone, 
 G. A. Petersson, H. Nakatsuji, X. Li, M. Caricato, A. V. Marenich, 
 J. Bloino, B. G. Janesko, R. Gomperts, B. Mennucci, H. P. Hratchian, 
 J. V. Ortiz, A. F. Izmaylov, J. L. Sonnenberg, D. Williams-Young, 
 F. Ding, F. Lipparini, F. Egidi, J. Goings, B. Peng, A. Petrone, 
 T. Henderson, D. Ranasinghe, V. G. Zakrzewski, J. Gao, N. Rega, 
 G. Zheng, W. Liang, M. Hada, M. Ehara, K. Toyota, R. Fukuda, 
 J. Hasegawa, M. Ishida, T. Nakajima, Y. Honda, O. Kitao, H. Nakai, 
 T. Vreven, K. Throssell, J. A. Montgomery, Jr., J. E. Peralta, 
 F. Ogliaro, M. J. Bearpark, J. J. Heyd, E. N. Brothers, K. N. Kudin, 
 V. N. Staroverov, T. A. Keith, R. Kobayashi, J. Normand, 
 K. Raghavachari, A. P. Rendell, J. C. Burant, S. S. Iyengar, 
 J. Tomasi, M. Cossi, J. M. Millam, M. Klene, C. Adamo, R. Cammi, 
 J. W. Ochterski, R. L. Martin, K. Morokuma, O. Farkas, 
 J. B. Foresman, and D. J. Fox, Gaussian, Inc., Wallingford CT, 2019.
 
 ******************************************
 Gaussian 16:  ES64L-G16RevC.02  7-Dec-2021
                30-Mar-2024 
 ******************************************
 %mem=16GB
 %CPU=0-71
 SetSPE:  set environment variable "OMP_PROC_BIND" = "true"
 SetSPE:  set environment variable "OMP_PLACES" = "{0},{1},{2},{3},{4},{5},{6},{7},{8},{9},{10},{11},{12},{13},{14},{15},{16},{17},{18},{19},{20},{21},{22},{23},{24},{25},{26},{27},{28},{29},{30},{31},{32},{33},{34},{35},{36},{37},{38},{39},{40},{41},{42},{43},{44},{45},{46},{47},{48},{49},{50},{51},{52},{53},{54},{55},{56},{57},{58},{59},{60},{61},{62},{63},{64},{65},{66},{67},{68},{69},{70},{71}"
 Will use up to   72 processors via shared memory.
 %gpucpu=0,1,2,3=0,1,2,3
 Will use    4 GPUs:
 Thread  CPU   GPU
      0    0     0
      1    1     1
      2    2     2
      3    3     3
      4    4    -1
      5    5    -1
      6    6    -1
      7    7    -1
      8    8    -1
      9    9    -1
     10   10    -1
     11   11    -1
     12   12    -1
     13   13    -1
     14   14    -1
     15   15    -1
     16   16    -1
     17   17    -1
     18   18    -1
     19   19    -1
     20   20    -1
     21   21    -1
     22   22    -1
     23   23    -1
     24   24    -1
     25   25    -1
     26   26    -1
     27   27    -1
     28   28    -1
     29   29    -1
     30   30    -1
     31   31    -1
     32   32    -1
     33   33    -1
     34   34    -1
     35   35    -1
     36   36    -1
     37   37    -1
     38   38    -1
     39   39    -1
     40   40    -1
     41   41    -1
     42   42    -1
     43   43    -1
     44   44    -1
     45   45    -1
     46   46    -1
     47   47    -1
     48   48    -1
     49   49    -1
     50   50    -1
     51   51    -1
     52   52    -1
     53   53    -1
     54   54    -1
     55   55    -1
     56   56    -1
     57   57    -1
     58   58    -1
     59   59    -1
     60   60    -1
     61   61    -1
     62   62    -1
     63   63    -1
     64   64    -1
     65   65    -1
     66   66    -1
     67   67    -1
     68   68    -1
     69   69    -1
     70   70    -1
     71   71    -1
 SetGPE:  set environment variable "OMP_PROC_BIND" = "true"
 SetGPE:  set environment variable "OMP_PLACES" = "{0},{1},{2},{3},{4},{5},{6},{7},{8},{9},{10},{11},{12},{13},{14},{15},{16},{17},{18},{19},{20},{21},{22},{23},{24},{25},{26},{27},{28},{29},{30},{31},{32},{33},{34},{35},{36},{37},{38},{39},{40},{41},{42},{43},{44},{45},{46},{47},{48},{49},{50},{51},{52},{53},{54},{55},{56},{57},{58},{59},{60},{61},{62},{63},{64},{65},{66},{67},{68},{69},{70},{71}"
 %oldchk=1beq_II_S.chk
 %chk=1beq_II_Sre.chk
 Properties for Device   0
 Minimum vector length:                              32
 Maximum vector length:                            1024
 Number of SMPs:                                    108
 Maximum number of threads per SMP:                2048
 Number of ASync Engines:                             5
 Memory:                                           9192980480
 Properties for Device   1
 Minimum vector length:                              32
 Maximum vector length:                            1024
 Number of SMPs:                                    108
 Maximum number of threads per SMP:                2048
 Number of ASync Engines:                             5
 Memory:                                           9192980480
 Properties for Device   2
 Minimum vector length:                              32
 Maximum vector length:                            1024
 Number of SMPs:                                    108
 Maximum number of threads per SMP:                2048
 Number of ASync Engines:                             5
 Memory:                                           9192980480
 Properties for Device   3
 Minimum vector length:                              32
 Maximum vector length:                            1024
 Number of SMPs:                                    108
 Maximum number of threads per SMP:                2048
 Number of ASync Engines:                             5
 Memory:                                           9192980480
   8273682432 words of memory will be used on each GPU.
 Copying data from "1beq_II_S.chk" to current chk file "1beq_II_Sre.chk"
 IOpt=  2 FromEx=T IUOpen= 4 IOptOp= 5 NList=   0 IFRang= 0 IUIn= 4 IUOut= 2.
 --------------------------------------
 # apfd/gen scf=maxcycle=999 geom=check
 --------------------------------------
 1/29=2,38=1,172=1/1;
 2/12=2,40=1/2;
 3/5=7,11=2,14=-4,25=1,30=1,74=-44/1,2,3;
 4//1;
 5/5=2,7=999,38=5/2;
 6/7=2,8=2,9=2,10=2,28=1/1;
 99/5=1,9=1/99;
 ---------
 1beq_II_Q
 ---------
 Structure from the checkpoint file:  "1beq_II_Sre.chk"
 Charge =  0 Multiplicity = 5
 Z-Matrix found in chk file.
 Fe,0,-6.1251783833,56.6265942263,20.8689266114
 N,0,-6.8822569857,55.7286421257,22.5109604642
 N,0,-7.1275942744,58.2852064659,21.3797842039
 N,0,-5.4217601758,57.5531690132,19.2595867486
 N,0,-5.1689011693,54.9459231693,20.4124610751
 C,0,-6.7616221957,54.4160759515,22.8457486727
 C,0,-7.3463611919,54.1659244396,24.1414471799
 C,0,-7.9371352923,55.3322831942,24.5244263716
 C,0,-7.6106119775,56.3052034174,23.5080418505
 C,0,-7.655254846,58.5783817729,22.5994888515
 C,0,-8.1314243077,59.935715394,22.6486191872
 C,0,-7.8499299453,60.4851488952,21.4269340323
 C,0,-7.1298220963,59.4600159389,20.6811264215
 C,0,-5.345133469,58.9008131743,19.0878054887
 C,0,-4.4966423785,59.233738724,17.9765758127
 C,0,-3.9249206096,58.0560465923,17.568649043
 C,0,-4.515105525,57.0227991911,18.3972989543
 C,0,-4.5177871034,54.7165956236,19.2435924582
 C,0,-4.0811911693,53.3390420022,19.1638675521
 C,0,-4.6114977352,52.7121488831,20.2455635114
 C,0,-5.2530362877,53.7405173959,21.0420398961
 C,0,-6.100409729,53.4555171388,22.0939844586
 H,0,-6.1254517473,52.4391005351,22.4566174091
 C,0,-7.8596083638,57.6597160998,23.6201093956
 H,0,-8.3404323015,58.0070595823,24.5223072685
 C,0,-6.2068159019,59.7938905182,19.7091066675
 H,0,-6.1727238586,60.8213983679,19.3805568675
 C,0,-4.1492523315,55.6888301923,18.3332754762
 H,0,-3.5251837025,55.381288382,17.5081858089
 C,0,-8.703419658,55.6392010721,25.765819471
 H,0,-8.1445135206,56.3202172227,26.4093488053
 H,0,-8.9094522951,54.7313976066,26.3274430475
 H,0,-9.6534368587,56.113241173,25.5203407636
 C,0,-7.3497569731,52.8408682085,24.8239401957
 H,0,-6.330297084,52.4892079921,24.978738101
 H,0,-7.8736567599,52.0983952317,24.2214848513
 H,0,-7.8400589906,52.9040974411,25.7920716842
 C,0,-8.742520311,60.5837945588,23.8420596268
 H,0,-8.2777836272,60.220645351,24.7574251549
 H,0,-9.8117612904,60.3707869166,23.8978281096
 H,0,-8.6092081363,61.6623505273,23.790462596
 C,0,-8.1589767788,61.8050859159,20.9290036538
 H,0,-7.4919535402,62.1924158962,20.1683092773
 C,0,-9.1972948967,62.5510497687,21.2965714509
 H,0,-9.9337772982,62.2096249098,22.0024975854
 H,0,-9.3607602433,63.5297729565,20.8767325881
 C,0,-4.1992002372,60.6196901977,17.5192575636
 H,0,-4.1965702314,61.3095495615,18.3618187971
 H,0,-4.9496851644,60.961509238,16.8045115844
 H,0,-3.2250991129,60.6528012741,17.0353060766
 C,0,-2.9520587891,57.8258647148,16.5249636196
 H,0,-2.272006633,56.999680916,16.6971638567
 C,0,-2.8329172129,58.5319755296,15.4046478674
 H,0,-3.5079703796,59.3316957319,15.1548567056
 H,0,-2.0656168203,58.311663391,14.6806923319
 C,0,-3.3047332644,52.7674684695,18.0274039018
 H,0,-2.341728674,53.2701319668,17.9300664543
 H,0,-3.8470995364,52.8923984957,17.0893166275
 H,0,-3.1215873135,51.7060281535,18.1788896859
 C,0,-4.5178686578,51.2806950968,20.649436025
 H,0,-3.8989698033,50.7210077991,19.9525134487
 H,0,-5.5102770365,50.8278676068,20.6662851824
 H,0,-4.0857794337,51.1867006375,21.6457771785
 O,0,-4.397,57.187,22.252
 H,0,-4.724,56.649,22.973
 H,0,-3.678,57.71,22.27
 C,0,-9.5956718569,54.5935006304,16.9850930219
 H,0,-8.7992560718,54.3638834034,16.2841168196
 H,0,-10.2895301469,55.2870462024,16.5100133574
 H,0,-10.1354687122,53.6746098018,17.2143886427
 N,0,-9.7902245997,55.5688138182,19.2834018631
 H,0,-10.7933162271,55.498498616,19.3380769442
 C,0,-9.017915096,55.185791804,18.2182111024
 C,0,-8.9628784229,56.0562525583,20.2345088548
 H,0,-9.290933798,56.4325750416,21.1812476786
 N,0,-7.7148292024,56.0050612061,19.8373726512
 C,0,-7.7327372657,55.4659470466,18.5852621291
 H,0,-6.8271152524,55.3189751395,18.034670473
 Recover connectivity data from disk.
 Stoichiometry    C34H36FeN6O(5)
 Framework group  C1[X(C34H36FeN6O)]
 Deg. of freedom   228
 Full point group                 C1      NOp   1
 Largest Abelian subgroup         C1      NOp   1
 Largest concise Abelian subgroup C1      NOp   1
                         Standard orientation:                         
 ---------------------------------------------------------------------
 Center     Atomic      Atomic             Coordinates (Angstroms)
 Number     Number       Type             X           Y           Z
 ---------------------------------------------------------------------
      1         26           0        0.018108   -0.134221   -0.372624
      2          7           0        1.065270   -1.858876   -0.441746
      3          7           0        1.751093    0.845931   -0.142683
      4          7           0       -0.963381    1.589674   -0.282193
      5          7           0       -1.664738   -1.167999   -0.588993
      6          6           0        0.552836   -3.118449   -0.460540
      7          6           0        1.605680   -4.093528   -0.615680
      8          6           0        2.777564   -3.400891   -0.560715
      9          6           0        2.419683   -2.003725   -0.482752
     10          6           0        2.998969    0.374120   -0.411490
     11          6           0        3.983774    1.418968   -0.311690
     12          6           0        3.298611    2.563438   -0.004491
     13          6           0        1.887006    2.198682   -0.001628
     14          6           0       -0.432963    2.820085   -0.519408
     15          6           0       -1.465712    3.803901   -0.695877
     16          6           0       -2.649488    3.112283   -0.719676
     17          6           0       -2.302485    1.726922   -0.468787
     18          6           0       -2.913987   -0.652323   -0.461521
     19          6           0       -3.907715   -1.703477   -0.508486
     20          6           0       -3.218606   -2.873629   -0.521017
     21          6           0       -1.814768   -2.521957   -0.616180
     22          6           0       -0.797567   -3.434171   -0.418638
     23          1           0       -1.060876   -4.480639   -0.390266
     24          6           0        3.320368   -0.962796   -0.603145
     25          1           0        4.359455   -1.215086   -0.752971
     26          6           0        0.906309    3.120194   -0.313529
     27          1           0        1.192929    4.159224   -0.369612
     28          6           0       -3.224839    0.694133   -0.474291
     29          1           0       -4.270953    0.959033   -0.491320
     30          6           0        4.177559   -3.905903   -0.646880
     31          1           0        4.645332   -3.597149   -1.582909
     32          1           0        4.200787   -4.991653   -0.596031
     33          1           0        4.776535   -3.511610    0.173648
     34          6           0        1.385594   -5.564406   -0.713980
     35          1           0        0.750725   -5.798620   -1.567802
     36          1           0        0.894601   -5.941450    0.183491
     37          1           0        2.328922   -6.090852   -0.835053
     38          6           0        5.440692    1.246726   -0.567552
     39          1           0        5.608633    0.524058   -1.364608
     40          1           0        5.954974    0.889769    0.326794
     41          1           0        5.882763    2.196155   -0.862298
     42          6           0        3.809745    3.889041    0.254734
     43          1           0        3.136759    4.708095    0.031482
     44          6           0        5.002456    4.175218    0.769723
     45          1           0        5.700526    3.413852    1.070269
     46          1           0        5.311871    5.194026    0.934580
     47          6           0       -1.226254    5.247922   -0.971448
     48          1           0       -0.317141    5.381468   -1.555829
     49          1           0       -1.115372    5.806979   -0.040808
     50          1           0       -2.064216    5.666933   -1.525007
     51          6           0       -3.992355    3.606014   -0.923787
     52          1           0       -4.671428    2.917745   -1.413530
     53          6           0       -4.441498    4.805602   -0.567201
     54          1           0       -3.830137    5.513357   -0.035255
     55          1           0       -5.454530    5.110163   -0.773135
     56          6           0       -5.378443   -1.474164   -0.434272
     57          1           0       -5.714581   -0.867402   -1.275922
     58          1           0       -5.640269   -0.949902    0.485713
     59          1           0       -5.918869   -2.417867   -0.456875
     60          6           0       -3.730950   -4.273039   -0.530765
     61          1           0       -4.817598   -4.287763   -0.561864
     62          1           0       -3.406738   -4.799659    0.367995
     63          1           0       -3.354293   -4.817509   -1.396740
     64          8           0        0.274702   -0.153906   -2.641394
     65          1           0        0.658327   -1.030835   -2.647955
     66          1           0        0.159141    0.374992   -3.346891
     67          6           0       -1.693770   -0.271109    4.948344
     68          1           0       -2.712240    0.017585    4.708044
     69          1           0       -1.275703    0.463999    5.636080
     70          1           0       -1.713900   -1.237244    5.452819
     71          7           0        0.434896   -0.694376    3.698969
     72          1           0        0.984892   -0.921987    4.511265
     73          6           0       -0.890222   -0.345299    3.701749
     74          6           0        0.861144   -0.672745    2.416570
     75          1           0        1.860860   -0.902972    2.111422
     76          7           0       -0.112216   -0.332000    1.607603
     77          6           0       -1.207986   -0.125185    2.391989
     78          1           0       -2.144382    0.168586    1.965652
 ---------------------------------------------------------------------
 Rotational constants (GHZ):           0.0934735           0.0915431           0.0595602
 General basis read from cards:  (5D, 7F)
 There are   723 symmetry adapted cartesian basis functions of A   symmetry.
 There are   679 symmetry adapted basis functions of A   symmetry.
   679 basis functions,  1378 primitive gaussians,   723 cartesian basis functions
   160 alpha electrons      156 beta electrons
       nuclear repulsion energy      5976.4136616728 Hartrees.
 NAtoms=   78 NActive=   78 NUniq=   78 SFac= 1.00D+00 NAtFMM=   60 NAOKFM=T Big=T
 Integral buffers will be    131072 words long.
 Raffenetti 2 integral format.
 Two-electron integral symmetry is turned on.
 R6APFD:  NTU= -4 IXU= 1 FactS= 1.050
 Nuclear repulsion after empirical dispersion term =     5976.2594630320 Hartrees.
 One-electron integrals computed using PRISM.
 NBasis=   679 RedAO= T EigKep=  3.55D-04  NBF=   679
 NBsUse=   679 1.00D-06 EigRej= -1.00D+00 NBFU=   679
 ExpMin= 4.20D-02 ExpMax= 3.01D+05 ExpMxC= 2.91D+03 IAcc=3 IRadAn=         5 AccDes= 0.00D+00
 Harris functional with IExCor= 3731 and IRadAn=       5 diagonalized for initial guess.
 HarFok:  IExCor= 3731 AccDes= 0.00D+00 IRadAn=         5 IDoV= 1 UseB2=F ITyADJ=14
 ICtDFT=  3500011 ScaDFX=  1.000000  1.000000  1.000000  1.000000
 FoFCou: FMM=F IPFlag=           0 FMFlag=      100000 FMFlg1=        2001
         NFxFlg=           0 DoJE=T BraDBF=F KetDBF=T FulRan=T
         wScrn=  0.000000 ICntrl=       500 IOpCl=  0 I1Cent=   200000004 NGrid=           0
         NMat0=    1 NMatS0=      1 NMatT0=    0 NMatD0=    1 NMtDS0=    0 NMtDT0=    0
 Petite list used in FoFCou.
 Initial guess <Sx>= 0.0000 <Sy>= 0.0000 <Sz>= 2.0000 <S**2>= 6.0000 S= 2.0000
 Requested convergence on RMS density matrix=1.00D-08 within 999 cycles.
 Requested convergence on MAX density matrix=1.00D-06.
 Requested convergence on             energy=1.00D-06.
 No special actions if energy rises.
 EnCoef did   100 forward-backward iterations
 EnCoef did   100 forward-backward iterations
 EnCoef did   100 forward-backward iterations
 EnCoef did   100 forward-backward iterations
 EnCoef did    11 forward-backward iterations
 EnCoef did     7 forward-backward iterations
 EnCoef did     6 forward-backward iterations
 EnCoef did     3 forward-backward iterations
 EnCoef did    40 forward-backward iterations
 EnCoef did   100 forward-backward iterations
 Restarting incremental Fock formation.
 EnCoef did     2 forward-backward iterations
 EnCoef did     3 forward-backward iterations
 EnCoef did     3 forward-backward iterations
 EnCoef did     5 forward-backward iterations
 EnCoef did     1 forward-backward iterations
 EnCoef did     2 forward-backward iterations
 EnCoef did     3 forward-backward iterations
 EnCoef did     3 forward-backward iterations
 Rare condition: small coef for last iteration: -0.222D-15
 EnCoef did   100 forward-backward iterations
 Rare condition: small coef for last iteration:  0.000D+00
 EnCoef did   100 forward-backward iterations
 Rare condition: small coef for last iteration:  0.000D+00
 EnCoef did   100 forward-backward iterations
 Rare condition: small coef for last iteration:  0.000D+00
 Restarting incremental Fock formation.
 EnCoef did   100 forward-backward iterations
 Rare condition: small coef for last iteration:  0.176D-16
 EnCoef did   100 forward-backward iterations
 EnCoef did   100 forward-backward iterations
 Rare condition: small coef for last iteration: -0.229D-15
 Rare condition: small coef for last iteration:  0.000D+00
 EnCoef did     3 forward-backward iterations
 Rare condition: small coef for last iteration:  0.108D-15
 Rare condition: small coef for last iteration:  0.000D+00
 Rare condition: small coef for last iteration:  0.000D+00
 EnCoef did   100 forward-backward iterations
 Rare condition: small coef for last iteration:  0.000D+00
 EnCoef did   100 forward-backward iterations
 Rare condition: small coef for last iteration:  0.000D+00
 Rare condition: small coef for last iteration:  0.000D+00
 Restarting incremental Fock formation.
 EnCoef did   100 forward-backward iterations
 Rare condition: small coef for last iteration:  0.000D+00
 EnCoef did   100 forward-backward iterations
 EnCoef did   100 forward-backward iterations
 Rare condition: small coef for last iteration:  0.339D-15
 Rare condition: small coef for last iteration:  0.000D+00
 Rare condition: small coef for last iteration:  0.000D+00
 Restarting incremental Fock formation.
 Rare condition: small coef for last iteration:  0.000D+00
 Rare condition: small coef for last iteration:  0.000D+00
 Rare condition: small coef for last iteration:  0.000D+00
 Rare condition: small coef for last iteration:  0.000D+00
 Rare condition: small coef for last iteration:  0.000D+00
 Rare condition: small coef for last iteration:  0.000D+00
 Rare condition: small coef for last iteration:  0.000D+00
 Rare condition: small coef for last iteration:  0.000D+00
 Rare condition: small coef for last iteration:  0.000D+00
 Rare condition: small coef for last iteration:  0.000D+00
 Restarting incremental Fock formation.
 Rare condition: small coef for last iteration:  0.000D+00
 Rare condition: small coef for last iteration:  0.000D+00
 Rare condition: small coef for last iteration:  0.000D+00
 Rare condition: small coef for last iteration:  0.000D+00
 Rare condition: small coef for last iteration:  0.000D+00
 Restarting incremental Fock formation.
 SCF Done:  E(UAPFD) =  -2983.34804686     A.U. after  135 cycles
            NFock=135  Conv=0.85D-08     -V/T= 2.0033
 <Sx>= 0.0000 <Sy>= 0.0000 <Sz>= 2.0000 <S**2>= 6.0200 S= 2.0040
 <L.S>=  0.00000000000    
 Annihilation of the first spin contaminant:
 S**2 before annihilation     6.0200,   after     6.0001

 **********************************************************************

            Population analysis using the SCF Density.

 **********************************************************************

 Orbital symmetries:
 Alpha Orbitals:
       Occupied  (A) (A) (A) (A) (A) (A) (A) (A) (A) (A) (A) (A)
                 (A) (A) (A) (A) (A) (A) (A) (A) (A) (A) (A) (A)
                 (A) (A) (A) (A) (A) (A) (A) (A) (A) (A) (A) (A)
                 (A) (A) (A) (A) (A) (A) (A) (A) (A) (A) (A) (A)
                 (A) (A) (A) (A) (A) (A) (A) (A) (A) (A) (A) (A)
                 (A) (A) (A) (A) (A) (A) (A) (A) (A) (A) (A) (A)
                 (A) (A) (A) (A) (A) (A) (A) (A) (A) (A) (A) (A)
                 (A) (A) (A) (A) (A) (A) (A) (A) (A) (A) (A) (A)
                 (A) (A) (A) (A) (A) (A) (A) (A) (A) (A) (A) (A)
                 (A) (A) (A) (A) (A) (A) (A) (A) (A) (A) (A) (A)
                 (A) (A) (A) (A) (A) (A) (A) (A) (A) (A) (A) (A)
                 (A) (A) (A) (A) (A) (A) (A) (A) (A) (A) (A) (A)
                 (A) (A) (A) (A) (A) (A) (A) (A) (A) (A) (A) (A)
                 (A) (A) (A) (A)
       Virtual   (A) (A) (A) (A) (A) (A) (A) (A) (A) (A) (A) (A)
                 (A) (A) (A) (A) (A) (A) (A) (A) (A) (A) (A) (A)
                 (A) (A) (A) (A) (A) (A) (A) (A) (A) (A) (A) (A)
                 (A) (A) (A) (A) (A) (A) (A) (A) (A) (A) (A) (A)
                 (A) (A) (A) (A) (A) (A) (A) (A) (A) (A) (A) (A)
                 (A) (A) (A) (A) (A) (A) (A) (A) (A) (A) (A) (A)
                 (A) (A) (A) (A) (A) (A) (A) (A) (A) (A) (A) (A)
                 (A) (A) (A) (A) (A) (A) (A) (A) (A) (A) (A) (A)
                 (A) (A) (A) (A) (A) (A) (A) (A) (A) (A) (A) (A)
                 (A) (A) (A) (A) (A) (A) (A) (A) (A) (A) (A) (A)
                 (A) (A) (A) (A) (A) (A) (A) (A) (A) (A) (A) (A)
                 (A) (A) (A) (A) (A) (A) (A) (A) (A) (A) (A) (A)
                 (A) (A) (A) (A) (A) (A) (A) (A) (A) (A) (A) (A)
                 (A) (A) (A) (A) (A) (A) (A) (A) (A) (A) (A) (A)
                 (A) (A) (A) (A) (A) (A) (A) (A) (A) (A) (A) (A)
                 (A) (A) (A) (A) (A) (A) (A) (A) (A) (A) (A) (A)
                 (A) (A) (A) (A) (A) (A) (A) (A) (A) (A) (A) (A)
                 (A) (A) (A) (A) (A) (A) (A) (A) (A) (A) (A) (A)
                 (A) (A) (A) (A) (A) (A) (A) (A) (A) (A) (A) (A)
                 (A) (A) (A) (A) (A) (A) (A) (A) (A) (A) (A) (A)
                 (A) (A) (A) (A) (A) (A) (A) (A) (A) (A) (A) (A)
                 (A) (A) (A) (A) (A) (A) (A) (A) (A) (A) (A) (A)
                 (A) (A) (A) (A) (A) (A) (A) (A) (A) (A) (A) (A)
                 (A) (A) (A) (A) (A) (A) (A) (A) (A) (A) (A) (A)
                 (A) (A) (A) (A) (A) (A) (A) (A) (A) (A) (A) (A)
                 (A) (A) (A) (A) (A) (A) (A) (A) (A) (A) (A) (A)
                 (A) (A) (A) (A) (A) (A) (A) (A) (A) (A) (A) (A)
                 (A) (A) (A) (A) (A) (A) (A) (A) (A) (A) (A) (A)
                 (A) (A) (A) (A) (A) (A) (A) (A) (A) (A) (A) (A)
                 (A) (A) (A) (A) (A) (A) (A) (A) (A) (A) (A) (A)
                 (A) (A) (A) (A) (A) (A) (A) (A) (A) (A) (A) (A)
                 (A) (A) (A) (A) (A) (A) (A) (A) (A) (A) (A) (A)
                 (A) (A) (A) (A) (A) (A) (A) (A) (A) (A) (A) (A)
                 (A) (A) (A) (A) (A) (A) (A) (A) (A) (A) (A) (A)
                 (A) (A) (A) (A) (A) (A) (A) (A) (A) (A) (A) (A)
                 (A) (A) (A) (A) (A) (A) (A) (A) (A) (A) (A) (A)
                 (A) (A) (A) (A) (A) (A) (A) (A) (A) (A) (A) (A)
                 (A) (A) (A) (A) (A) (A) (A) (A) (A) (A) (A) (A)
                 (A) (A) (A) (A) (A) (A) (A) (A) (A) (A) (A) (A)
                 (A) (A) (A) (A) (A) (A) (A) (A) (A) (A) (A) (A)
                 (A) (A) (A) (A) (A) (A) (A) (A) (A) (A) (A) (A)
                 (A) (A) (A) (A) (A) (A) (A) (A) (A) (A) (A) (A)
                 (A) (A) (A) (A) (A) (A) (A) (A) (A) (A) (A) (A)
                 (A) (A) (A)
 Beta  Orbitals:
       Occupied  (A) (A) (A) (A) (A) (A) (A) (A) (A) (A) (A) (A)
                 (A) (A) (A) (A) (A) (A) (A) (A) (A) (A) (A) (A)
                 (A) (A) (A) (A) (A) (A) (A) (A) (A) (A) (A) (A)
                 (A) (A) (A) (A) (A) (A) (A) (A) (A) (A) (A) (A)
                 (A) (A) (A) (A) (A) (A) (A) (A) (A) (A) (A) (A)
                 (A) (A) (A) (A) (A) (A) (A) (A) (A) (A) (A) (A)
                 (A) (A) (A) (A) (A) (A) (A) (A) (A) (A) (A) (A)
                 (A) (A) (A) (A) (A) (A) (A) (A) (A) (A) (A) (A)
                 (A) (A) (A) (A) (A) (A) (A) (A) (A) (A) (A) (A)
                 (A) (A) (A) (A) (A) (A) (A) (A) (A) (A) (A) (A)
                 (A) (A) (A) (A) (A) (A) (A) (A) (A) (A) (A) (A)
                 (A) (A) (A) (A) (A) (A) (A) (A) (A) (A) (A) (A)
                 (A) (A) (A) (A) (A) (A) (A) (A) (A) (A) (A) (A)
       Virtual   (A) (A) (A) (A) (A) (A) (A) (A) (A) (A) (A) (A)
                 (A) (A) (A) (A) (A) (A) (A) (A) (A) (A) (A) (A)
                 (A) (A) (A) (A) (A) (A) (A) (A) (A) (A) (A) (A)
                 (A) (A) (A) (A) (A) (A) (A) (A) (A) (A) (A) (A)
                 (A) (A) (A) (A) (A) (A) (A) (A) (A) (A) (A) (A)
                 (A) (A) (A) (A) (A) (A) (A) (A) (A) (A) (A) (A)
                 (A) (A) (A) (A) (A) (A) (A) (A) (A) (A) (A) (A)
                 (A) (A) (A) (A) (A) (A) (A) (A) (A) (A) (A) (A)
                 (A) (A) (A) (A) (A) (A) (A) (A) (A) (A) (A) (A)
                 (A) (A) (A) (A) (A) (A) (A) (A) (A) (A) (A) (A)
                 (A) (A) (A) (A) (A) (A) (A) (A) (A) (A) (A) (A)
                 (A) (A) (A) (A) (A) (A) (A) (A) (A) (A) (A) (A)
                 (A) (A) (A) (A) (A) (A) (A) (A) (A) (A) (A) (A)
                 (A) (A) (A) (A) (A) (A) (A) (A) (A) (A) (A) (A)
                 (A) (A) (A) (A) (A) (A) (A) (A) (A) (A) (A) (A)
                 (A) (A) (A) (A) (A) (A) (A) (A) (A) (A) (A) (A)
                 (A) (A) (A) (A) (A) (A) (A) (A) (A) (A) (A) (A)
                 (A) (A) (A) (A) (A) (A) (A) (A) (A) (A) (A) (A)
                 (A) (A) (A) (A) (A) (A) (A) (A) (A) (A) (A) (A)
                 (A) (A) (A) (A) (A) (A) (A) (A) (A) (A) (A) (A)
                 (A) (A) (A) (A) (A) (A) (A) (A) (A) (A) (A) (A)
                 (A) (A) (A) (A) (A) (A) (A) (A) (A) (A) (A) (A)
                 (A) (A) (A) (A) (A) (A) (A) (A) (A) (A) (A) (A)
                 (A) (A) (A) (A) (A) (A) (A) (A) (A) (A) (A) (A)
                 (A) (A) (A) (A) (A) (A) (A) (A) (A) (A) (A) (A)
                 (A) (A) (A) (A) (A) (A) (A) (A) (A) (A) (A) (A)
                 (A) (A) (A) (A) (A) (A) (A) (A) (A) (A) (A) (A)
                 (A) (A) (A) (A) (A) (A) (A) (A) (A) (A) (A) (A)
                 (A) (A) (A) (A) (A) (A) (A) (A) (A) (A) (A) (A)
                 (A) (A) (A) (A) (A) (A) (A) (A) (A) (A) (A) (A)
                 (A) (A) (A) (A) (A) (A) (A) (A) (A) (A) (A) (A)
                 (A) (A) (A) (A) (A) (A) (A) (A) (A) (A) (A) (A)
                 (A) (A) (A) (A) (A) (A) (A) (A) (A) (A) (A) (A)
                 (A) (A) (A) (A) (A) (A) (A) (A) (A) (A) (A) (A)
                 (A) (A) (A) (A) (A) (A) (A) (A) (A) (A) (A) (A)
                 (A) (A) (A) (A) (A) (A) (A) (A) (A) (A) (A) (A)
                 (A) (A) (A) (A) (A) (A) (A) (A) (A) (A) (A) (A)
                 (A) (A) (A) (A) (A) (A) (A) (A) (A) (A) (A) (A)
                 (A) (A) (A) (A) (A) (A) (A) (A) (A) (A) (A) (A)
                 (A) (A) (A) (A) (A) (A) (A) (A) (A) (A) (A) (A)
                 (A) (A) (A) (A) (A) (A) (A) (A) (A) (A) (A) (A)
                 (A) (A) (A) (A) (A) (A) (A) (A) (A) (A) (A) (A)
                 (A) (A) (A) (A) (A) (A) (A) (A) (A) (A) (A) (A)
                 (A) (A) (A) (A) (A) (A) (A)
 The electronic state is 5-A.
 Alpha  occ. eigenvalues -- -256.13437 -30.02312 -25.87617 -25.84572 -25.84343
 Alpha  occ. eigenvalues --  -19.16848 -14.42337 -14.35463 -14.32607 -14.32459
 Alpha  occ. eigenvalues --  -14.32369 -14.32136 -10.25587 -10.23643 -10.21054
 Alpha  occ. eigenvalues --  -10.20981 -10.20963 -10.20939 -10.20902 -10.20859
 Alpha  occ. eigenvalues --  -10.20691 -10.20627 -10.20626 -10.20533 -10.19709
 Alpha  occ. eigenvalues --  -10.19488 -10.18996 -10.18953 -10.18923 -10.18913
 Alpha  occ. eigenvalues --  -10.18879 -10.18836 -10.18695 -10.18612 -10.18601
 Alpha  occ. eigenvalues --  -10.18589 -10.18539 -10.18535 -10.18507 -10.18495
 Alpha  occ. eigenvalues --  -10.18356 -10.18291 -10.18277 -10.18240 -10.18229
 Alpha  occ. eigenvalues --  -10.18119  -3.48270  -2.29339  -2.23204  -2.22712
 Alpha  occ. eigenvalues --   -1.04596  -1.03731  -0.95914  -0.95042  -0.94789
 Alpha  occ. eigenvalues --   -0.93930  -0.90118  -0.81444  -0.81068  -0.80714
 Alpha  occ. eigenvalues --   -0.80112  -0.79729  -0.79535  -0.78771  -0.78700
 Alpha  occ. eigenvalues --   -0.76064  -0.74959  -0.73689  -0.73053  -0.72657
 Alpha  occ. eigenvalues --   -0.71134  -0.70302  -0.69408  -0.67754  -0.67290
 Alpha  occ. eigenvalues --   -0.67093  -0.63954  -0.63325  -0.63209  -0.60503
 Alpha  occ. eigenvalues --   -0.59952  -0.59654  -0.59271  -0.56905  -0.55685
 Alpha  occ. eigenvalues --   -0.55188  -0.53770  -0.52788  -0.52446  -0.51828
 Alpha  occ. eigenvalues --   -0.50231  -0.50158  -0.49604  -0.47968  -0.47134
 Alpha  occ. eigenvalues --   -0.47054  -0.46653  -0.46483  -0.44285  -0.44025
 Alpha  occ. eigenvalues --   -0.43810  -0.43677  -0.43465  -0.42915  -0.42826
 Alpha  occ. eigenvalues --   -0.42673  -0.42620  -0.42393  -0.42101  -0.41923
 Alpha  occ. eigenvalues --   -0.41720  -0.41648  -0.41225  -0.41141  -0.40864
 Alpha  occ. eigenvalues --   -0.40755  -0.40153  -0.39649  -0.39609  -0.39472
 Alpha  occ. eigenvalues --   -0.39078  -0.38946  -0.38404  -0.38393  -0.37737
 Alpha  occ. eigenvalues --   -0.37467  -0.37133  -0.36855  -0.36670  -0.35929
 Alpha  occ. eigenvalues --   -0.35746  -0.35686  -0.35580  -0.34834  -0.34671
 Alpha  occ. eigenvalues --   -0.33626  -0.33392  -0.32907  -0.32274  -0.31980
 Alpha  occ. eigenvalues --   -0.31300  -0.30590  -0.29536  -0.28808  -0.28619
 Alpha  occ. eigenvalues --   -0.27752  -0.27418  -0.26719  -0.25287  -0.25180
 Alpha  occ. eigenvalues --   -0.22845  -0.22163  -0.21383  -0.21132  -0.20194
 Alpha  occ. eigenvalues --   -0.20004  -0.18273  -0.16793  -0.16439  -0.11476
 Alpha virt. eigenvalues --   -0.05562  -0.05202  -0.00794   0.02176   0.03219
 Alpha virt. eigenvalues --    0.04032   0.07029   0.07459   0.07790   0.08455
 Alpha virt. eigenvalues --    0.09261   0.10327   0.10504   0.11121   0.11708
 Alpha virt. eigenvalues --    0.11899   0.12498   0.12785   0.13391   0.14072
 Alpha virt. eigenvalues --    0.14444   0.14866   0.15298   0.15430   0.15754
 Alpha virt. eigenvalues --    0.15842   0.15900   0.16783   0.16922   0.17293
 Alpha virt. eigenvalues --    0.17523   0.17760   0.17939   0.18128   0.18312
 Alpha virt. eigenvalues --    0.18557   0.18767   0.18995   0.19372   0.19692
 Alpha virt. eigenvalues --    0.19842   0.19996   0.20379   0.21007   0.21033
 Alpha virt. eigenvalues --    0.21124   0.21785   0.22112   0.22469   0.23099
 Alpha virt. eigenvalues --    0.23344   0.23491   0.24289   0.24500   0.25099
 Alpha virt. eigenvalues --    0.25712   0.26348   0.27034   0.27538   0.27576
 Alpha virt. eigenvalues --    0.27906   0.28133   0.28637   0.29034   0.30926
 Alpha virt. eigenvalues --    0.31176   0.31829   0.32280   0.32915   0.33584
 Alpha virt. eigenvalues --    0.34309   0.34670   0.34856   0.36199   0.36856
 Alpha virt. eigenvalues --    0.36981   0.37587   0.38120   0.38607   0.39768
 Alpha virt. eigenvalues --    0.41175   0.41766   0.42659   0.43284   0.44327
 Alpha virt. eigenvalues --    0.44941   0.45395   0.45434   0.46035   0.48501
 Alpha virt. eigenvalues --    0.48887   0.49043   0.49957   0.50237   0.50687
 Alpha virt. eigenvalues --    0.51165   0.51584   0.51773   0.52176   0.52428
 Alpha virt. eigenvalues --    0.53211   0.53308   0.53828   0.54006   0.54380
 Alpha virt. eigenvalues --    0.54680   0.54992   0.55075   0.55283   0.56080
 Alpha virt. eigenvalues --    0.56291   0.56881   0.57488   0.57850   0.58196
 Alpha virt. eigenvalues --    0.58630   0.58900   0.59432   0.60030   0.60331
 Alpha virt. eigenvalues --    0.60469   0.60582   0.61166   0.61601   0.62348
 Alpha virt. eigenvalues --    0.62582   0.63136   0.63434   0.64209   0.64418
 Alpha virt. eigenvalues --    0.65162   0.65331   0.65661   0.66117   0.66668
 Alpha virt. eigenvalues --    0.66973   0.67107   0.67373   0.67557   0.68141
 Alpha virt. eigenvalues --    0.68282   0.68477   0.68868   0.69281   0.69842
 Alpha virt. eigenvalues --    0.70248   0.70803   0.71220   0.71661   0.72263
 Alpha virt. eigenvalues --    0.72563   0.73021   0.73683   0.74223   0.75204
 Alpha virt. eigenvalues --    0.75429   0.75811   0.75976   0.76678   0.77124
 Alpha virt. eigenvalues --    0.77510   0.78010   0.78466   0.78613   0.78858
 Alpha virt. eigenvalues --    0.79329   0.79537   0.79897   0.80654   0.81048
 Alpha virt. eigenvalues --    0.81332   0.81552   0.82116   0.82569   0.83259
 Alpha virt. eigenvalues --    0.83520   0.83902   0.84415   0.85677   0.86260
 Alpha virt. eigenvalues --    0.86897   0.87043   0.87137   0.87439   0.87885
 Alpha virt. eigenvalues --    0.88200   0.88421   0.89026   0.89362   0.89498
 Alpha virt. eigenvalues --    0.89818   0.90205   0.90541   0.91236   0.91369
 Alpha virt. eigenvalues --    0.91404   0.91604   0.92350   0.93123   0.93321
 Alpha virt. eigenvalues --    0.93449   0.93808   0.94712   0.94990   0.95118
 Alpha virt. eigenvalues --    0.95704   0.96117   0.96262   0.96533   0.96701
 Alpha virt. eigenvalues --    0.96938   0.97303   0.98225   0.98722   0.99658
 Alpha virt. eigenvalues --    0.99737   1.00078   1.00483   1.00739   1.01212
 Alpha virt. eigenvalues --    1.01292   1.01624   1.01997   1.02359   1.02733
 Alpha virt. eigenvalues --    1.02961   1.03533   1.03993   1.04719   1.05415
 Alpha virt. eigenvalues --    1.05564   1.06433   1.06670   1.07241   1.08210
 Alpha virt. eigenvalues --    1.08819   1.09015   1.09809   1.10665   1.10884
 Alpha virt. eigenvalues --    1.12697   1.13018   1.14314   1.14805   1.15107
 Alpha virt. eigenvalues --    1.16195   1.16897   1.17462   1.18504   1.18722
 Alpha virt. eigenvalues --    1.18954   1.19952   1.20136   1.20297   1.20985
 Alpha virt. eigenvalues --    1.21278   1.21765   1.23039   1.23614   1.24373
 Alpha virt. eigenvalues --    1.24669   1.24846   1.26242   1.26510   1.27519
 Alpha virt. eigenvalues --    1.28333   1.28582   1.29107   1.30375   1.30926
 Alpha virt. eigenvalues --    1.31889   1.32160   1.32663   1.33140   1.33959
 Alpha virt. eigenvalues --    1.35275   1.35541   1.36470   1.36569   1.37809
 Alpha virt. eigenvalues --    1.38420   1.38790   1.39926   1.40552   1.41065
 Alpha virt. eigenvalues --    1.41590   1.41695   1.42136   1.43255   1.44157
 Alpha virt. eigenvalues --    1.45038   1.45489   1.46447   1.47572   1.48344
 Alpha virt. eigenvalues --    1.48735   1.48996   1.49768   1.51288   1.52374
 Alpha virt. eigenvalues --    1.53584   1.53864   1.54619   1.55065   1.55348
 Alpha virt. eigenvalues --    1.55783   1.56669   1.57351   1.57416   1.57950
 Alpha virt. eigenvalues --    1.58179   1.59972   1.60448   1.61301   1.61902
 Alpha virt. eigenvalues --    1.62479   1.64307   1.65089   1.66045   1.66662
 Alpha virt. eigenvalues --    1.67661   1.68966   1.69890   1.70614   1.70984
 Alpha virt. eigenvalues --    1.71051   1.72695   1.73179   1.74181   1.75849
 Alpha virt. eigenvalues --    1.76685   1.77361   1.79890   1.80114   1.80849
 Alpha virt. eigenvalues --    1.81820   1.81984   1.82922   1.83117   1.83350
 Alpha virt. eigenvalues --    1.84194   1.84325   1.85157   1.85562   1.85689
 Alpha virt. eigenvalues --    1.87689   1.87772   1.88261   1.88470   1.89209
 Alpha virt. eigenvalues --    1.89841   1.90574   1.90876   1.91164   1.91762
 Alpha virt. eigenvalues --    1.92520   1.92913   1.93782   1.94152   1.94618
 Alpha virt. eigenvalues --    1.95373   1.95991   1.96734   1.97820   1.99326
 Alpha virt. eigenvalues --    1.99681   2.00518   2.00674   2.00932   2.01321
 Alpha virt. eigenvalues --    2.01745   2.02547   2.03115   2.03815   2.04704
 Alpha virt. eigenvalues --    2.05630   2.06462   2.06669   2.07424   2.08054
 Alpha virt. eigenvalues --    2.08679   2.09353   2.09704   2.10750   2.12602
 Alpha virt. eigenvalues --    2.12776   2.13124   2.13510   2.14833   2.15489
 Alpha virt. eigenvalues --    2.15858   2.16140   2.16441   2.17591   2.17801
 Alpha virt. eigenvalues --    2.18745   2.19784   2.20913   2.21845   2.22942
 Alpha virt. eigenvalues --    2.23425   2.24537   2.24709   2.25073   2.25388
 Alpha virt. eigenvalues --    2.25973   2.26093   2.27013   2.27783   2.28168
 Alpha virt. eigenvalues --    2.28427   2.29099   2.29642   2.30447   2.30708
 Alpha virt. eigenvalues --    2.30982   2.31206   2.31720   2.31947   2.32833
 Alpha virt. eigenvalues --    2.33659   2.34670   2.35847   2.36585   2.37005
 Alpha virt. eigenvalues --    2.37282   2.37537   2.37808   2.38493   2.39176
 Alpha virt. eigenvalues --    2.39734   2.39962   2.41318   2.41575   2.42076
 Alpha virt. eigenvalues --    2.42686   2.43362   2.43707   2.43889   2.44636
 Alpha virt. eigenvalues --    2.44717   2.45016   2.46377   2.47179   2.47196
 Alpha virt. eigenvalues --    2.49130   2.49531   2.50615   2.51390   2.52484
 Alpha virt. eigenvalues --    2.53228   2.53823   2.55562   2.55842   2.56572
 Alpha virt. eigenvalues --    2.57116   2.58414   2.58934   2.59764   2.59831
 Alpha virt. eigenvalues --    2.61288   2.61525   2.63405   2.64172   2.65352
 Alpha virt. eigenvalues --    2.66118   2.67145   2.69095   2.69692   2.69881
 Alpha virt. eigenvalues --    2.70997   2.73700   2.74638   2.75158   2.76815
 Alpha virt. eigenvalues --    2.77400   2.78242   2.79209   2.80553   2.81273
 Alpha virt. eigenvalues --    2.82135   2.83234   2.87020   2.87804   2.88397
 Alpha virt. eigenvalues --    2.90498   2.91609   2.93153   2.93956   2.95439
 Alpha virt. eigenvalues --    2.95917   2.97101   2.98094   3.00080   3.01417
 Alpha virt. eigenvalues --    3.01703   3.06115   3.06883   3.07248   3.09300
 Alpha virt. eigenvalues --    3.14060   3.15469   3.16939   3.22023   3.24336
 Alpha virt. eigenvalues --    3.26579   3.30452   3.31453   3.37937   3.39082
 Alpha virt. eigenvalues --    3.41999   3.45937   3.46974   3.66282   3.71598
 Alpha virt. eigenvalues --    3.90754   3.93893   4.18400   4.28094
  Beta  occ. eigenvalues -- -256.13308 -29.94452 -25.79968 -25.78501 -25.78374
  Beta  occ. eigenvalues --  -19.16735 -14.42324 -14.35286 -14.32479 -14.32339
  Beta  occ. eigenvalues --  -14.32267 -14.32036 -10.25560 -10.23638 -10.21027
  Beta  occ. eigenvalues --  -10.20978 -10.20945 -10.20920 -10.20872 -10.20844
  Beta  occ. eigenvalues --  -10.20657 -10.20615 -10.20610 -10.20494 -10.19711
  Beta  occ. eigenvalues --  -10.19500 -10.18979 -10.18938 -10.18921 -10.18914
  Beta  occ. eigenvalues --  -10.18867 -10.18835 -10.18682 -10.18605 -10.18600
  Beta  occ. eigenvalues --  -10.18581 -10.18540 -10.18518 -10.18504 -10.18495
  Beta  occ. eigenvalues --  -10.18326 -10.18295 -10.18286 -10.18251 -10.18228
  Beta  occ. eigenvalues --  -10.18096  -3.29366  -2.05771  -2.04595  -2.04440
  Beta  occ. eigenvalues --   -1.04485  -1.03549  -0.95784  -0.94909  -0.94674
  Beta  occ. eigenvalues --   -0.93797  -0.89917  -0.81405  -0.81013  -0.80664
  Beta  occ. eigenvalues --   -0.80041  -0.79665  -0.79501  -0.78732  -0.78663
  Beta  occ. eigenvalues --   -0.76036  -0.74926  -0.73662  -0.73034  -0.72647
  Beta  occ. eigenvalues --   -0.71069  -0.70246  -0.69347  -0.67677  -0.67214
  Beta  occ. eigenvalues --   -0.67033  -0.63774  -0.63276  -0.63153  -0.60433
  Beta  occ. eigenvalues --   -0.59893  -0.59501  -0.59209  -0.56837  -0.55612
  Beta  occ. eigenvalues --   -0.55087  -0.53726  -0.52741  -0.52399  -0.51661
  Beta  occ. eigenvalues --   -0.50139  -0.50082  -0.49531  -0.47793  -0.47042
  Beta  occ. eigenvalues --   -0.46926  -0.46465  -0.46366  -0.44062  -0.43948
  Beta  occ. eigenvalues --   -0.43724  -0.43532  -0.43369  -0.42840  -0.42717
  Beta  occ. eigenvalues --   -0.42598  -0.42373  -0.42333  -0.42051  -0.41791
  Beta  occ. eigenvalues --   -0.41630  -0.41618  -0.41133  -0.41002  -0.40844
  Beta  occ. eigenvalues --   -0.40710  -0.39673  -0.39571  -0.39425  -0.39268
  Beta  occ. eigenvalues --   -0.38981  -0.38566  -0.38150  -0.37966  -0.37551
  Beta  occ. eigenvalues --   -0.37279  -0.36955  -0.36612  -0.36092  -0.35784
  Beta  occ. eigenvalues --   -0.35458  -0.34911  -0.34365  -0.34343  -0.33487
  Beta  occ. eigenvalues --   -0.33047  -0.32877  -0.31751  -0.31686  -0.30652
  Beta  occ. eigenvalues --   -0.30398  -0.29149  -0.28954  -0.27993  -0.27591
  Beta  occ. eigenvalues --   -0.27158  -0.25349  -0.25199  -0.22960  -0.22046
  Beta  occ. eigenvalues --   -0.21632  -0.20948  -0.20520  -0.16981  -0.16443
  Beta  occ. eigenvalues --   -0.12439
  Beta virt. eigenvalues --   -0.06087  -0.05684  -0.00800   0.01701   0.02100
  Beta virt. eigenvalues --    0.03818   0.04520   0.04916   0.06529   0.07354
  Beta virt. eigenvalues --    0.08536   0.08802   0.09823   0.10307   0.10762
  Beta virt. eigenvalues --    0.10977   0.11203   0.11797   0.12055   0.12518
  Beta virt. eigenvalues --    0.12877   0.13400   0.14044   0.14468   0.14950
  Beta virt. eigenvalues --    0.15157   0.15454   0.15734   0.15879   0.15952
  Beta virt. eigenvalues --    0.16212   0.16861   0.17061   0.17418   0.17612
  Beta virt. eigenvalues --    0.17825   0.18074   0.18172   0.18521   0.18607
  Beta virt. eigenvalues --    0.18961   0.19130   0.19439   0.19745   0.19904
  Beta virt. eigenvalues --    0.20086   0.20485   0.21059   0.21080   0.21175
  Beta virt. eigenvalues --    0.21814   0.22154   0.22515   0.23170   0.23410
  Beta virt. eigenvalues --    0.23563   0.24416   0.24711   0.25221   0.25858
  Beta virt. eigenvalues --    0.26484   0.27087   0.27593   0.27640   0.27986
  Beta virt. eigenvalues --    0.28174   0.28768   0.29179   0.31125   0.31678
  Beta virt. eigenvalues --    0.32159   0.33058   0.33431   0.34031   0.34590
  Beta virt. eigenvalues --    0.35026   0.35849   0.36436   0.37065   0.37192
  Beta virt. eigenvalues --    0.37757   0.38226   0.38792   0.39946   0.41847
  Beta virt. eigenvalues --    0.42036   0.42950   0.43561   0.44641   0.45073
  Beta virt. eigenvalues --    0.45535   0.45770   0.46194   0.48734   0.49047
  Beta virt. eigenvalues --    0.50126   0.50384   0.50704   0.50921   0.51444
  Beta virt. eigenvalues --    0.51770   0.51977   0.52284   0.52610   0.53284
  Beta virt. eigenvalues --    0.53472   0.53960   0.54115   0.54630   0.54918
  Beta virt. eigenvalues --    0.55051   0.55224   0.55408   0.56168   0.56416
  Beta virt. eigenvalues --    0.57089   0.57626   0.58080   0.58317   0.58709
  Beta virt. eigenvalues --    0.59224   0.59503   0.60170   0.60439   0.60628
  Beta virt. eigenvalues --    0.60764   0.61254   0.61663   0.62605   0.62806
  Beta virt. eigenvalues --    0.63235   0.63514   0.64259   0.64503   0.65370
  Beta virt. eigenvalues --    0.65564   0.65846   0.66247   0.66832   0.67121
  Beta virt. eigenvalues --    0.67283   0.67489   0.67652   0.68243   0.68374
  Beta virt. eigenvalues --    0.68670   0.69022   0.69537   0.69959   0.70503
  Beta virt. eigenvalues --    0.70907   0.71308   0.71766   0.72360   0.72743
  Beta virt. eigenvalues --    0.73203   0.73974   0.74298   0.75364   0.75663
  Beta virt. eigenvalues --    0.76044   0.76202   0.76951   0.77203   0.77658
  Beta virt. eigenvalues --    0.78195   0.78533   0.78720   0.78985   0.79639
  Beta virt. eigenvalues --    0.79772   0.80379   0.80901   0.81141   0.81523
  Beta virt. eigenvalues --    0.82105   0.82340   0.82788   0.83496   0.83828
  Beta virt. eigenvalues --    0.84035   0.84496   0.85759   0.86371   0.86945
  Beta virt. eigenvalues --    0.87141   0.87210   0.87510   0.87942   0.88254
  Beta virt. eigenvalues --    0.88490   0.89223   0.89413   0.89650   0.89952
  Beta virt. eigenvalues --    0.90292   0.90601   0.91361   0.91472   0.91669
  Beta virt. eigenvalues --    0.91736   0.92514   0.93261   0.93397   0.93601
  Beta virt. eigenvalues --    0.93882   0.94819   0.95113   0.95280   0.95812
  Beta virt. eigenvalues --    0.96219   0.96499   0.96643   0.96868   0.97320
  Beta virt. eigenvalues --    0.97541   0.98452   0.98819   0.99797   1.00057
  Beta virt. eigenvalues --    1.00261   1.00570   1.01076   1.01303   1.01493
  Beta virt. eigenvalues --    1.01809   1.02102   1.02492   1.02979   1.03080
  Beta virt. eigenvalues --    1.03719   1.04167   1.04954   1.05584   1.05657
  Beta virt. eigenvalues --    1.06647   1.06933   1.07441   1.08367   1.08929
  Beta virt. eigenvalues --    1.09187   1.10074   1.10840   1.11217   1.12898
  Beta virt. eigenvalues --    1.13153   1.14597   1.14925   1.15429   1.16464
  Beta virt. eigenvalues --    1.17222   1.18205   1.18641   1.19152   1.19331
  Beta virt. eigenvalues --    1.20094   1.20263   1.20559   1.21112   1.21781
  Beta virt. eigenvalues --    1.22603   1.23390   1.23840   1.24547   1.24818
  Beta virt. eigenvalues --    1.24969   1.26484   1.26775   1.27744   1.28663
  Beta virt. eigenvalues --    1.29229   1.30214   1.30725   1.31793   1.32175
  Beta virt. eigenvalues --    1.32340   1.32769   1.33639   1.34264   1.35393
  Beta virt. eigenvalues --    1.35767   1.36575   1.37563   1.37977   1.38534
  Beta virt. eigenvalues --    1.39032   1.40124   1.40687   1.41267   1.41711
  Beta virt. eigenvalues --    1.41893   1.42424   1.43433   1.44464   1.45201
  Beta virt. eigenvalues --    1.45816   1.46618   1.47781   1.48478   1.48868
  Beta virt. eigenvalues --    1.49281   1.49982   1.51413   1.52504   1.53780
  Beta virt. eigenvalues --    1.54090   1.54949   1.55197   1.55505   1.55983
  Beta virt. eigenvalues --    1.56755   1.57540   1.57643   1.58051   1.58317
  Beta virt. eigenvalues --    1.60196   1.60703   1.61436   1.62167   1.62640
  Beta virt. eigenvalues --    1.64547   1.65291   1.66239   1.67098   1.67827
  Beta virt. eigenvalues --    1.69292   1.69994   1.70874   1.71101   1.71282
  Beta virt. eigenvalues --    1.72931   1.73302   1.74539   1.75993   1.76958
  Beta virt. eigenvalues --    1.77473   1.80020   1.80254   1.80979   1.81940
  Beta virt. eigenvalues --    1.82095   1.83050   1.83207   1.83501   1.84282
  Beta virt. eigenvalues --    1.84457   1.85333   1.85633   1.85965   1.87837
  Beta virt. eigenvalues --    1.87986   1.88307   1.88599   1.89258   1.89933
  Beta virt. eigenvalues --    1.90715   1.91029   1.91242   1.91842   1.92610
  Beta virt. eigenvalues --    1.93053   1.93932   1.94387   1.95069   1.95536
  Beta virt. eigenvalues --    1.96231   1.97060   1.98150   1.99614   1.99766
  Beta virt. eigenvalues --    2.00675   2.00826   2.01311   2.01647   2.02342
  Beta virt. eigenvalues --    2.03003   2.03642   2.04109   2.04847   2.05803
  Beta virt. eigenvalues --    2.06618   2.07013   2.07953   2.08534   2.08769
  Beta virt. eigenvalues --    2.09600   2.10109   2.10939   2.12852   2.13083
  Beta virt. eigenvalues --    2.13318   2.13734   2.15005   2.15636   2.15980
  Beta virt. eigenvalues --    2.16436   2.16625   2.17753   2.17952   2.18849
  Beta virt. eigenvalues --    2.20095   2.21131   2.22186   2.23110   2.23591
  Beta virt. eigenvalues --    2.24684   2.25103   2.25392   2.25937   2.26173
  Beta virt. eigenvalues --    2.26389   2.27197   2.27941   2.28291   2.28517
  Beta virt. eigenvalues --    2.29439   2.29748   2.30651   2.30920   2.31096
  Beta virt. eigenvalues --    2.31262   2.31955   2.32351   2.33372   2.34098
  Beta virt. eigenvalues --    2.35148   2.36121   2.37046   2.37280   2.37531
  Beta virt. eigenvalues --    2.37986   2.38222   2.38853   2.39545   2.39905
  Beta virt. eigenvalues --    2.40206   2.41661   2.41977   2.42512   2.42829
  Beta virt. eigenvalues --    2.43639   2.43831   2.44122   2.44883   2.45188
  Beta virt. eigenvalues --    2.45423   2.46786   2.47316   2.47772   2.49691
  Beta virt. eigenvalues --    2.50275   2.51041   2.51671   2.52688   2.53423
  Beta virt. eigenvalues --    2.54876   2.55930   2.56299   2.57328   2.57752
  Beta virt. eigenvalues --    2.58766   2.59668   2.59936   2.60444   2.61544
  Beta virt. eigenvalues --    2.61753   2.63956   2.64534   2.65651   2.66351
  Beta virt. eigenvalues --    2.67335   2.69374   2.69962   2.70328   2.71216
  Beta virt. eigenvalues --    2.73930   2.74756   2.75410   2.76944   2.77636
  Beta virt. eigenvalues --    2.78617   2.79392   2.80635   2.81381   2.82420
  Beta virt. eigenvalues --    2.83498   2.87168   2.87906   2.88530   2.90682
  Beta virt. eigenvalues --    2.91788   2.93337   2.94100   2.95641   2.96027
  Beta virt. eigenvalues --    2.97176   2.98204   3.00161   3.01608   3.01907
  Beta virt. eigenvalues --    3.06239   3.07345   3.07474   3.09683   3.14213
  Beta virt. eigenvalues --    3.15619   3.16994   3.22075   3.24433   3.27199
  Beta virt. eigenvalues --    3.30498   3.31511   3.37983   3.39130   3.42312
  Beta virt. eigenvalues --    3.46079   3.47101   3.78473   3.83672   3.99459
  Beta virt. eigenvalues --    4.00413   4.27083   4.39241
          Condensed to atoms (all electrons):
          Atomic-Atomic Spin Densities.
 Mulliken charges and spin densities:
               1          2
     1  Fe   0.945697   3.705524
     2  N   -0.675514   0.016229
     3  N   -0.655319   0.015593
     4  N   -0.664891   0.011233
     5  N   -0.648118   0.008994
     6  C    0.293105   0.018713
     7  C    0.025221   0.003138
     8  C    0.026280   0.012755
     9  C    0.273098   0.009414
    10  C    0.290996   0.008960
    11  C    0.048497   0.008544
    12  C   -0.038419   0.005806
    13  C    0.293615   0.015553
    14  C    0.281162   0.021744
    15  C    0.036784  -0.003170
    16  C   -0.012420   0.019528
    17  C    0.319344   0.007954
    18  C    0.290956   0.008891
    19  C    0.042165   0.011619
    20  C    0.016518   0.004479
    21  C    0.294544   0.019462
    22  C   -0.298888  -0.014256
    23  H    0.155374   0.000428
    24  C   -0.317412   0.000194
    25  H    0.158470  -0.000299
    26  C   -0.289795  -0.001360
    27  H    0.164021  -0.000017
    28  C   -0.316219  -0.008826
    29  H    0.161068   0.000235
    30  C   -0.605793  -0.000768
    31  H    0.187515   0.000720
    32  H    0.181322   0.000488
    33  H    0.184945   0.000304
    34  C   -0.606926  -0.000100
    35  H    0.187787   0.000074
    36  H    0.187639   0.000326
    37  H    0.180707   0.000327
    38  C   -0.612545  -0.000350
    39  H    0.182941   0.000144
    40  H    0.183211   0.000426
    41  H    0.194839   0.000439
    42  C   -0.132656  -0.001776
    43  H    0.160752   0.000170
    44  C   -0.411185   0.003856
    45  H    0.170781  -0.000198
    46  H    0.163617  -0.000142
    47  C   -0.614357   0.000476
    48  H    0.183423   0.000151
    49  H    0.186721   0.000044
    50  H    0.193978   0.000032
    51  C   -0.146374  -0.009022
    52  H    0.161659   0.000472
    53  C   -0.407537   0.017107
    54  H    0.171667  -0.000859
    55  H    0.162248  -0.000899
    56  C   -0.608743  -0.000842
    57  H    0.187040   0.000690
    58  H    0.187307   0.000528
    59  H    0.180780   0.000328
    60  C   -0.610538  -0.000128
    61  H    0.180938   0.000351
    62  H    0.186289   0.000251
    63  H    0.188012   0.000301
    64  O   -0.827889   0.009193
    65  H    0.464928   0.002566
    66  H    0.442356   0.006085
    67  C   -0.601278   0.000932
    68  H    0.209084   0.000038
    69  H    0.192384   0.000069
    70  H    0.190679   0.000059
    71  N   -0.636663   0.003231
    72  H    0.360327   0.002303
    73  C    0.269076   0.002001
    74  C    0.248804   0.012153
    75  H    0.217408   0.000727
    76  N   -0.468571   0.036102
    77  C   -0.034335   0.003487
    78  H    0.194305   0.001075
 Sum of Mulliken charges =  -0.00000   4.00000
 Mulliken charges and spin densities with hydrogens summed into heavy atoms:
               1          2
     1  Fe   0.945697   3.705524
     2  N   -0.675514   0.016229
     3  N   -0.655319   0.015593
     4  N   -0.664891   0.011233
     5  N   -0.648118   0.008994
     6  C    0.293105   0.018713
     7  C    0.025221   0.003138
     8  C    0.026280   0.012755
     9  C    0.273098   0.009414
    10  C    0.290996   0.008960
    11  C    0.048497   0.008544
    12  C   -0.038419   0.005806
    13  C    0.293615   0.015553
    14  C    0.281162   0.021744
    15  C    0.036784  -0.003170
    16  C   -0.012420   0.019528
    17  C    0.319344   0.007954
    18  C    0.290956   0.008891
    19  C    0.042165   0.011619
    20  C    0.016518   0.004479
    21  C    0.294544   0.019462
    22  C   -0.143514  -0.013828
    24  C   -0.158942  -0.000105
    26  C   -0.125774  -0.001377
    28  C   -0.155151  -0.008591
    30  C   -0.052011   0.000744
    34  C   -0.050793   0.000627
    38  C   -0.051554   0.000659
    42  C    0.028096  -0.001606
    44  C   -0.076786   0.003516
    47  C   -0.050236   0.000703
    51  C    0.015284  -0.008550
    53  C   -0.073622   0.015348
    56  C   -0.053616   0.000704
    60  C   -0.055299   0.000776
    64  O    0.079395   0.017844
    67  C   -0.009131   0.001098
    71  N   -0.276335   0.005534
    73  C    0.269076   0.002001
    74  C    0.466212   0.012880
    76  N   -0.468571   0.036102
    77  C    0.159969   0.004561
 Electronic spatial extent (au):  <R**2>=          19924.7843
 Charge=             -0.0000 electrons
 Dipole moment (field-independent basis, Debye):
    X=              0.8387    Y=             -2.2999    Z=              2.8413  Tot=              3.7505
 Quadrupole moment (field-independent basis, Debye-Ang):
   XX=           -236.3108   YY=           -238.9925   ZZ=           -219.9111
   XY=             -2.4391   XZ=              1.0895   YZ=             -3.7440
 Traceless Quadrupole moment (field-independent basis, Debye-Ang):
   XX=             -4.5727   YY=             -7.2544   ZZ=             11.8271
   XY=             -2.4391   XZ=              1.0895   YZ=             -3.7440
 Octapole moment (field-independent basis, Debye-Ang**2):
  XXX=             -7.8496  YYY=            -20.2028  ZZZ=             81.6606  XYY=              5.8632
  XXY=            -29.7687  XXZ=              6.6568  XZZ=             15.7291  YZZ=            -34.3616
  YYZ=             -9.7937  XYZ=             -0.2483
 Hexadecapole moment (field-independent basis, Debye-Ang**3):
 XXXX=         -11637.2539 YYYY=         -11267.4488 ZZZZ=          -2662.7884 XXXY=            -42.1535
 XXXZ=             77.8147 YYYX=             30.4933 YYYZ=             62.5438 ZZZX=             -0.3159
 ZZZY=           -114.4281 XXYY=          -3890.4460 XXZZ=          -2583.6959 YYZZ=          -2589.9468
 XXYZ=             19.0510 YYXZ=              2.1663 ZZXY=            -38.2575
 N-N= 5.976259463032D+03 E-N=-1.896682729423D+04  KE= 2.973446312065D+03
                          Isotropic Fermi Contact Couplings
        Atom                 a.u.       MegaHertz       Gauss      10(-4) cm-1
     1  Fe(57)             0.42250      15.31999       5.46655       5.11020
     2  N(14)              0.09397       7.59073       2.70856       2.53199
     3  N(14)              0.09173       7.40930       2.64382       2.47148
     4  N(14)              0.08099       6.54200       2.33435       2.18218
     5  N(14)              0.08454       6.82879       2.43668       2.27784
     6  C(13)              0.00438       1.23035       0.43902       0.41040
     7  C(13)              0.00268       0.75265       0.26857       0.25106
     8  C(13)              0.00458       1.28748       0.45940       0.42946
     9  C(13)              0.00479       1.34653       0.48048       0.44915
    10  C(13)              0.00475       1.33610       0.47675       0.44568
    11  C(13)              0.00448       1.25953       0.44943       0.42013
    12  C(13)              0.00353       0.99155       0.35381       0.33075
    13  C(13)              0.00590       1.65871       0.59187       0.55329
    14  C(13)              0.00476       1.33696       0.47706       0.44596
    15  C(13)              0.00184       0.51799       0.18483       0.17278
    16  C(13)              0.00504       1.41661       0.50548       0.47253
    17  C(13)              0.00275       0.77318       0.27589       0.25790
    18  C(13)              0.00228       0.64148       0.22890       0.21398
    19  C(13)              0.00431       1.21262       0.43269       0.40449
    20  C(13)              0.00404       1.13407       0.40466       0.37829
    21  C(13)              0.00845       2.37432       0.84722       0.79199
    22  C(13)             -0.00221      -0.62065      -0.22146      -0.20703
    23  H(1)               0.00013       0.14546       0.05190       0.04852
    24  C(13)              0.00010       0.02888       0.01030       0.00963
    25  H(1)              -0.00010      -0.11304      -0.04034      -0.03771
    26  C(13)             -0.00049      -0.13784      -0.04919      -0.04598
    27  H(1)              -0.00003      -0.03140      -0.01121      -0.01047
    28  C(13)             -0.00111      -0.31154      -0.11117      -0.10392
    29  H(1)               0.00007       0.07816       0.02789       0.02607
    30  C(13)              0.00021       0.05785       0.02064       0.01930
    31  H(1)               0.00035       0.39228       0.13998       0.13085
    32  H(1)               0.00014       0.15625       0.05575       0.05212
    33  H(1)               0.00011       0.12645       0.04512       0.04218
    34  C(13)              0.00036       0.10246       0.03656       0.03418
    35  H(1)               0.00003       0.03678       0.01312       0.01227
    36  H(1)               0.00016       0.18358       0.06550       0.06123
    37  H(1)               0.00007       0.08104       0.02892       0.02703
    38  C(13)              0.00040       0.11276       0.04023       0.03761
    39  H(1)               0.00004       0.04655       0.01661       0.01553
    40  H(1)               0.00020       0.21791       0.07776       0.07269
    41  H(1)               0.00014       0.15606       0.05568       0.05205
    42  C(13)             -0.00016      -0.04486      -0.01601      -0.01497
    43  H(1)               0.00005       0.05067       0.01808       0.01690
    44  C(13)              0.00064       0.17881       0.06381       0.05965
    45  H(1)              -0.00006      -0.06615      -0.02361      -0.02207
    46  H(1)              -0.00004      -0.04844      -0.01729      -0.01616
    47  C(13)              0.00084       0.23468       0.08374       0.07828
    48  H(1)               0.00007       0.07389       0.02637       0.02465
    49  H(1)              -0.00002      -0.01801      -0.00643      -0.00601
    50  H(1)              -0.00008      -0.08595      -0.03067      -0.02867
    51  C(13)             -0.00109      -0.30702      -0.10955      -0.10241
    52  H(1)               0.00017       0.18562       0.06624       0.06192
    53  C(13)              0.00223       0.62778       0.22401       0.20941
    54  H(1)              -0.00026      -0.29426      -0.10500      -0.09815
    55  H(1)              -0.00027      -0.29914      -0.10674      -0.09978
    56  C(13)              0.00007       0.01940       0.00692       0.00647
    57  H(1)               0.00030       0.33765       0.12048       0.11263
    58  H(1)               0.00019       0.21183       0.07559       0.07066
    59  H(1)               0.00007       0.08035       0.02867       0.02680
    60  C(13)              0.00036       0.10170       0.03629       0.03392
    61  H(1)               0.00008       0.09257       0.03303       0.03088
    62  H(1)               0.00009       0.09618       0.03432       0.03208
    63  H(1)               0.00010       0.10716       0.03824       0.03574
    64  O(17)              0.09507     -14.40791      -5.14110      -4.80596
    65  H(1)               0.00018       0.19887       0.07096       0.06634
    66  H(1)               0.00208       2.31880       0.82741       0.77347
    67  C(13)              0.00076       0.21435       0.07649       0.07150
    68  H(1)               0.00004       0.04048       0.01444       0.01350
    69  H(1)               0.00004       0.04449       0.01587       0.01484
    70  H(1)               0.00004       0.04201       0.01499       0.01401
    71  N(14)              0.00843       0.68118       0.24306       0.22722
    72  H(1)               0.00064       0.71501       0.25513       0.23850
    73  C(13)              0.00332       0.93361       0.33314       0.31142
    74  C(13)              0.00570       1.60258       0.57184       0.53456
    75  H(1)               0.00002       0.02178       0.00777       0.00726
    76  N(14)              0.11613       9.38066       3.34725       3.12905
    77  C(13)              0.00299       0.83989       0.29969       0.28016
    78  H(1)               0.00031       0.35182       0.12554       0.11736
 --------------------------------------------------------
       Center         ----  Spin Dipole Couplings  ----
                      3XX-RR        3YY-RR        3ZZ-RR
 --------------------------------------------------------
     1   Atom       -1.082834     -0.999240      2.082074
     2   Atom       -0.016278      0.120557     -0.104279
     3   Atom        0.112765     -0.006550     -0.106215
     4   Atom       -0.023225      0.114312     -0.091088
     5   Atom        0.124848     -0.006223     -0.118624
     6   Atom       -0.026729      0.028778     -0.002050
     7   Atom       -0.006434      0.009389     -0.002955
     8   Atom       -0.004937      0.002235      0.002702
     9   Atom        0.015715     -0.004894     -0.010821
    10   Atom        0.031629     -0.022302     -0.009328
    11   Atom        0.007779     -0.005601     -0.002178
    12   Atom        0.004408     -0.001740     -0.002668
    13   Atom       -0.005709      0.009515     -0.003805
    14   Atom       -0.029654      0.027330      0.002325
    15   Atom       -0.003200      0.014769     -0.011569
    16   Atom       -0.007717     -0.004908      0.012625
    17   Atom        0.012465     -0.003260     -0.009205
    18   Atom        0.031800     -0.023115     -0.008684
    19   Atom        0.006162     -0.009680      0.003518
    20   Atom        0.005949     -0.001382     -0.004567
    21   Atom       -0.008623      0.009286     -0.000662
    22   Atom       -0.004090      0.030354     -0.026264
    23   Atom       -0.004259      0.010884     -0.006626
    24   Atom        0.024229     -0.011015     -0.013214
    25   Atom        0.011427     -0.004969     -0.006458
    26   Atom       -0.011076      0.024208     -0.013132
    27   Atom       -0.004997      0.011720     -0.006723
    28   Atom        0.029397     -0.005721     -0.023676
    29   Atom        0.011378     -0.004578     -0.006800
    30   Atom        0.002853      0.000705     -0.003558
    31   Atom        0.002655     -0.000095     -0.002560
    32   Atom        0.000743      0.001657     -0.002400
    33   Atom        0.003101     -0.000137     -0.002963
    34   Atom       -0.003065      0.006534     -0.003469
    35   Atom       -0.002816      0.005432     -0.002616
    36   Atom       -0.002731      0.005605     -0.002874
    37   Atom       -0.001469      0.003814     -0.002345
    38   Atom        0.006787     -0.003028     -0.003759
    39   Atom        0.005893     -0.003007     -0.002886
    40   Atom        0.005109     -0.002476     -0.002632
    41   Atom        0.003874     -0.001469     -0.002405
    42   Atom        0.001347      0.003025     -0.004372
    43   Atom       -0.000411      0.003561     -0.003150
    44   Atom        0.000361     -0.001231      0.000870
    45   Atom        0.001991     -0.000336     -0.001655
    46   Atom        0.000393      0.000874     -0.001266
    47   Atom       -0.003004      0.006877     -0.003873
    48   Atom       -0.003157      0.006070     -0.002913
    49   Atom       -0.002340      0.005013     -0.002673
    50   Atom       -0.001545      0.003829     -0.002285
    51   Atom        0.005916      0.002991     -0.008908
    52   Atom        0.003567     -0.000486     -0.003081
    53   Atom       -0.005102     -0.003499      0.008601
    54   Atom       -0.000238      0.001932     -0.001694
    55   Atom        0.001735     -0.000259     -0.001476
    56   Atom        0.006728     -0.003063     -0.003665
    57   Atom        0.005570     -0.002779     -0.002790
    58   Atom        0.005712     -0.002847     -0.002865
    59   Atom        0.003957     -0.001536     -0.002421
    60   Atom        0.000710      0.003001     -0.003712
    61   Atom        0.001605      0.000801     -0.002406
    62   Atom       -0.000064      0.002915     -0.002852
    63   Atom       -0.000138      0.002848     -0.002710
    64   Atom       -0.054138     -0.076977      0.131115
    65   Atom       -0.029791     -0.016801      0.046592
    66   Atom       -0.023211     -0.018632      0.041844
    67   Atom       -0.002481     -0.004069      0.006551
    68   Atom       -0.000772     -0.003154      0.003926
    69   Atom       -0.002182     -0.002452      0.004633
    70   Atom       -0.001910     -0.002247      0.004157
    71   Atom       -0.010875     -0.003582      0.014457
    72   Atom       -0.004135     -0.004519      0.008654
    73   Atom       -0.006988     -0.008854      0.015842
    74   Atom       -0.013001     -0.013598      0.026599
    75   Atom        0.001662     -0.014572      0.012910
    76   Atom       -0.111416     -0.112086      0.223503
    77   Atom       -0.005330     -0.022773      0.028103
    78   Atom        0.007704     -0.016874      0.009170
 --------------------------------------------------------
                        XY            XZ            YZ
 --------------------------------------------------------
     1   Atom        0.040581     -0.308227     -1.068520
     2   Atom       -0.127179     -0.003066      0.005002
     3   Atom        0.131264     -0.043927     -0.024086
     4   Atom       -0.112969      0.030595     -0.049204
     5   Atom        0.126897     -0.019295     -0.009165
     6   Atom       -0.007631      0.001423     -0.005416
     7   Atom       -0.007554     -0.005691      0.003868
     8   Atom       -0.011586      0.000537     -0.008514
     9   Atom       -0.026491      0.000219      0.001945
    10   Atom        0.007988     -0.007450     -0.000782
    11   Atom        0.008518      0.000220     -0.004721
    12   Atom        0.011209      0.000506     -0.000784
    13   Atom        0.027322     -0.002179     -0.002313
    14   Atom       -0.005948     -0.005050     -0.001857
    15   Atom       -0.009199     -0.005177      0.001473
    16   Atom       -0.011252     -0.000335     -0.005361
    17   Atom       -0.027033      0.004546      0.000267
    18   Atom        0.009069     -0.006882      0.002025
    19   Atom        0.008396     -0.001638     -0.003648
    20   Atom        0.011409      0.000888      0.000223
    21   Atom        0.026663     -0.001959     -0.002760
    22   Atom        0.009794      0.003477     -0.002392
    23   Atom        0.004083      0.000170      0.000028
    24   Atom       -0.008359     -0.001672      0.006644
    25   Atom       -0.004383     -0.001649      0.000573
    26   Atom        0.011600      0.003021      0.000348
    27   Atom        0.004832      0.000137     -0.000129
    28   Atom       -0.010069      0.003437      0.004925
    29   Atom       -0.004238      0.000636     -0.000031
    30   Atom       -0.005222     -0.000399      0.000225
    31   Atom       -0.003934     -0.001603      0.001052
    32   Atom       -0.003502     -0.000159      0.000209
    33   Atom       -0.004077      0.000789     -0.000441
    34   Atom       -0.001936     -0.000167      0.000837
    35   Atom       -0.000904     -0.000126      0.001856
    36   Atom       -0.001037      0.000060     -0.000887
    37   Atom       -0.002233     -0.000161      0.000511
    38   Atom        0.002094     -0.000359     -0.000055
    39   Atom        0.000908     -0.001781     -0.000091
    40   Atom        0.001184      0.000952      0.000120
    41   Atom        0.002402     -0.000631     -0.000203
    42   Atom        0.004960      0.001705      0.001672
    43   Atom        0.004146      0.000358      0.000577
    44   Atom        0.003102     -0.001121      0.000269
    45   Atom        0.002206      0.000995      0.000598
    46   Atom        0.002085      0.000425      0.000558
    47   Atom       -0.001883      0.000162     -0.000972
    48   Atom       -0.000422      0.000057     -0.002091
    49   Atom       -0.001370     -0.000035      0.000471
    50   Atom       -0.002145      0.000376     -0.001348
    51   Atom       -0.006432      0.001822      0.003153
    52   Atom       -0.004371      0.001420     -0.000882
    53   Atom       -0.000434     -0.005788     -0.008166
    54   Atom       -0.001712      0.000142      0.000529
    55   Atom       -0.002419      0.000349     -0.000614
    56   Atom        0.001940      0.000186     -0.000006
    57   Atom        0.000842      0.001408      0.000100
    58   Atom        0.001038     -0.001424     -0.000094
    59   Atom        0.002299      0.000074      0.000030
    60   Atom        0.005163      0.000320      0.000416
    61   Atom        0.003501      0.000142      0.000152
    62   Atom        0.004070     -0.000655     -0.001037
    63   Atom        0.003965      0.000839      0.001311
    64   Atom        0.005396     -0.028456      0.025664
    65   Atom       -0.012857     -0.023814      0.034520
    66   Atom       -0.000381     -0.002255     -0.013188
    67   Atom       -0.000008     -0.003834     -0.000163
    68   Atom       -0.000196     -0.003910      0.000230
    69   Atom       -0.000150     -0.001617      0.000836
    70   Atom        0.000403     -0.002126     -0.001344
    71   Atom        0.002116      0.001268     -0.002240
    72   Atom       -0.000529      0.002963     -0.002266
    73   Atom       -0.000224     -0.004226     -0.001747
    74   Atom       -0.001712      0.022404     -0.010318
    75   Atom       -0.007770      0.022922     -0.009503
    76   Atom        0.001300     -0.018786     -0.030176
    77   Atom       -0.002165     -0.028825      0.001696
    78   Atom       -0.003726     -0.024975      0.003486
 --------------------------------------------------------


 ---------------------------------------------------------------------------------
              Anisotropic Spin Dipole Couplings in Principal Axis System
 ---------------------------------------------------------------------------------

       Atom             a.u.   MegaHertz   Gauss  10(-4) cm-1        Axes

              Baa    -1.3455   -23.294    -8.312    -7.770  0.2188  0.9258  0.3083
     1 Fe(57) Bbb    -1.0975   -19.001    -6.780    -6.338  0.9719 -0.2348  0.0153
              Bcc     2.4430    42.295    15.092    14.108 -0.0866 -0.2963  0.9512
 
              Baa    -0.1044    -4.026    -1.437    -1.343  0.0147 -0.0139  0.9998
     2 N(14)  Bbb    -0.0923    -3.559    -1.270    -1.187  0.8583  0.5130 -0.0055
              Bcc     0.1967     7.585     2.707     2.530 -0.5129  0.8583  0.0195
 
              Baa    -0.1147    -4.425    -1.579    -1.476  0.2104 -0.0379  0.9769
     3 N(14)  Bbb    -0.0906    -3.493    -1.246    -1.165 -0.5147  0.8453  0.1436
              Bcc     0.2053     7.918     2.825     2.641  0.8312  0.5330 -0.1584
 
              Baa    -0.1034    -3.988    -1.423    -1.330 -0.2275  0.1008  0.9685
     4 N(14)  Bbb    -0.0863    -3.330    -1.188    -1.111  0.8464  0.5122  0.1455
              Bcc     0.1897     7.317     2.611     2.441 -0.4815  0.8529 -0.2019
 
              Baa    -0.1202    -4.634    -1.654    -1.546  0.0873 -0.0171  0.9960
     5 N(14)  Bbb    -0.0834    -3.216    -1.147    -1.073 -0.5154  0.8548  0.0599
              Bcc     0.2035     7.850     2.801     2.618  0.8525  0.5186 -0.0658
 
              Baa    -0.0278    -3.727    -1.330    -1.243  0.9910  0.1311 -0.0272
     6 C(13)  Bbb    -0.0030    -0.399    -0.142    -0.133  0.0047  0.1692  0.9856
              Bcc     0.0308     4.126     1.472     1.376 -0.1338  0.9768 -0.1671
 
              Baa    -0.0115    -1.545    -0.551    -0.515  0.8552  0.2224  0.4681
     7 C(13)  Bbb    -0.0029    -0.383    -0.137    -0.128 -0.3297 -0.4633  0.8226
              Bcc     0.0144     1.928     0.688     0.643 -0.3999  0.8578  0.3229
 
              Baa    -0.0149    -1.993    -0.711    -0.665  0.7219  0.6310  0.2840
     8 C(13)  Bbb    -0.0003    -0.042    -0.015    -0.014 -0.5366  0.2515  0.8055
              Bcc     0.0152     2.035     0.726     0.679 -0.4369  0.7339 -0.5201
 
              Baa    -0.0233    -3.121    -1.114    -1.041  0.5573  0.8187 -0.1379
     9 C(13)  Bbb    -0.0106    -1.422    -0.508    -0.474  0.0947  0.1023  0.9902
              Bcc     0.0339     4.543     1.621     1.515  0.8249 -0.5650 -0.0205
 
              Baa    -0.0235    -3.149    -1.124    -1.050 -0.1464  0.9890 -0.0225
    10 C(13)  Bbb    -0.0106    -1.424    -0.508    -0.475  0.1649  0.0468  0.9852
              Bcc     0.0341     4.573     1.632     1.525  0.9754  0.1405 -0.1699
 
              Baa    -0.0117    -1.576    -0.562    -0.526 -0.3672  0.8307  0.4184
    11 C(13)  Bbb    -0.0004    -0.058    -0.021    -0.019  0.3051 -0.3174  0.8979
              Bcc     0.0122     1.634     0.583     0.545  0.8787  0.4573 -0.1369
 
              Baa    -0.0104    -1.396    -0.498    -0.466 -0.6018  0.7897  0.1195
    12 C(13)  Bbb    -0.0026    -0.343    -0.122    -0.114  0.0762 -0.0922  0.9928
              Bcc     0.0130     1.739     0.620     0.580  0.7950  0.6066 -0.0047
 
              Baa    -0.0265    -3.551    -1.267    -1.185  0.7968 -0.6041  0.0150
    13 C(13)  Bbb    -0.0041    -0.549    -0.196    -0.183  0.0435  0.0820  0.9957
              Bcc     0.0306     4.100     1.463     1.368  0.6027  0.7927 -0.0916
 
              Baa    -0.0311    -4.171    -1.488    -1.391  0.9824  0.1049  0.1543
    14 C(13)  Bbb     0.0031     0.412     0.147     0.137 -0.1589  0.0366  0.9866
              Bcc     0.0280     3.759     1.341     1.254 -0.0979  0.9938 -0.0526
 
              Baa    -0.0143    -1.924    -0.687    -0.642  0.4935  0.1123  0.8624
    15 C(13)  Bbb    -0.0047    -0.628    -0.224    -0.210  0.7711  0.4021 -0.4937
              Bcc     0.0190     2.553     0.911     0.851 -0.4022  0.9087  0.1118
 
              Baa    -0.0181    -2.433    -0.868    -0.812  0.7300  0.6719  0.1251
    16 C(13)  Bbb     0.0035     0.476     0.170     0.159  0.6641 -0.6542 -0.3619
              Bcc     0.0146     1.957     0.698     0.653  0.1613 -0.3473  0.9238
 
              Baa    -0.0241    -3.239    -1.156    -1.080  0.5982  0.7770 -0.1960
    17 C(13)  Bbb    -0.0089    -1.195    -0.426    -0.399  0.0527  0.2059  0.9771
              Bcc     0.0330     4.434     1.582     1.479  0.7996 -0.5948  0.0823
 
              Baa    -0.0252    -3.379    -1.206    -1.127 -0.1768  0.9653 -0.1923
    18 C(13)  Bbb    -0.0091    -1.216    -0.434    -0.405  0.1158  0.2144  0.9699
              Bcc     0.0342     4.594     1.639     1.533  0.9774  0.1493 -0.1497
 
              Baa    -0.0137    -1.843    -0.658    -0.615 -0.3729  0.9144  0.1579
    19 C(13)  Bbb     0.0027     0.367     0.131     0.123  0.4111  0.0102  0.9115
              Bcc     0.0110     1.475     0.526     0.492  0.8318  0.4048 -0.3797
 
              Baa    -0.0097    -1.305    -0.466    -0.435 -0.5897  0.8049  0.0667
    20 C(13)  Bbb    -0.0046    -0.615    -0.219    -0.205  0.0030 -0.0804  0.9968
              Bcc     0.0143     1.920     0.685     0.640  0.8076  0.5880  0.0450
 
              Baa    -0.0278    -3.730    -1.331    -1.244  0.8119 -0.5838 -0.0008
    21 C(13)  Bbb    -0.0011    -0.141    -0.050    -0.047  0.0671  0.0921  0.9935
              Bcc     0.0288     3.871     1.381     1.291  0.5800  0.8066 -0.1139
 
              Baa    -0.0271    -3.633    -1.296    -1.212 -0.1789  0.0714  0.9813
    22 C(13)  Bbb    -0.0059    -0.793    -0.283    -0.264  0.9507 -0.2442  0.1911
              Bcc     0.0330     4.425     1.579     1.476  0.2533  0.9671 -0.0242
 
              Baa    -0.0066    -3.545    -1.265    -1.183 -0.1129  0.0247  0.9933
    23 H(1)   Bbb    -0.0053    -2.812    -1.003    -0.938  0.9630 -0.2436  0.1155
              Bcc     0.0119     6.357     2.268     2.121  0.2448  0.9696  0.0037
 
              Baa    -0.0193    -2.587    -0.923    -0.863 -0.1038 -0.6848  0.7213
    24 C(13)  Bbb    -0.0071    -0.950    -0.339    -0.317  0.2213  0.6911  0.6880
              Bcc     0.0264     3.537     1.262     1.180  0.9697 -0.2311 -0.0798
 
              Baa    -0.0067    -3.551    -1.267    -1.185  0.0232 -0.2668  0.9635
    25 H(1)   Bbb    -0.0060    -3.216    -1.147    -1.073  0.2580  0.9327  0.2521
              Bcc     0.0127     6.767     2.415     2.257  0.9659 -0.2428 -0.0905
 
              Baa    -0.0167    -2.246    -0.801    -0.749  0.7591 -0.2098 -0.6162
    26 C(13)  Bbb    -0.0110    -1.474    -0.526    -0.492  0.5836 -0.2002  0.7870
              Bcc     0.0277     3.719     1.327     1.241  0.2885  0.9570  0.0295
 
              Baa    -0.0068    -3.617    -1.291    -1.207 -0.3095  0.0874  0.9469
    27 H(1)   Bbb    -0.0062    -3.328    -1.187    -1.110  0.9149 -0.2439  0.3216
              Bcc     0.0130     6.945     2.478     2.317  0.2591  0.9658 -0.0045
 
              Baa    -0.0256    -3.435    -1.226    -1.146 -0.1129 -0.2924  0.9496
    28 C(13)  Bbb    -0.0066    -0.880    -0.314    -0.293  0.2286  0.9224  0.3112
              Bcc     0.0322     4.315     1.540     1.439  0.9670 -0.2522  0.0373
 
              Baa    -0.0068    -3.646    -1.301    -1.216 -0.0560 -0.0915  0.9942
    29 H(1)   Bbb    -0.0056    -2.999    -1.070    -1.000  0.2370  0.9661  0.1023
              Bcc     0.0125     6.645     2.371     2.216  0.9699 -0.2414  0.0324
 
              Baa    -0.0036    -0.489    -0.174    -0.163  0.4354  0.4837  0.7592
    30 C(13)  Bbb    -0.0035    -0.468    -0.167    -0.156 -0.4587 -0.6064  0.6495
              Bcc     0.0071     0.957     0.341     0.319  0.7746 -0.6311 -0.0422
 
              Baa    -0.0030    -1.616    -0.576    -0.539  0.4157  0.2433  0.8764
    31 H(1)   Bbb    -0.0029    -1.523    -0.543    -0.508  0.4395  0.7898 -0.4278
              Bcc     0.0059     3.139     1.120     1.047  0.7963 -0.5630 -0.2214
 
              Baa    -0.0024    -1.288    -0.459    -0.430 -0.1395 -0.1701  0.9755
    32 H(1)   Bbb    -0.0023    -1.242    -0.443    -0.414  0.7389  0.6380  0.2169
              Bcc     0.0047     2.530     0.903     0.844 -0.6593  0.7510  0.0367
 
              Baa    -0.0031    -1.647    -0.588    -0.549 -0.2957 -0.2717  0.9158
    33 H(1)   Bbb    -0.0029    -1.532    -0.547    -0.511  0.4838  0.7840  0.3888
              Bcc     0.0060     3.180     1.135     1.061  0.8237 -0.5581  0.1004
 
              Baa    -0.0035    -0.475    -0.169    -0.158  0.0621 -0.0708  0.9956
    34 C(13)  Bbb    -0.0034    -0.462    -0.165    -0.154  0.9798  0.1941 -0.0473
              Bcc     0.0070     0.937     0.334     0.312 -0.1899  0.9784  0.0814
 
              Baa    -0.0031    -1.631    -0.582    -0.544 -0.4315 -0.2363  0.8706
    35 H(1)   Bbb    -0.0029    -1.535    -0.548    -0.512  0.8962 -0.0016  0.4437
              Bcc     0.0059     3.166     1.130     1.056 -0.1035  0.9717  0.2124
 
              Baa    -0.0030    -1.592    -0.568    -0.531  0.3458  0.1376  0.9281
    36 H(1)   Bbb    -0.0028    -1.515    -0.541    -0.505  0.9305  0.0766 -0.3581
              Bcc     0.0058     3.107     1.109     1.036 -0.1204  0.9875 -0.1016
 
              Baa    -0.0024    -1.276    -0.455    -0.426 -0.1895 -0.1481  0.9706
    37 H(1)   Bbb    -0.0023    -1.217    -0.434    -0.406  0.9202  0.3180  0.2282
              Bcc     0.0047     2.493     0.890     0.832 -0.3425  0.9364  0.0760
 
              Baa    -0.0038    -0.506    -0.181    -0.169  0.0436 -0.0484  0.9979
    38 C(13)  Bbb    -0.0035    -0.464    -0.165    -0.155 -0.1981  0.9786  0.0562
              Bcc     0.0072     0.970     0.346     0.323  0.9792  0.2001 -0.0330
 
              Baa    -0.0033    -1.747    -0.623    -0.583  0.2130 -0.4245  0.8800
    39 H(1)   Bbb    -0.0031    -1.630    -0.582    -0.544 -0.0047  0.9002  0.4354
              Bcc     0.0063     3.377     1.205     1.126  0.9770  0.0969 -0.1898
 
              Baa    -0.0028    -1.469    -0.524    -0.490 -0.1503  0.2241  0.9629
    40 H(1)   Bbb    -0.0027    -1.414    -0.505    -0.472 -0.1172  0.9631 -0.2424
              Bcc     0.0054     2.883     1.029     0.962  0.9817  0.1493  0.1185
 
              Baa    -0.0025    -1.323    -0.472    -0.441  0.2137 -0.3229  0.9220
    41 H(1)   Bbb    -0.0024    -1.267    -0.452    -0.423 -0.2990  0.8769  0.3764
              Bcc     0.0049     2.590     0.924     0.864  0.9300  0.3561 -0.0908
 
              Baa    -0.0049    -0.653    -0.233    -0.218 -0.2062 -0.0771  0.9755
    42 C(13)  Bbb    -0.0028    -0.379    -0.135    -0.126  0.7433 -0.6607  0.1049
              Bcc     0.0077     1.031     0.368     0.344  0.6364  0.7467  0.1936
 
              Baa    -0.0032    -1.707    -0.609    -0.569 -0.0152 -0.0758  0.9970
    43 H(1)   Bbb    -0.0030    -1.612    -0.575    -0.538  0.8469 -0.5310 -0.0274
              Bcc     0.0062     3.320     1.184     1.107  0.5315  0.8440  0.0723
 
              Baa    -0.0038    -0.512    -0.183    -0.171 -0.6180  0.7625 -0.1916
    44 C(13)  Bbb     0.0008     0.106     0.038     0.035  0.1510  0.3544  0.9228
              Bcc     0.0030     0.406     0.145     0.135  0.7715  0.5414 -0.3342
 
              Baa    -0.0019    -1.020    -0.364    -0.340 -0.1897 -0.1048  0.9762
    45 H(1)   Bbb    -0.0017    -0.889    -0.317    -0.297 -0.5148  0.8573 -0.0080
              Bcc     0.0036     1.909     0.681     0.637  0.8361  0.5041  0.2165
 
              Baa    -0.0015    -0.796    -0.284    -0.266 -0.6202  0.6501 -0.4390
    46 H(1)   Bbb    -0.0014    -0.725    -0.259    -0.242 -0.4325  0.1835  0.8828
              Bcc     0.0029     1.521     0.543     0.507  0.6544  0.7374  0.1674
 
              Baa    -0.0040    -0.531    -0.190    -0.177  0.0110  0.0913  0.9958
    47 C(13)  Bbb    -0.0034    -0.450    -0.160    -0.150  0.9836  0.1785 -0.0272
              Bcc     0.0073     0.981     0.350     0.327 -0.1803  0.9797 -0.0878
 
              Baa    -0.0034    -1.804    -0.644    -0.602  0.1695  0.2201  0.9606
    48 H(1)   Bbb    -0.0032    -1.691    -0.603    -0.564  0.9846  0.0053 -0.1749
              Bcc     0.0066     3.496     1.247     1.166 -0.0436  0.9755 -0.2158
 
              Baa    -0.0027    -1.451    -0.518    -0.484 -0.3338 -0.1161  0.9355
    49 H(1)   Bbb    -0.0026    -1.370    -0.489    -0.457  0.9259  0.1457  0.3485
              Bcc     0.0053     2.821     1.007     0.941 -0.1767  0.9825  0.0588
 
              Baa    -0.0026    -1.379    -0.492    -0.460  0.2158  0.2694  0.9386
    50 H(1)   Bbb    -0.0023    -1.211    -0.432    -0.404  0.9218  0.2608 -0.2868
              Bcc     0.0049     2.590     0.924     0.864 -0.3221  0.9270 -0.1920
 
              Baa    -0.0105    -1.406    -0.502    -0.469 -0.2293 -0.3243  0.9177
    51 C(13)  Bbb    -0.0006    -0.079    -0.028    -0.026  0.5871  0.7060  0.3962
              Bcc     0.0111     1.485     0.530     0.495  0.7764 -0.6296 -0.0286
 
              Baa    -0.0034    -1.799    -0.642    -0.600 -0.2515 -0.0862  0.9640
    52 H(1)   Bbb    -0.0033    -1.746    -0.623    -0.582  0.4965  0.8435  0.2050
              Bcc     0.0066     3.546     1.265     1.183  0.8308 -0.5302  0.1694
 
              Baa    -0.0100    -1.339    -0.478    -0.447  0.6145  0.6337  0.4700
    53 C(13)  Bbb    -0.0041    -0.545    -0.194    -0.182  0.7460 -0.6605 -0.0849
              Bcc     0.0140     1.883     0.672     0.628 -0.2566 -0.4028  0.8786
 
              Baa    -0.0019    -1.025    -0.366    -0.342 -0.3630 -0.2831  0.8877
    54 H(1)   Bbb    -0.0010    -0.527    -0.188    -0.176  0.8027  0.3888  0.4522
              Bcc     0.0029     1.552     0.554     0.518 -0.4732  0.8768  0.0861
 
              Baa    -0.0021    -1.104    -0.394    -0.368  0.4247  0.7428  0.5175
    55 H(1)   Bbb    -0.0014    -0.729    -0.260    -0.243 -0.3839 -0.3699  0.8460
              Bcc     0.0034     1.833     0.654     0.611  0.8199 -0.5580  0.1281
 
              Baa    -0.0037    -0.493    -0.176    -0.164 -0.0476  0.1608  0.9858
    56 C(13)  Bbb    -0.0034    -0.460    -0.164    -0.153 -0.1821  0.9690 -0.1669
              Bcc     0.0071     0.953     0.340     0.318  0.9821  0.1875  0.0168
 
              Baa    -0.0030    -1.616    -0.577    -0.539 -0.1785  0.2188  0.9593
    57 H(1)   Bbb    -0.0029    -1.523    -0.543    -0.508 -0.0583  0.9709 -0.2323
              Bcc     0.0059     3.139     1.120     1.047  0.9822  0.0974  0.1605
 
              Baa    -0.0031    -1.669    -0.596    -0.557  0.1918 -0.4107  0.8914
    58 H(1)   Bbb    -0.0029    -1.566    -0.559    -0.522 -0.0386  0.9044  0.4250
              Bcc     0.0061     3.235     1.154     1.079  0.9807  0.1159 -0.1576
 
              Baa    -0.0024    -1.292    -0.461    -0.431  0.0079 -0.0540  0.9985
    59 H(1)   Bbb    -0.0024    -1.265    -0.451    -0.422 -0.3416  0.9383  0.0535
              Bcc     0.0048     2.558     0.913     0.853  0.9398  0.3415  0.0110
 
              Baa    -0.0037    -0.502    -0.179    -0.167 -0.0013 -0.0606  0.9982
    60 C(13)  Bbb    -0.0034    -0.461    -0.164    -0.154  0.7805 -0.6240 -0.0368
              Bcc     0.0072     0.962     0.343     0.321  0.6251  0.7791  0.0482
 
              Baa    -0.0024    -1.289    -0.460    -0.430  0.1120 -0.1683  0.9794
    61 H(1)   Bbb    -0.0023    -1.236    -0.441    -0.412 -0.6565  0.7273  0.2000
              Bcc     0.0047     2.525     0.901     0.842  0.7460  0.6654  0.0290
 
              Baa    -0.0030    -1.625    -0.580    -0.542 -0.2370  0.3212  0.9169
    62 H(1)   Bbb    -0.0029    -1.539    -0.549    -0.513  0.7891 -0.4868  0.3746
              Bcc     0.0059     3.164     1.129     1.055  0.5666  0.8123 -0.1381
 
              Baa    -0.0030    -1.608    -0.574    -0.536  0.2188 -0.3515  0.9103
    63 H(1)   Bbb    -0.0029    -1.525    -0.544    -0.509  0.7998 -0.4698 -0.3736
              Bcc     0.0059     3.134     1.118     1.045  0.5590  0.8098  0.1783
 
              Baa    -0.0831     6.015     2.146     2.006 -0.3258  0.9327 -0.1550
    64 O(17)  Bbb    -0.0551     3.985     1.422     1.329  0.9347  0.3424  0.0957
              Bcc     0.1382   -10.000    -3.568    -3.336 -0.1423  0.1137  0.9833
 
              Baa    -0.0379   -20.222    -7.216    -6.745  0.9092  0.4064  0.0902
    65 H(1)   Bbb    -0.0312   -16.657    -5.944    -5.556 -0.3225  0.8247 -0.4646
              Bcc     0.0691    36.879    13.159    12.302 -0.2632  0.3933  0.8809
 
              Baa    -0.0236   -12.588    -4.492    -4.199  0.9352  0.3395  0.1007
    66 H(1)   Bbb    -0.0211   -11.241    -4.011    -3.750 -0.3527  0.9183  0.1799
              Bcc     0.0447    23.829     8.503     7.949 -0.0314 -0.2037  0.9785
 
              Baa    -0.0041    -0.549    -0.196    -0.183  0.2766  0.9542  0.1143
    67 C(13)  Bbb    -0.0039    -0.519    -0.185    -0.173  0.8971 -0.2991  0.3254
              Bcc     0.0080     1.068     0.381     0.356 -0.3446 -0.0125  0.9387
 
              Baa    -0.0032    -1.697    -0.605    -0.566  0.2599  0.9591  0.1120
    68 H(1)   Bbb    -0.0030    -1.584    -0.565    -0.528  0.8307 -0.2812  0.4805
              Bcc     0.0061     3.280     1.170     1.094 -0.4924  0.0318  0.8698
 
              Baa    -0.0026    -1.379    -0.492    -0.460 -0.6682  0.7070 -0.2316
    69 H(1)   Bbb    -0.0025    -1.339    -0.478    -0.447  0.7114  0.6983  0.0794
              Bcc     0.0051     2.717     0.970     0.906 -0.2179  0.1117  0.9696
 
              Baa    -0.0026    -1.380    -0.492    -0.460  0.9034  0.2646  0.3375
    70 H(1)   Bbb    -0.0025    -1.339    -0.478    -0.447 -0.3113  0.9459  0.0914
              Bcc     0.0051     2.719     0.970     0.907 -0.2951 -0.1877  0.9369
 
              Baa    -0.0116    -0.446    -0.159    -0.149  0.9592 -0.2737 -0.0703
    71 N(14)  Bbb    -0.0032    -0.123    -0.044    -0.041  0.2799  0.9547  0.1010
              Bcc     0.0148     0.570     0.203     0.190  0.0395 -0.1166  0.9924
 
              Baa    -0.0049    -2.618    -0.934    -0.873  0.2603  0.9600  0.1035
    72 H(1)   Bbb    -0.0048    -2.551    -0.910    -0.851  0.9418 -0.2288 -0.2463
              Bcc     0.0097     5.169     1.845     1.724  0.2128 -0.1616  0.9637
 
              Baa    -0.0092    -1.229    -0.439    -0.410  0.3328  0.9351  0.1216
    73 C(13)  Bbb    -0.0075    -1.013    -0.361    -0.338  0.9267 -0.3482  0.1414
              Bcc     0.0167     2.242     0.800     0.748 -0.1746 -0.0656  0.9825
 
              Baa    -0.0239    -3.211    -1.146    -1.071  0.8495 -0.2956 -0.4370
    74 C(13)  Bbb    -0.0147    -1.976    -0.705    -0.659  0.3487  0.9362  0.0447
              Bcc     0.0387     5.188     1.851     1.730  0.3959 -0.1903  0.8983
 
              Baa    -0.0177    -9.452    -3.373    -3.153  0.2826  0.9555  0.0850
    75 H(1)   Bbb    -0.0163    -8.683    -3.098    -2.896  0.7490 -0.1645 -0.6418
              Bcc     0.0340    18.135     6.471     6.049  0.5993 -0.2450  0.7621
 
              Baa    -0.1148    -4.429    -1.580    -1.477  0.1552  0.9832  0.0963
    76 N(14)  Bbb    -0.1124    -4.335    -1.547    -1.446  0.9863 -0.1597  0.0408
              Bcc     0.2272     8.764     3.127     2.923 -0.0555 -0.0887  0.9945
 
              Baa    -0.0235    -3.158    -1.127    -1.053  0.4849  0.8401  0.2431
    77 C(13)  Bbb    -0.0213    -2.855    -1.019    -0.952  0.7180 -0.5411  0.4378
              Bcc     0.0448     6.012     2.145     2.005 -0.4993  0.0377  0.8656
 
              Baa    -0.0175    -9.311    -3.322    -3.106  0.2540  0.9606  0.1125
    78 H(1)   Bbb    -0.0165    -8.794    -3.138    -2.934  0.6742 -0.2592  0.6916
              Bcc     0.0339    18.105     6.460     6.039 -0.6935  0.0998  0.7135
 

 ---------------------------------------------------------------------------------

 Unable to Open any file for archive entry.
 1\1\GINC-BGN1007\SP\UAPFD\Gen\C34H36Fe1N6O1(5)\BEBJONES\30-Mar-2024\0\
 \# apfd/gen scf=maxcycle=999 geom=check\\1beq_II_Q\\0,5\Fe,0,-6.125178
 3833,56.6265942263,20.8689266114\N,0,-6.8822569857,55.7286421257,22.51
 09604642\N,0,-7.1275942744,58.2852064659,21.3797842039\N,0,-5.42176017
 58,57.5531690132,19.2595867486\N,0,-5.1689011693,54.9459231693,20.4124
 610751\C,0,-6.7616221957,54.4160759515,22.8457486727\C,0,-7.3463611919
 ,54.1659244396,24.1414471799\C,0,-7.9371352923,55.3322831942,24.524426
 3716\C,0,-7.6106119775,56.3052034174,23.5080418505\C,0,-7.655254846,58
 .5783817729,22.5994888515\C,0,-8.1314243077,59.935715394,22.6486191872
 \C,0,-7.8499299453,60.4851488952,21.4269340323\C,0,-7.1298220963,59.46
 00159389,20.6811264215\C,0,-5.345133469,58.9008131743,19.0878054887\C,
 0,-4.4966423785,59.233738724,17.9765758127\C,0,-3.9249206096,58.056046
 5923,17.568649043\C,0,-4.515105525,57.0227991911,18.3972989543\C,0,-4.
 5177871034,54.7165956236,19.2435924582\C,0,-4.0811911693,53.3390420022
 ,19.1638675521\C,0,-4.6114977352,52.7121488831,20.2455635114\C,0,-5.25
 30362877,53.7405173959,21.0420398961\C,0,-6.100409729,53.4555171388,22
 .0939844586\H,0,-6.1254517473,52.4391005351,22.4566174091\C,0,-7.85960
 83638,57.6597160998,23.6201093956\H,0,-8.3404323015,58.0070595823,24.5
 223072685\C,0,-6.2068159019,59.7938905182,19.7091066675\H,0,-6.1727238
 586,60.8213983679,19.3805568675\C,0,-4.1492523315,55.6888301923,18.333
 2754762\H,0,-3.5251837025,55.381288382,17.5081858089\C,0,-8.703419658,
 55.6392010721,25.765819471\H,0,-8.1445135206,56.3202172227,26.40934880
 53\H,0,-8.9094522951,54.7313976066,26.3274430475\H,0,-9.6534368587,56.
 113241173,25.5203407636\C,0,-7.3497569731,52.8408682085,24.8239401957\
 H,0,-6.330297084,52.4892079921,24.978738101\H,0,-7.8736567599,52.09839
 52317,24.2214848513\H,0,-7.8400589906,52.9040974411,25.7920716842\C,0,
 -8.742520311,60.5837945588,23.8420596268\H,0,-8.2777836272,60.22064535
 1,24.7574251549\H,0,-9.8117612904,60.3707869166,23.8978281096\H,0,-8.6
 092081363,61.6623505273,23.790462596\C,0,-8.1589767788,61.8050859159,2
 0.9290036538\H,0,-7.4919535402,62.1924158962,20.1683092773\C,0,-9.1972
 948967,62.5510497687,21.2965714509\H,0,-9.9337772982,62.2096249098,22.
 0024975854\H,0,-9.3607602433,63.5297729565,20.8767325881\C,0,-4.199200
 2372,60.6196901977,17.5192575636\H,0,-4.1965702314,61.3095495615,18.36
 18187971\H,0,-4.9496851644,60.961509238,16.8045115844\H,0,-3.225099112
 9,60.6528012741,17.0353060766\C,0,-2.9520587891,57.8258647148,16.52496
 36196\H,0,-2.272006633,56.999680916,16.6971638567\C,0,-2.8329172129,58
 .5319755296,15.4046478674\H,0,-3.5079703796,59.3316957319,15.154856705
 6\H,0,-2.0656168203,58.311663391,14.6806923319\C,0,-3.3047332644,52.76
 74684695,18.0274039018\H,0,-2.341728674,53.2701319668,17.9300664543\H,
 0,-3.8470995364,52.8923984957,17.0893166275\H,0,-3.1215873135,51.70602
 81535,18.1788896859\C,0,-4.5178686578,51.2806950968,20.649436025\H,0,-
 3.8989698033,50.7210077991,19.9525134487\H,0,-5.5102770365,50.82786760
 68,20.6662851824\H,0,-4.0857794337,51.1867006375,21.6457771785\O,0,-4.
 397,57.187,22.252\H,0,-4.724,56.649,22.973\H,0,-3.678,57.71,22.27\C,0,
 -9.5956718569,54.5935006304,16.9850930219\H,0,-8.7992560718,54.3638834
 034,16.2841168196\H,0,-10.2895301469,55.2870462024,16.5100133574\H,0,-
 10.1354687122,53.6746098018,17.2143886427\N,0,-9.7902245997,55.5688138
 182,19.2834018631\H,0,-10.7933162271,55.498498616,19.3380769442\C,0,-9
 .017915096,55.185791804,18.2182111024\C,0,-8.9628784229,56.0562525583,
 20.2345088548\H,0,-9.290933798,56.4325750416,21.1812476786\N,0,-7.7148
 292024,56.0050612061,19.8373726512\C,0,-7.7327372657,55.4659470466,18.
 5852621291\H,0,-6.8271152524,55.3189751395,18.034670473\\Version=ES64L
 -G16RevC.02\State=5-A\HF=-2983.3480469\S2=6.019965\S2-1=0.\S2A=6.00010
 9\RMSD=8.458e-09\Dipole=-1.2290299,-0.8098589,0.1042135\Quadrupole=6.5
 074692,-5.1201294,-1.3873399,4.195738,3.5701183,2.2544661\PG=C01 [X(C3
 4H36Fe1N6O1)]\\@
 The archive entry for this job was punched.


 IF OTHER PEOPLE ARE GOING TO TALK, CONVERSATION IS SIMPLY IMPOSSIBLE.

                                               -- WHISTLER'S PRINCIPLE
 Job cpu time:       0 days  8 hours  2 minutes 57.8 seconds.
 Elapsed time:       0 days  0 hours  8 minutes  5.8 seconds.
 File lengths (MBytes):  RWF=    430 Int=      0 D2E=      0 Chk=    155 Scr=      1
 Normal termination of Gaussian 16 at Sat Mar 30 22:30:10 2024.
