 Entering Gaussian System, Link 0=g16
 Input=1bz605.com
 Output=1bz605.log
 Initial command:
 /sw/chem/gaussian/g16_C02/a100/g16/l1.exe "/local/bebjones_7790708/Gau-688326.inp" -scrdir="/local/bebjones_7790708/"
 Entering Link 1 = /sw/chem/gaussian/g16_C02/a100/g16/l1.exe PID=    688327.
  
 Copyright (c) 1988-2021, Gaussian, Inc.  All Rights Reserved.
  
 This is part of the Gaussian(R) 16 program.  It is based on
 the Gaussian(R) 09 system (copyright 2009, Gaussian, Inc.),
 the Gaussian(R) 03 system (copyright 2003, Gaussian, Inc.),
 the Gaussian(R) 98 system (copyright 1998, Gaussian, Inc.),
 the Gaussian(R) 94 system (copyright 1995, Gaussian, Inc.),
 the Gaussian 92(TM) system (copyright 1992, Gaussian, Inc.),
 the Gaussian 90(TM) system (copyright 1990, Gaussian, Inc.),
 the Gaussian 88(TM) system (copyright 1988, Gaussian, Inc.),
 the Gaussian 86(TM) system (copyright 1986, Carnegie Mellon
 University), and the Gaussian 82(TM) system (copyright 1983,
 Carnegie Mellon University). Gaussian is a federally registered
 trademark of Gaussian, Inc.
  
 This software contains proprietary and confidential information,
 including trade secrets, belonging to Gaussian, Inc.
  
 This software is provided under written license and may be
 used, copied, transmitted, or stored only in accord with that
 written license.
  
 The following legend is applicable only to US Government
 contracts under FAR:
  
                    RESTRICTED RIGHTS LEGEND
  
 Use, reproduction and disclosure by the US Government is
 subject to restrictions as set forth in subparagraphs (a)
 and (c) of the Commercial Computer Software - Restricted
 Rights clause in FAR 52.227-19.
  
 Gaussian, Inc.
 340 Quinnipiac St., Bldg. 40, Wallingford CT 06492
  
  
 ---------------------------------------------------------------
 Warning -- This program may not be used in any manner that
 competes with the business of Gaussian, Inc. or will provide
 assistance to any competitor of Gaussian, Inc.  The licensee
 of this program is prohibited from giving any competitor of
 Gaussian, Inc. access to this program.  By using this program,
 the user acknowledges that Gaussian, Inc. is engaged in the
 business of creating and licensing software in the field of
 computational chemistry and represents and warrants to the
 licensee that it is not a competitor of Gaussian, Inc. and that
 it will not use this program in any manner prohibited above.
 ---------------------------------------------------------------
  

 Cite this work as:
 Gaussian 16, Revision C.02,
 M. J. Frisch, G. W. Trucks, H. B. Schlegel, G. E. Scuseria, 
 M. A. Robb, J. R. Cheeseman, G. Scalmani, V. Barone, 
 G. A. Petersson, H. Nakatsuji, X. Li, M. Caricato, A. V. Marenich, 
 J. Bloino, B. G. Janesko, R. Gomperts, B. Mennucci, H. P. Hratchian, 
 J. V. Ortiz, A. F. Izmaylov, J. L. Sonnenberg, D. Williams-Young, 
 F. Ding, F. Lipparini, F. Egidi, J. Goings, B. Peng, A. Petrone, 
 T. Henderson, D. Ranasinghe, V. G. Zakrzewski, J. Gao, N. Rega, 
 G. Zheng, W. Liang, M. Hada, M. Ehara, K. Toyota, R. Fukuda, 
 J. Hasegawa, M. Ishida, T. Nakajima, Y. Honda, O. Kitao, H. Nakai, 
 T. Vreven, K. Throssell, J. A. Montgomery, Jr., J. E. Peralta, 
 F. Ogliaro, M. J. Bearpark, J. J. Heyd, E. N. Brothers, K. N. Kudin, 
 V. N. Staroverov, T. A. Keith, R. Kobayashi, J. Normand, 
 K. Raghavachari, A. P. Rendell, J. C. Burant, S. S. Iyengar, 
 J. Tomasi, M. Cossi, J. M. Millam, M. Klene, C. Adamo, R. Cammi, 
 J. W. Ochterski, R. L. Martin, K. Morokuma, O. Farkas, 
 J. B. Foresman, and D. J. Fox, Gaussian, Inc., Wallingford CT, 2019.
 
 ******************************************
 Gaussian 16:  ES64L-G16RevC.02  7-Dec-2021
                28-Mar-2024 
 ******************************************
 %mem=16GB
 %CPU=0-71
 SetSPE:  set environment variable "OMP_PROC_BIND" = "true"
 SetSPE:  set environment variable "OMP_PLACES" = "{0},{1},{2},{3},{4},{5},{6},{7},{8},{9},{10},{11},{12},{13},{14},{15},{16},{17},{18},{19},{20},{21},{22},{23},{24},{25},{26},{27},{28},{29},{30},{31},{32},{33},{34},{35},{36},{37},{38},{39},{40},{41},{42},{43},{44},{45},{46},{47},{48},{49},{50},{51},{52},{53},{54},{55},{56},{57},{58},{59},{60},{61},{62},{63},{64},{65},{66},{67},{68},{69},{70},{71}"
 Will use up to   72 processors via shared memory.
 %gpucpu=0,1,2,3=0,1,2,3
 Will use    4 GPUs:
 Thread  CPU   GPU
      0    0     0
      1    1     1
      2    2     2
      3    3     3
      4    4    -1
      5    5    -1
      6    6    -1
      7    7    -1
      8    8    -1
      9    9    -1
     10   10    -1
     11   11    -1
     12   12    -1
     13   13    -1
     14   14    -1
     15   15    -1
     16   16    -1
     17   17    -1
     18   18    -1
     19   19    -1
     20   20    -1
     21   21    -1
     22   22    -1
     23   23    -1
     24   24    -1
     25   25    -1
     26   26    -1
     27   27    -1
     28   28    -1
     29   29    -1
     30   30    -1
     31   31    -1
     32   32    -1
     33   33    -1
     34   34    -1
     35   35    -1
     36   36    -1
     37   37    -1
     38   38    -1
     39   39    -1
     40   40    -1
     41   41    -1
     42   42    -1
     43   43    -1
     44   44    -1
     45   45    -1
     46   46    -1
     47   47    -1
     48   48    -1
     49   49    -1
     50   50    -1
     51   51    -1
     52   52    -1
     53   53    -1
     54   54    -1
     55   55    -1
     56   56    -1
     57   57    -1
     58   58    -1
     59   59    -1
     60   60    -1
     61   61    -1
     62   62    -1
     63   63    -1
     64   64    -1
     65   65    -1
     66   66    -1
     67   67    -1
     68   68    -1
     69   69    -1
     70   70    -1
     71   71    -1
 SetGPE:  set environment variable "OMP_PROC_BIND" = "true"
 SetGPE:  set environment variable "OMP_PLACES" = "{0},{1},{2},{3},{4},{5},{6},{7},{8},{9},{10},{11},{12},{13},{14},{15},{16},{17},{18},{19},{20},{21},{22},{23},{24},{25},{26},{27},{28},{29},{30},{31},{32},{33},{34},{35},{36},{37},{38},{39},{40},{41},{42},{43},{44},{45},{46},{47},{48},{49},{50},{51},{52},{53},{54},{55},{56},{57},{58},{59},{60},{61},{62},{63},{64},{65},{66},{67},{68},{69},{70},{71}"
 %oldchk=1bz6_II_S.chk
 %chk=1bz6_II_Qn.chk
 Properties for Device   0
 Minimum vector length:                              32
 Maximum vector length:                            1024
 Number of SMPs:                                    108
 Maximum number of threads per SMP:                2048
 Number of ASync Engines:                             5
 Memory:                                           9192980480
 Properties for Device   1
 Minimum vector length:                              32
 Maximum vector length:                            1024
 Number of SMPs:                                    108
 Maximum number of threads per SMP:                2048
 Number of ASync Engines:                             5
 Memory:                                           9192980480
 Properties for Device   2
 Minimum vector length:                              32
 Maximum vector length:                            1024
 Number of SMPs:                                    108
 Maximum number of threads per SMP:                2048
 Number of ASync Engines:                             5
 Memory:                                           9192980480
 Properties for Device   3
 Minimum vector length:                              32
 Maximum vector length:                            1024
 Number of SMPs:                                    108
 Maximum number of threads per SMP:                2048
 Number of ASync Engines:                             5
 Memory:                                           9192980480
   8273682432 words of memory will be used on each GPU.
 Copying data from "1bz6_II_S.chk" to current chk file "1bz6_II_Qn.chk"
 IOpt=  2 FromEx=T IUOpen= 4 IOptOp= 5 NList=   0 IFRang= 0 IUIn= 4 IUOut= 2.
 ---------------------------------------------------
 # apfd/def2TZVP scf=maxcycle=999 geom=check pop=nbo
 ---------------------------------------------------
 1/29=2,38=1,172=1/1;
 2/12=2,40=1/2;
 3/5=44,7=101,11=2,14=-4,25=1,30=1,74=-44/1,2,3;
 4//1;
 5/5=2,7=999,38=5/2;
 6/7=2,8=2,9=2,10=2,28=1,40=1/1,7;
 99/5=1,9=1/99;
 ---------
 1bz6_II_Q
 ---------
 Structure from the checkpoint file:  "1bz6_II_Qn.chk"
 Charge =  0 Multiplicity = 5
 Z-Matrix found in chk file.
 Fe,0,-0.5332829154,9.4782334547,15.4407824312
 N,0,-1.9035464454,10.7506394522,16.1427569115
 N,0,-1.9879662675,8.1381698314,15.0563437775
 N,0,0.8377420286,8.1395565985,14.8123315415
 N,0,0.9192583936,10.7494860769,15.9306970255
 C,0,-1.6748432449,12.000095935,16.6249222451
 C,0,-2.921434715,12.6704304148,16.923282712
 C,0,-3.9107187728,11.7850276514,16.6290028876
 C,0,-3.2537999688,10.5911606646,16.1431701322
 C,0,-3.3271640458,8.3186086922,15.2201682942
 C,0,-4.0626629009,7.1650853569,14.7680320215
 C,0,-3.1298397709,6.2606059613,14.3358893206
 C,0,-1.8397663972,6.896361726,14.5267344931
 C,0,0.6104747662,6.8609369482,14.4024046729
 C,0,1.8488588076,6.1527486136,14.2110834297
 C,0,2.8478889571,7.0276246988,14.5502649045
 C,0,2.1871445325,8.2652691419,14.9137927559
 C,0,2.2574590233,10.5519950722,15.803867084
 C,0,2.994531904,11.6794835197,16.3342004996
 C,0,2.0650403507,12.5653340168,16.7798687615
 C,0,0.7739370076,11.9675717153,16.5140821273
 C,0,-0.4300903995,12.5671320617,16.8281762654
 H,0,-0.3975501966,13.5545139226,17.2630745331
 C,0,-3.9260411106,9.4566585106,15.7337127193
 H,0,-5.0026018266,9.4614666606,15.8137835127
 C,0,-0.6374588375,6.2907463142,14.2213709191
 H,0,-0.669301568,5.2744995078,13.8594200736
 C,0,2.8584340298,9.3996522414,15.3348795362
 H,0,3.9372659396,9.3667492684,15.3414440101
 C,0,-5.3881499536,11.943203583,16.7502397455
 H,0,-5.640983555,12.9254720267,17.1418217858
 H,0,-5.8001818353,11.1902595037,17.4224589179
 H,0,-5.869777017,11.8273896958,15.7786206199
 C,0,-3.0238186695,14.0581954907,17.4572007043
 H,0,-2.5435944564,14.7651134219,16.7804517338
 H,0,-2.5321490815,14.1329449158,18.4275335798
 H,0,-4.0638658948,14.3514655064,17.5779750208
 C,0,-5.547165652,7.0501924887,14.7349239815
 H,0,-6.0038619962,8.0015922372,14.4652073902
 H,0,-5.9368887987,6.7547456613,15.7105858433
 H,0,-5.8468057359,6.3009240587,14.0049126434
 C,0,-3.3241960007,4.9451718135,13.7673807635
 H,0,-2.6016378408,4.6496955477,13.0152133712
 C,0,-4.291885184,4.0954387569,14.0967062971
 H,0,-5.0089607433,4.3138769011,14.8685923878
 H,0,-4.3835445096,3.1340195644,13.6188439297
 C,0,1.9701381542,4.7600371935,13.6988729363
 H,0,1.2462014836,4.5785278547,12.9058588399
 H,0,1.7888027721,4.0335584711,14.4928769053
 H,0,2.9697364323,4.5937492023,13.3025883736
 C,0,4.2802665936,6.8271562567,14.5435211953
 H,0,4.8744177141,7.6948875427,14.2805669013
 C,0,4.9006110237,5.689728043,14.8398517447
 H,0,4.3652760683,4.8103694812,15.1531220908
 H,0,5.9741181952,5.6060854128,14.8020250303
 C,0,4.4816925471,11.7753044905,16.35800585
 H,0,4.8885871809,11.6810618757,15.3509946423
 H,0,4.9074779836,10.9794579997,16.9700268984
 H,0,4.8016090387,12.7298719277,16.7685893002
 C,0,2.2594989707,13.8936616798,17.4271802781
 H,0,1.770603512,14.677319456,16.8481785419
 H,0,3.3166479528,14.1349021516,17.5060368717
 H,0,1.8311830735,13.8976733669,18.4297517362
 O,0,-0.286,8.505,17.477
 H,0,0.261,7.73,17.348
 H,0,-0.61,8.797,18.252
 C,0,0.5151413313,11.419123524,10.3305392996
 H,0,0.3039149747,12.4681186645,10.1251503044
 H,0,0.1707573494,10.830054684,9.4808276942
 H,0,1.5883533814,11.2934248497,10.4291185193
 N,0,-1.5174401366,10.9834267705,11.7251345337
 H,0,-2.1810100858,11.2684364751,11.023838833
 C,0,-0.1546952702,10.9807060816,11.5811962116
 C,0,-1.7993944012,10.5295018053,12.9675612284
 H,0,-2.7902244602,10.4233586247,13.3587592274
 N,0,-0.6985268414,10.2404318992,13.618292676
 C,0,0.3328442616,10.5170084794,12.7692984134
 H,0,1.3482220054,10.3636372181,13.0699444458
 Recover connectivity data from disk.
 Stoichiometry    C34H36FeN6O(5)
 Framework group  C1[X(C34H36FeN6O)]
 Deg. of freedom   228
 Full point group                 C1      NOp   1
 Largest Abelian subgroup         C1      NOp   1
 Largest concise Abelian subgroup C1      NOp   1
                         Standard orientation:                         
 ---------------------------------------------------------------------
 Center     Atomic      Atomic             Coordinates (Angstroms)
 Number     Number       Type             X           Y           Z
 ---------------------------------------------------------------------
      1         26           0       -0.028235   -0.192327   -0.312320
      2          7           0       -1.266089   -1.747290   -0.510357
      3          7           0       -1.607472    1.058275   -0.353242
      4          7           0        1.204183    1.400307   -0.205659
      5          7           0        1.542536   -1.413818   -0.393651
      6          6           0       -0.915505   -3.059144   -0.555744
      7          6           0       -2.090093   -3.903083   -0.577334
      8          6           0       -3.161672   -3.065944   -0.565585
      9          6           0       -2.625439   -1.722948   -0.524216
     10          6           0       -2.922259    0.710214   -0.408334
     11          6           0       -3.767822    1.875094   -0.344463
     12          6           0       -2.928704    2.954276   -0.265491
     13          6           0       -1.582352    2.413726   -0.271645
     14          6           0        0.852436    2.715517   -0.238107
     15          6           0        2.015535    3.558447   -0.329763
     16          6           0        3.095941    2.717085   -0.387623
     17          6           0        2.559746    1.373528   -0.299033
     18          6           0        2.854798   -1.062212   -0.379073
     19          6           0        3.699658   -2.228648   -0.525358
     20          6           0        2.862091   -3.294565   -0.623376
     21          6           0        1.518155   -2.764714   -0.533912
     22          6           0        0.379108   -3.543580   -0.595132
     23          1           0        0.508845   -4.611997   -0.677426
     24          6           0       -3.406054   -0.584305   -0.496099
     25          1           0       -4.476786   -0.715313   -0.538396
     26          6           0       -0.445575    3.195195   -0.220619
     27          1           0       -0.577179    4.266384   -0.216708
     28          6           0        3.339441    0.231023   -0.338123
     29          1           0        4.409991    0.359655   -0.386900
     30          6           0       -4.616343   -3.391704   -0.583890
     31          1           0       -4.771269   -4.467297   -0.618688
     32          1           0       -5.097323   -2.948180   -1.455967
     33          1           0       -5.110169   -3.003132    0.307495
     34          6           0       -2.055423   -5.392635   -0.615765
     35          1           0       -1.511058   -5.785156    0.243265
     36          1           0       -1.555595   -5.741329   -1.519898
     37          1           0       -3.061660   -5.804431   -0.601506
     38          6           0       -5.256567    1.856373   -0.307953
     39          1           0       -5.619588    1.011750    0.276263
     40          1           0       -5.669898    1.771472   -1.314451
     41          1           0       -5.629992    2.775274    0.139571
     42          6           0       -3.251799    4.360042   -0.161685
     43          1           0       -2.563862    4.955405    0.427753
     44          6           0       -4.296348    4.957411   -0.726479
     45          1           0       -4.986246    4.428230   -1.360300
     46          1           0       -4.482545    6.010349   -0.593316
     47          6           0        1.999262    5.047137   -0.313992
     48          1           0        1.258486    5.415218    0.394294
     49          1           0        1.750861    5.446532   -1.298816
     50          1           0        2.976659    5.428111   -0.025127
     51          6           0        4.502043    3.040095   -0.489986
     52          1           0        5.176791    2.369062    0.029195
     53          6           0        5.009957    4.065484   -1.165991
     54          1           0        4.392785    4.736065   -1.738191
     55          1           0        6.070132    4.256044   -1.189656
     56          6           0        5.189165   -2.188683   -0.559525
     57          1           0        5.581632   -1.726194    0.346339
     58          1           0        5.537668   -1.607178   -1.413710
     59          1           0        5.601650   -3.191571   -0.638248
     60          6           0        3.186803   -4.738739   -0.797171
     61          1           0        2.774414   -5.325690    0.023687
     62          1           0        4.262641   -4.893411   -0.822223
     63          1           0        2.764237   -5.117094   -1.728248
     64          8           0        0.130115    0.063278   -2.562677
     65          1           0        0.598821    0.883996   -2.715030
     66          1           0       -0.161413   -0.499523   -3.186482
     67          6           0        1.186757   -0.208662    5.119471
     68          1           0        1.077738   -1.143572    5.668333
     69          1           0        0.783962    0.595813    5.734441
     70          1           0        2.243007   -0.024247    4.953251
     71          7           0       -0.873885   -0.454175    3.719618
     72          1           0       -1.508962   -0.548730    4.494929
     73          6           0        0.481666   -0.277273    3.814415
     74          6           0       -1.194465   -0.469551    2.405783
     75          1           0       -2.189614   -0.592475    2.030796
     76          7           0       -0.124723   -0.313777    1.663954
     77          6           0        0.925808   -0.194036    2.525964
     78          1           0        1.922481   -0.056523    2.161773
 ---------------------------------------------------------------------
 Rotational constants (GHZ):           0.0926068           0.0911484           0.0593298
 Standard basis: def2TZVP (5D, 7F)
 There are  1744 symmetry adapted cartesian basis functions of A   symmetry.
 There are  1532 symmetry adapted basis functions of A   symmetry.
  1532 basis functions,  2481 primitive gaussians,  1744 cartesian basis functions
   160 alpha electrons      156 beta electrons
       nuclear repulsion energy      5964.0921437341 Hartrees.
 NAtoms=   78 NActive=   78 NUniq=   78 SFac= 1.00D+00 NAtFMM=   60 NAOKFM=T Big=T
 Integral buffers will be    131072 words long.
 Raffenetti 2 integral format.
 Two-electron integral symmetry is turned on.
 R6APFD:  NTU= -4 IXU= 1 FactS= 1.050
 Nuclear repulsion after empirical dispersion term =     5963.9395102147 Hartrees.
 One-electron integrals computed using PRISM.
   1 Symmetry operations used in ECPInt.
 ECPInt:  NShTT=  186355 NPrTT=  576197 LenC2=  147099 LenP2D=  301000.
 LDataN:  DoStor=T MaxTD1= 6 Len=  172
 Number of processors reduced to  23 by ecpmxn.
 NBasis=  1532 RedAO= T EigKep=  3.10D-06  NBF=  1532
 NBsUse=  1532 1.00D-06 EigRej= -1.00D+00 NBFU=  1532
 ExpMin= 4.20D-02 ExpMax= 3.01D+05 ExpMxC= 2.91D+03 IAcc=3 IRadAn=         5 AccDes= 0.00D+00
 Harris functional with IExCor= 3731 and IRadAn=       5 diagonalized for initial guess.
 HarFok:  IExCor= 3731 AccDes= 0.00D+00 IRadAn=         5 IDoV= 1 UseB2=F ITyADJ=14
 ICtDFT=  3500011 ScaDFX=  1.000000  1.000000  1.000000  1.000000
 FoFCou: FMM=F IPFlag=           0 FMFlag=      100000 FMFlg1=        2001
         NFxFlg=           0 DoJE=T BraDBF=F KetDBF=T FulRan=T
         wScrn=  0.000000 ICntrl=       500 IOpCl=  0 I1Cent=   200000004 NGrid=           0
         NMat0=    1 NMatS0=      1 NMatT0=    0 NMatD0=    1 NMtDS0=    0 NMtDT0=    0
 Petite list used in FoFCou.
 Initial guess <Sx>= 0.0000 <Sy>= 0.0000 <Sz>= 2.0000 <S**2>= 6.0000 S= 2.0000
 Requested convergence on RMS density matrix=1.00D-08 within 999 cycles.
 Requested convergence on MAX density matrix=1.00D-06.
 Requested convergence on             energy=1.00D-06.
 No special actions if energy rises.
 EnCoef did     3 forward-backward iterations
 EnCoef did   100 forward-backward iterations
 EnCoef did   100 forward-backward iterations
 EnCoef did   100 forward-backward iterations
 EnCoef did     5 forward-backward iterations
 EnCoef did   100 forward-backward iterations
 Rare condition: small coef for last iteration:  0.000D+00
 Rare condition: small coef for last iteration:  0.000D+00
 Restarting incremental Fock formation.
 Rare condition: small coef for last iteration:  0.000D+00
 Restarting incremental Fock formation.
 Restarting incremental Fock formation.
 Restarting incremental Fock formation.
 Restarting incremental Fock formation.
 SCF Done:  E(UAPFD) =  -2984.00491886     A.U. after  108 cycles
            NFock=108  Conv=0.28D-08     -V/T= 2.0030
 <Sx>= 0.0000 <Sy>= 0.0000 <Sz>= 2.0000 <S**2>= 6.0138 S= 2.0028
 <L.S>=  0.00000000000    
 Annihilation of the first spin contaminant:
 S**2 before annihilation     6.0138,   after     6.0001

 **********************************************************************

            Population analysis using the SCF Density.

 **********************************************************************

 Orbital symmetries:
 Alpha Orbitals:
       Occupied  (A) (A) (A) (A) (A) (A) (A) (A) (A) (A) (A) (A)
                 (A) (A) (A) (A) (A) (A) (A) (A) (A) (A) (A) (A)
                 (A) (A) (A) (A) (A) (A) (A) (A) (A) (A) (A) (A)
                 (A) (A) (A) (A) (A) (A) (A) (A) (A) (A) (A) (A)
                 (A) (A) (A) (A) (A) (A) (A) (A) (A) (A) (A) (A)
                 (A) (A) (A) (A) (A) (A) (A) (A) (A) (A) (A) (A)
                 (A) (A) (A) (A) (A) (A) (A) (A) (A) (A) (A) (A)
                 (A) (A) (A) (A) (A) (A) (A) (A) (A) (A) (A) (A)
                 (A) (A) (A) (A) (A) (A) (A) (A) (A) (A) (A) (A)
                 (A) (A) (A) (A) (A) (A) (A) (A) (A) (A) (A) (A)
                 (A) (A) (A) (A) (A) (A) (A) (A) (A) (A) (A) (A)
                 (A) (A) (A) (A) (A) (A) (A) (A) (A) (A) (A) (A)
                 (A) (A) (A) (A) (A) (A) (A) (A) (A) (A) (A) (A)
                 (A) (A) (A) (A)
       Virtual   (A) (A) (A) (A) (A) (A) (A) (A) (A) (A) (A) (A)
                 (A) (A) (A) (A) (A) (A) (A) (A) (A) (A) (A) (A)
                 (A) (A) (A) (A) (A) (A) (A) (A) (A) (A) (A) (A)
                 (A) (A) (A) (A) (A) (A) (A) (A) (A) (A) (A) (A)
                 (A) (A) (A) (A) (A) (A) (A) (A) (A) (A) (A) (A)
                 (A) (A) (A) (A) (A) (A) (A) (A) (A) (A) (A) (A)
                 (A) (A) (A) (A) (A) (A) (A) (A) (A) (A) (A) (A)
                 (A) (A) (A) (A) (A) (A) (A) (A) (A) (A) (A) (A)
                 (A) (A) (A) (A) (A) (A) (A) (A) (A) (A) (A) (A)
                 (A) (A) (A) (A) (A) (A) (A) (A) (A) (A) (A) (A)
                 (A) (A) (A) (A) (A) (A) (A) (A) (A) (A) (A) (A)
                 (A) (A) (A) (A) (A) (A) (A) (A) (A) (A) (A) (A)
                 (A) (A) (A) (A) (A) (A) (A) (A) (A) (A) (A) (A)
                 (A) (A) (A) (A) (A) (A) (A) (A) (A) (A) (A) (A)
                 (A) (A) (A) (A) (A) (A) (A) (A) (A) (A) (A) (A)
                 (A) (A) (A) (A) (A) (A) (A) (A) (A) (A) (A) (A)
                 (A) (A) (A) (A) (A) (A) (A) (A) (A) (A) (A) (A)
                 (A) (A) (A) (A) (A) (A) (A) (A) (A) (A) (A) (A)
                 (A) (A) (A) (A) (A) (A) (A) (A) (A) (A) (A) (A)
                 (A) (A) (A) (A) (A) (A) (A) (A) (A) (A) (A) (A)
                 (A) (A) (A) (A) (A) (A) (A) (A) (A) (A) (A) (A)
                 (A) (A) (A) (A) (A) (A) (A) (A) (A) (A) (A) (A)
                 (A) (A) (A) (A) (A) (A) (A) (A) (A) (A) (A) (A)
                 (A) (A) (A) (A) (A) (A) (A) (A) (A) (A) (A) (A)
                 (A) (A) (A) (A) (A) (A) (A) (A) (A) (A) (A) (A)
                 (A) (A) (A) (A) (A) (A) (A) (A) (A) (A) (A) (A)
                 (A) (A) (A) (A) (A) (A) (A) (A) (A) (A) (A) (A)
                 (A) (A) (A) (A) (A) (A) (A) (A) (A) (A) (A) (A)
                 (A) (A) (A) (A) (A) (A) (A) (A) (A) (A) (A) (A)
                 (A) (A) (A) (A) (A) (A) (A) (A) (A) (A) (A) (A)
                 (A) (A) (A) (A) (A) (A) (A) (A) (A) (A) (A) (A)
                 (A) (A) (A) (A) (A) (A) (A) (A) (A) (A) (A) (A)
                 (A) (A) (A) (A) (A) (A) (A) (A) (A) (A) (A) (A)
                 (A) (A) (A) (A) (A) (A) (A) (A) (A) (A) (A) (A)
                 (A) (A) (A) (A) (A) (A) (A) (A) (A) (A) (A) (A)
                 (A) (A) (A) (A) (A) (A) (A) (A) (A) (A) (A) (A)
                 (A) (A) (A) (A) (A) (A) (A) (A) (A) (A) (A) (A)
                 (A) (A) (A) (A) (A) (A) (A) (A) (A) (A) (A) (A)
                 (A) (A) (A) (A) (A) (A) (A) (A) (A) (A) (A) (A)
                 (A) (A) (A) (A) (A) (A) (A) (A) (A) (A) (A) (A)
                 (A) (A) (A) (A) (A) (A) (A) (A) (A) (A) (A) (A)
                 (A) (A) (A) (A) (A) (A) (A) (A) (A) (A) (A) (A)
                 (A) (A) (A) (A) (A) (A) (A) (A) (A) (A) (A) (A)
                 (A) (A) (A) (A) (A) (A) (A) (A) (A) (A) (A) (A)
                 (A) (A) (A) (A) (A) (A) (A) (A) (A) (A) (A) (A)
                 (A) (A) (A) (A) (A) (A) (A) (A) (A) (A) (A) (A)
                 (A) (A) (A) (A) (A) (A) (A) (A) (A) (A) (A) (A)
                 (A) (A) (A) (A) (A) (A) (A) (A) (A) (A) (A) (A)
                 (A) (A) (A) (A) (A) (A) (A) (A) (A) (A) (A) (A)
                 (A) (A) (A) (A) (A) (A) (A) (A) (A) (A) (A) (A)
                 (A) (A) (A) (A) (A) (A) (A) (A) (A) (A) (A) (A)
                 (A) (A) (A) (A) (A) (A) (A) (A) (A) (A) (A) (A)
                 (A) (A) (A) (A) (A) (A) (A) (A) (A) (A) (A) (A)
                 (A) (A) (A) (A) (A) (A) (A) (A) (A) (A) (A) (A)
                 (A) (A) (A) (A) (A) (A) (A) (A) (A) (A) (A) (A)
                 (A) (A) (A) (A) (A) (A) (A) (A) (A) (A) (A) (A)
                 (A) (A) (A) (A) (A) (A) (A) (A) (A) (A) (A) (A)
                 (A) (A) (A) (A) (A) (A) (A) (A) (A) (A) (A) (A)
                 (A) (A) (A) (A) (A) (A) (A) (A) (A) (A) (A) (A)
                 (A) (A) (A) (A) (A) (A) (A) (A) (A) (A) (A) (A)
                 (A) (A) (A) (A) (A) (A) (A) (A) (A) (A) (A) (A)
                 (A) (A) (A) (A) (A) (A) (A) (A) (A) (A) (A) (A)
                 (A) (A) (A) (A) (A) (A) (A) (A) (A) (A) (A) (A)
                 (A) (A) (A) (A) (A) (A) (A) (A) (A) (A) (A) (A)
                 (A) (A) (A) (A) (A) (A) (A) (A) (A) (A) (A) (A)
                 (A) (A) (A) (A) (A) (A) (A) (A) (A) (A) (A) (A)
                 (A) (A) (A) (A) (A) (A) (A) (A) (A) (A) (A) (A)
                 (A) (A) (A) (A) (A) (A) (A) (A) (A) (A) (A) (A)
                 (A) (A) (A) (A) (A) (A) (A) (A) (A) (A) (A) (A)
                 (A) (A) (A) (A) (A) (A) (A) (A) (A) (A) (A) (A)
                 (A) (A) (A) (A) (A) (A) (A) (A) (A) (A) (A) (A)
                 (A) (A) (A) (A) (A) (A) (A) (A) (A) (A) (A) (A)
                 (A) (A) (A) (A) (A) (A) (A) (A) (A) (A) (A) (A)
                 (A) (A) (A) (A) (A) (A) (A) (A) (A) (A) (A) (A)
                 (A) (A) (A) (A) (A) (A) (A) (A) (A) (A) (A) (A)
                 (A) (A) (A) (A) (A) (A) (A) (A) (A) (A) (A) (A)
                 (A) (A) (A) (A) (A) (A) (A) (A) (A) (A) (A) (A)
                 (A) (A) (A) (A) (A) (A) (A) (A) (A) (A) (A) (A)
                 (A) (A) (A) (A) (A) (A) (A) (A) (A) (A) (A) (A)
                 (A) (A) (A) (A) (A) (A) (A) (A) (A) (A) (A) (A)
                 (A) (A) (A) (A) (A) (A) (A) (A) (A) (A) (A) (A)
                 (A) (A) (A) (A) (A) (A) (A) (A) (A) (A) (A) (A)
                 (A) (A) (A) (A) (A) (A) (A) (A) (A) (A) (A) (A)
                 (A) (A) (A) (A) (A) (A) (A) (A) (A) (A) (A) (A)
                 (A) (A) (A) (A) (A) (A) (A) (A) (A) (A) (A) (A)
                 (A) (A) (A) (A) (A) (A) (A) (A) (A) (A) (A) (A)
                 (A) (A) (A) (A) (A) (A) (A) (A) (A) (A) (A) (A)
                 (A) (A) (A) (A) (A) (A) (A) (A) (A) (A) (A) (A)
                 (A) (A) (A) (A) (A) (A) (A) (A) (A) (A) (A) (A)
                 (A) (A) (A) (A) (A) (A) (A) (A) (A) (A) (A) (A)
                 (A) (A) (A) (A) (A) (A) (A) (A) (A) (A) (A) (A)
                 (A) (A) (A) (A) (A) (A) (A) (A) (A) (A) (A) (A)
                 (A) (A) (A) (A) (A) (A) (A) (A) (A) (A) (A) (A)
                 (A) (A) (A) (A) (A) (A) (A) (A) (A) (A) (A) (A)
                 (A) (A) (A) (A) (A) (A) (A) (A) (A) (A) (A) (A)
                 (A) (A) (A) (A) (A) (A) (A) (A) (A) (A) (A) (A)
                 (A) (A) (A) (A) (A) (A) (A) (A) (A) (A) (A) (A)
                 (A) (A) (A) (A) (A) (A) (A) (A) (A) (A) (A) (A)
                 (A) (A) (A) (A) (A) (A) (A) (A) (A) (A) (A) (A)
                 (A) (A) (A) (A) (A) (A) (A) (A) (A) (A) (A) (A)
                 (A) (A) (A) (A) (A) (A) (A) (A) (A) (A) (A) (A)
                 (A) (A) (A) (A) (A) (A) (A) (A) (A) (A) (A) (A)
                 (A) (A) (A) (A) (A) (A) (A) (A) (A) (A) (A) (A)
                 (A) (A) (A) (A) (A) (A) (A) (A) (A) (A) (A) (A)
                 (A) (A) (A) (A) (A) (A) (A) (A) (A) (A) (A) (A)
                 (A) (A) (A) (A) (A) (A) (A) (A) (A) (A) (A) (A)
                 (A) (A) (A) (A) (A) (A) (A) (A) (A) (A) (A) (A)
                 (A) (A) (A) (A) (A) (A) (A) (A) (A) (A) (A) (A)
                 (A) (A) (A) (A) (A) (A) (A) (A) (A) (A) (A) (A)
                 (A) (A) (A) (A) (A) (A) (A) (A) (A) (A) (A) (A)
                 (A) (A) (A) (A) (A) (A) (A) (A) (A) (A) (A) (A)
                 (A) (A) (A) (A) (A) (A) (A) (A) (A) (A) (A) (A)
                 (A) (A) (A) (A) (A) (A) (A) (A) (A) (A) (A) (A)
                 (A) (A) (A) (A) (A) (A) (A) (A) (A) (A) (A) (A)
                 (A) (A) (A) (A)
 Beta  Orbitals:
       Occupied  (A) (A) (A) (A) (A) (A) (A) (A) (A) (A) (A) (A)
                 (A) (A) (A) (A) (A) (A) (A) (A) (A) (A) (A) (A)
                 (A) (A) (A) (A) (A) (A) (A) (A) (A) (A) (A) (A)
                 (A) (A) (A) (A) (A) (A) (A) (A) (A) (A) (A) (A)
                 (A) (A) (A) (A) (A) (A) (A) (A) (A) (A) (A) (A)
                 (A) (A) (A) (A) (A) (A) (A) (A) (A) (A) (A) (A)
                 (A) (A) (A) (A) (A) (A) (A) (A) (A) (A) (A) (A)
                 (A) (A) (A) (A) (A) (A) (A) (A) (A) (A) (A) (A)
                 (A) (A) (A) (A) (A) (A) (A) (A) (A) (A) (A) (A)
                 (A) (A) (A) (A) (A) (A) (A) (A) (A) (A) (A) (A)
                 (A) (A) (A) (A) (A) (A) (A) (A) (A) (A) (A) (A)
                 (A) (A) (A) (A) (A) (A) (A) (A) (A) (A) (A) (A)
                 (A) (A) (A) (A) (A) (A) (A) (A) (A) (A) (A) (A)
       Virtual   (A) (A) (A) (A) (A) (A) (A) (A) (A) (A) (A) (A)
                 (A) (A) (A) (A) (A) (A) (A) (A) (A) (A) (A) (A)
                 (A) (A) (A) (A) (A) (A) (A) (A) (A) (A) (A) (A)
                 (A) (A) (A) (A) (A) (A) (A) (A) (A) (A) (A) (A)
                 (A) (A) (A) (A) (A) (A) (A) (A) (A) (A) (A) (A)
                 (A) (A) (A) (A) (A) (A) (A) (A) (A) (A) (A) (A)
                 (A) (A) (A) (A) (A) (A) (A) (A) (A) (A) (A) (A)
                 (A) (A) (A) (A) (A) (A) (A) (A) (A) (A) (A) (A)
                 (A) (A) (A) (A) (A) (A) (A) (A) (A) (A) (A) (A)
                 (A) (A) (A) (A) (A) (A) (A) (A) (A) (A) (A) (A)
                 (A) (A) (A) (A) (A) (A) (A) (A) (A) (A) (A) (A)
                 (A) (A) (A) (A) (A) (A) (A) (A) (A) (A) (A) (A)
                 (A) (A) (A) (A) (A) (A) (A) (A) (A) (A) (A) (A)
                 (A) (A) (A) (A) (A) (A) (A) (A) (A) (A) (A) (A)
                 (A) (A) (A) (A) (A) (A) (A) (A) (A) (A) (A) (A)
                 (A) (A) (A) (A) (A) (A) (A) (A) (A) (A) (A) (A)
                 (A) (A) (A) (A) (A) (A) (A) (A) (A) (A) (A) (A)
                 (A) (A) (A) (A) (A) (A) (A) (A) (A) (A) (A) (A)
                 (A) (A) (A) (A) (A) (A) (A) (A) (A) (A) (A) (A)
                 (A) (A) (A) (A) (A) (A) (A) (A) (A) (A) (A) (A)
                 (A) (A) (A) (A) (A) (A) (A) (A) (A) (A) (A) (A)
                 (A) (A) (A) (A) (A) (A) (A) (A) (A) (A) (A) (A)
                 (A) (A) (A) (A) (A) (A) (A) (A) (A) (A) (A) (A)
                 (A) (A) (A) (A) (A) (A) (A) (A) (A) (A) (A) (A)
                 (A) (A) (A) (A) (A) (A) (A) (A) (A) (A) (A) (A)
                 (A) (A) (A) (A) (A) (A) (A) (A) (A) (A) (A) (A)
                 (A) (A) (A) (A) (A) (A) (A) (A) (A) (A) (A) (A)
                 (A) (A) (A) (A) (A) (A) (A) (A) (A) (A) (A) (A)
                 (A) (A) (A) (A) (A) (A) (A) (A) (A) (A) (A) (A)
                 (A) (A) (A) (A) (A) (A) (A) (A) (A) (A) (A) (A)
                 (A) (A) (A) (A) (A) (A) (A) (A) (A) (A) (A) (A)
                 (A) (A) (A) (A) (A) (A) (A) (A) (A) (A) (A) (A)
                 (A) (A) (A) (A) (A) (A) (A) (A) (A) (A) (A) (A)
                 (A) (A) (A) (A) (A) (A) (A) (A) (A) (A) (A) (A)
                 (A) (A) (A) (A) (A) (A) (A) (A) (A) (A) (A) (A)
                 (A) (A) (A) (A) (A) (A) (A) (A) (A) (A) (A) (A)
                 (A) (A) (A) (A) (A) (A) (A) (A) (A) (A) (A) (A)
                 (A) (A) (A) (A) (A) (A) (A) (A) (A) (A) (A) (A)
                 (A) (A) (A) (A) (A) (A) (A) (A) (A) (A) (A) (A)
                 (A) (A) (A) (A) (A) (A) (A) (A) (A) (A) (A) (A)
                 (A) (A) (A) (A) (A) (A) (A) (A) (A) (A) (A) (A)
                 (A) (A) (A) (A) (A) (A) (A) (A) (A) (A) (A) (A)
                 (A) (A) (A) (A) (A) (A) (A) (A) (A) (A) (A) (A)
                 (A) (A) (A) (A) (A) (A) (A) (A) (A) (A) (A) (A)
                 (A) (A) (A) (A) (A) (A) (A) (A) (A) (A) (A) (A)
                 (A) (A) (A) (A) (A) (A) (A) (A) (A) (A) (A) (A)
                 (A) (A) (A) (A) (A) (A) (A) (A) (A) (A) (A) (A)
                 (A) (A) (A) (A) (A) (A) (A) (A) (A) (A) (A) (A)
                 (A) (A) (A) (A) (A) (A) (A) (A) (A) (A) (A) (A)
                 (A) (A) (A) (A) (A) (A) (A) (A) (A) (A) (A) (A)
                 (A) (A) (A) (A) (A) (A) (A) (A) (A) (A) (A) (A)
                 (A) (A) (A) (A) (A) (A) (A) (A) (A) (A) (A) (A)
                 (A) (A) (A) (A) (A) (A) (A) (A) (A) (A) (A) (A)
                 (A) (A) (A) (A) (A) (A) (A) (A) (A) (A) (A) (A)
                 (A) (A) (A) (A) (A) (A) (A) (A) (A) (A) (A) (A)
                 (A) (A) (A) (A) (A) (A) (A) (A) (A) (A) (A) (A)
                 (A) (A) (A) (A) (A) (A) (A) (A) (A) (A) (A) (A)
                 (A) (A) (A) (A) (A) (A) (A) (A) (A) (A) (A) (A)
                 (A) (A) (A) (A) (A) (A) (A) (A) (A) (A) (A) (A)
                 (A) (A) (A) (A) (A) (A) (A) (A) (A) (A) (A) (A)
                 (A) (A) (A) (A) (A) (A) (A) (A) (A) (A) (A) (A)
                 (A) (A) (A) (A) (A) (A) (A) (A) (A) (A) (A) (A)
                 (A) (A) (A) (A) (A) (A) (A) (A) (A) (A) (A) (A)
                 (A) (A) (A) (A) (A) (A) (A) (A) (A) (A) (A) (A)
                 (A) (A) (A) (A) (A) (A) (A) (A) (A) (A) (A) (A)
                 (A) (A) (A) (A) (A) (A) (A) (A) (A) (A) (A) (A)
                 (A) (A) (A) (A) (A) (A) (A) (A) (A) (A) (A) (A)
                 (A) (A) (A) (A) (A) (A) (A) (A) (A) (A) (A) (A)
                 (A) (A) (A) (A) (A) (A) (A) (A) (A) (A) (A) (A)
                 (A) (A) (A) (A) (A) (A) (A) (A) (A) (A) (A) (A)
                 (A) (A) (A) (A) (A) (A) (A) (A) (A) (A) (A) (A)
                 (A) (A) (A) (A) (A) (A) (A) (A) (A) (A) (A) (A)
                 (A) (A) (A) (A) (A) (A) (A) (A) (A) (A) (A) (A)
                 (A) (A) (A) (A) (A) (A) (A) (A) (A) (A) (A) (A)
                 (A) (A) (A) (A) (A) (A) (A) (A) (A) (A) (A) (A)
                 (A) (A) (A) (A) (A) (A) (A) (A) (A) (A) (A) (A)
                 (A) (A) (A) (A) (A) (A) (A) (A) (A) (A) (A) (A)
                 (A) (A) (A) (A) (A) (A) (A) (A) (A) (A) (A) (A)
                 (A) (A) (A) (A) (A) (A) (A) (A) (A) (A) (A) (A)
                 (A) (A) (A) (A) (A) (A) (A) (A) (A) (A) (A) (A)
                 (A) (A) (A) (A) (A) (A) (A) (A) (A) (A) (A) (A)
                 (A) (A) (A) (A) (A) (A) (A) (A) (A) (A) (A) (A)
                 (A) (A) (A) (A) (A) (A) (A) (A) (A) (A) (A) (A)
                 (A) (A) (A) (A) (A) (A) (A) (A) (A) (A) (A) (A)
                 (A) (A) (A) (A) (A) (A) (A) (A) (A) (A) (A) (A)
                 (A) (A) (A) (A) (A) (A) (A) (A) (A) (A) (A) (A)
                 (A) (A) (A) (A) (A) (A) (A) (A) (A) (A) (A) (A)
                 (A) (A) (A) (A) (A) (A) (A) (A) (A) (A) (A) (A)
                 (A) (A) (A) (A) (A) (A) (A) (A) (A) (A) (A) (A)
                 (A) (A) (A) (A) (A) (A) (A) (A) (A) (A) (A) (A)
                 (A) (A) (A) (A) (A) (A) (A) (A) (A) (A) (A) (A)
                 (A) (A) (A) (A) (A) (A) (A) (A) (A) (A) (A) (A)
                 (A) (A) (A) (A) (A) (A) (A) (A) (A) (A) (A) (A)
                 (A) (A) (A) (A) (A) (A) (A) (A) (A) (A) (A) (A)
                 (A) (A) (A) (A) (A) (A) (A) (A) (A) (A) (A) (A)
                 (A) (A) (A) (A) (A) (A) (A) (A) (A) (A) (A) (A)
                 (A) (A) (A) (A) (A) (A) (A) (A) (A) (A) (A) (A)
                 (A) (A) (A) (A) (A) (A) (A) (A) (A) (A) (A) (A)
                 (A) (A) (A) (A) (A) (A) (A) (A) (A) (A) (A) (A)
                 (A) (A) (A) (A) (A) (A) (A) (A) (A) (A) (A) (A)
                 (A) (A) (A) (A) (A) (A) (A) (A) (A) (A) (A) (A)
                 (A) (A) (A) (A) (A) (A) (A) (A) (A) (A) (A) (A)
                 (A) (A) (A) (A) (A) (A) (A) (A) (A) (A) (A) (A)
                 (A) (A) (A) (A) (A) (A) (A) (A) (A) (A) (A) (A)
                 (A) (A) (A) (A) (A) (A) (A) (A) (A) (A) (A) (A)
                 (A) (A) (A) (A) (A) (A) (A) (A) (A) (A) (A) (A)
                 (A) (A) (A) (A) (A) (A) (A) (A) (A) (A) (A) (A)
                 (A) (A) (A) (A) (A) (A) (A) (A) (A) (A) (A) (A)
                 (A) (A) (A) (A) (A) (A) (A) (A) (A) (A) (A) (A)
                 (A) (A) (A) (A) (A) (A) (A) (A) (A) (A) (A) (A)
                 (A) (A) (A) (A) (A) (A) (A) (A) (A) (A) (A) (A)
                 (A) (A) (A) (A) (A) (A) (A) (A) (A) (A) (A) (A)
                 (A) (A) (A) (A) (A) (A) (A) (A) (A) (A) (A) (A)
                 (A) (A) (A) (A) (A) (A) (A) (A) (A) (A) (A) (A)
                 (A) (A) (A) (A) (A) (A) (A) (A)
 The electronic state is 5-A.
 Alpha  occ. eigenvalues -- -256.14164 -30.02822 -25.88128 -25.85014 -25.84990
 Alpha  occ. eigenvalues --  -19.16488 -14.41729 -14.34965 -14.31681 -14.31410
 Alpha  occ. eigenvalues --  -14.31376 -14.31192 -10.25563 -10.23606 -10.21016
 Alpha  occ. eigenvalues --  -10.20827 -10.20732 -10.20585 -10.20567 -10.20525
 Alpha  occ. eigenvalues --  -10.20499 -10.20485 -10.20398 -10.20387 -10.19529
 Alpha  occ. eigenvalues --  -10.19404 -10.18887 -10.18758 -10.18662 -10.18560
 Alpha  occ. eigenvalues --  -10.18540 -10.18453 -10.18435 -10.18417 -10.18405
 Alpha  occ. eigenvalues --  -10.18360 -10.18296 -10.18287 -10.18280 -10.18223
 Alpha  occ. eigenvalues --  -10.18141 -10.18124 -10.18100 -10.18076 -10.18029
 Alpha  occ. eigenvalues --  -10.17906  -3.48634  -2.29678  -2.23381  -2.23340
 Alpha  occ. eigenvalues --   -1.05251  -1.04684  -0.96356  -0.95494  -0.95286
 Alpha  occ. eigenvalues --   -0.94415  -0.90849  -0.81988  -0.81673  -0.81341
 Alpha  occ. eigenvalues --   -0.80456  -0.80230  -0.80095  -0.79309  -0.79232
 Alpha  occ. eigenvalues --   -0.76574  -0.75521  -0.74109  -0.73667  -0.72957
 Alpha  occ. eigenvalues --   -0.71788  -0.70796  -0.69934  -0.68016  -0.67665
 Alpha  occ. eigenvalues --   -0.67560  -0.64626  -0.63898  -0.63790  -0.61268
 Alpha  occ. eigenvalues --   -0.60490  -0.60172  -0.59807  -0.57645  -0.56195
 Alpha  occ. eigenvalues --   -0.55895  -0.54195  -0.53342  -0.53105  -0.52445
 Alpha  occ. eigenvalues --   -0.50762  -0.50735  -0.50200  -0.48639  -0.47858
 Alpha  occ. eigenvalues --   -0.47639  -0.47491  -0.47190  -0.44882  -0.44645
 Alpha  occ. eigenvalues --   -0.44430  -0.44344  -0.43936  -0.43565  -0.43385
 Alpha  occ. eigenvalues --   -0.43274  -0.43039  -0.42855  -0.42791  -0.42557
 Alpha  occ. eigenvalues --   -0.42449  -0.42227  -0.42029  -0.41503  -0.41383
 Alpha  occ. eigenvalues --   -0.41366  -0.41168  -0.40161  -0.40098  -0.39956
 Alpha  occ. eigenvalues --   -0.39423  -0.39300  -0.39012  -0.38949  -0.38332
 Alpha  occ. eigenvalues --   -0.38077  -0.37724  -0.37458  -0.37190  -0.36787
 Alpha  occ. eigenvalues --   -0.36577  -0.36384  -0.36152  -0.35532  -0.35290
 Alpha  occ. eigenvalues --   -0.34303  -0.34129  -0.33672  -0.33471  -0.32686
 Alpha  occ. eigenvalues --   -0.32443  -0.31566  -0.29969  -0.29763  -0.29316
 Alpha  occ. eigenvalues --   -0.28686  -0.28237  -0.27255  -0.26181  -0.26175
 Alpha  occ. eigenvalues --   -0.23885  -0.22858  -0.21925  -0.21607  -0.21242
 Alpha  occ. eigenvalues --   -0.20907  -0.19116  -0.17650  -0.17315  -0.12346
 Alpha virt. eigenvalues --   -0.06451  -0.06372  -0.01795   0.00614   0.01413
 Alpha virt. eigenvalues --    0.02326   0.02495   0.03359   0.04482   0.04831
 Alpha virt. eigenvalues --    0.05290   0.05843   0.06044   0.06250   0.06479
 Alpha virt. eigenvalues --    0.07084   0.08078   0.08174   0.08368   0.09030
 Alpha virt. eigenvalues --    0.09235   0.09624   0.09854   0.09993   0.10277
 Alpha virt. eigenvalues --    0.10494   0.11188   0.11389   0.11550   0.11684
 Alpha virt. eigenvalues --    0.11948   0.12241   0.12441   0.12712   0.12828
 Alpha virt. eigenvalues --    0.13136   0.13235   0.13530   0.14208   0.14405
 Alpha virt. eigenvalues --    0.14506   0.14567   0.14894   0.15044   0.15067
 Alpha virt. eigenvalues --    0.15596   0.15711   0.15850   0.15998   0.16114
 Alpha virt. eigenvalues --    0.16256   0.16317   0.16746   0.17012   0.17202
 Alpha virt. eigenvalues --    0.17442   0.17847   0.18115   0.18217   0.18641
 Alpha virt. eigenvalues --    0.19361   0.19744   0.19859   0.20082   0.20217
 Alpha virt. eigenvalues --    0.20367   0.20620   0.21110   0.21237   0.21406
 Alpha virt. eigenvalues --    0.21552   0.22006   0.22447   0.22727   0.22781
 Alpha virt. eigenvalues --    0.23112   0.23357   0.23856   0.24065   0.24598
 Alpha virt. eigenvalues --    0.25096   0.25271   0.25521   0.25674   0.25866
 Alpha virt. eigenvalues --    0.26234   0.26549   0.26701   0.27036   0.27397
 Alpha virt. eigenvalues --    0.27579   0.27725   0.27957   0.28164   0.28600
 Alpha virt. eigenvalues --    0.28980   0.29351   0.29674   0.29815   0.30078
 Alpha virt. eigenvalues --    0.30264   0.30329   0.30761   0.31098   0.31383
 Alpha virt. eigenvalues --    0.31440   0.31913   0.32101   0.32385   0.32669
 Alpha virt. eigenvalues --    0.33120   0.33394   0.33476   0.33890   0.34281
 Alpha virt. eigenvalues --    0.34480   0.34658   0.34836   0.34990   0.35200
 Alpha virt. eigenvalues --    0.35597   0.35910   0.36302   0.36486   0.36883
 Alpha virt. eigenvalues --    0.37346   0.37421   0.37775   0.38107   0.38215
 Alpha virt. eigenvalues --    0.38584   0.38801   0.38928   0.39059   0.39328
 Alpha virt. eigenvalues --    0.39400   0.39907   0.40112   0.40339   0.40556
 Alpha virt. eigenvalues --    0.40788   0.40850   0.41145   0.41517   0.41668
 Alpha virt. eigenvalues --    0.41836   0.42173   0.42290   0.42575   0.42628
 Alpha virt. eigenvalues --    0.42854   0.43238   0.43304   0.43473   0.43725
 Alpha virt. eigenvalues --    0.44014   0.44192   0.44462   0.44743   0.44983
 Alpha virt. eigenvalues --    0.45056   0.45254   0.45652   0.45781   0.46020
 Alpha virt. eigenvalues --    0.46322   0.46357   0.46449   0.47000   0.47250
 Alpha virt. eigenvalues --    0.47418   0.47614   0.47842   0.48148   0.48188
 Alpha virt. eigenvalues --    0.48367   0.48483   0.48710   0.49121   0.49237
 Alpha virt. eigenvalues --    0.49445   0.49535   0.49625   0.49857   0.50290
 Alpha virt. eigenvalues --    0.50531   0.50681   0.51234   0.51334   0.51513
 Alpha virt. eigenvalues --    0.51886   0.51954   0.52154   0.52679   0.52703
 Alpha virt. eigenvalues --    0.52924   0.53157   0.53219   0.53459   0.53839
 Alpha virt. eigenvalues --    0.54233   0.54370   0.54615   0.54865   0.55122
 Alpha virt. eigenvalues --    0.55217   0.55681   0.56046   0.56268   0.56621
 Alpha virt. eigenvalues --    0.56868   0.56944   0.57143   0.57562   0.57954
 Alpha virt. eigenvalues --    0.58035   0.58582   0.58843   0.59104   0.59415
 Alpha virt. eigenvalues --    0.59721   0.60129   0.60264   0.60710   0.60896
 Alpha virt. eigenvalues --    0.61126   0.61356   0.61943   0.62080   0.62407
 Alpha virt. eigenvalues --    0.62775   0.62834   0.63164   0.63798   0.64034
 Alpha virt. eigenvalues --    0.64256   0.64538   0.64801   0.65045   0.65213
 Alpha virt. eigenvalues --    0.65403   0.66089   0.66197   0.66398   0.66634
 Alpha virt. eigenvalues --    0.66906   0.67141   0.67278   0.67973   0.68099
 Alpha virt. eigenvalues --    0.68457   0.68845   0.69102   0.69589   0.69909
 Alpha virt. eigenvalues --    0.70553   0.71030   0.71556   0.71908   0.72175
 Alpha virt. eigenvalues --    0.72375   0.72584   0.72823   0.73243   0.73653
 Alpha virt. eigenvalues --    0.73992   0.74131   0.74454   0.74563   0.74907
 Alpha virt. eigenvalues --    0.75327   0.75531   0.76052   0.76165   0.76699
 Alpha virt. eigenvalues --    0.77232   0.77251   0.77333   0.78252   0.78632
 Alpha virt. eigenvalues --    0.78912   0.79200   0.79310   0.79556   0.79664
 Alpha virt. eigenvalues --    0.80198   0.80555   0.80765   0.81158   0.81464
 Alpha virt. eigenvalues --    0.81760   0.81877   0.82436   0.82928   0.83502
 Alpha virt. eigenvalues --    0.84023   0.84413   0.84733   0.85355   0.85495
 Alpha virt. eigenvalues --    0.85641   0.86218   0.86866   0.87072   0.87732
 Alpha virt. eigenvalues --    0.87959   0.88250   0.88649   0.89284   0.89363
 Alpha virt. eigenvalues --    0.89965   0.90164   0.90524   0.91025   0.91378
 Alpha virt. eigenvalues --    0.91765   0.91960   0.92672   0.93002   0.93383
 Alpha virt. eigenvalues --    0.93557   0.93786   0.93986   0.94788   0.94860
 Alpha virt. eigenvalues --    0.95332   0.95553   0.96023   0.96278   0.96714
 Alpha virt. eigenvalues --    0.97274   0.97839   0.98116   0.98199   0.98441
 Alpha virt. eigenvalues --    0.99057   0.99137   0.99550   0.99705   1.00782
 Alpha virt. eigenvalues --    1.01083   1.01346   1.01610   1.01993   1.02114
 Alpha virt. eigenvalues --    1.02471   1.02701   1.03030   1.03212   1.03466
 Alpha virt. eigenvalues --    1.03908   1.04148   1.04216   1.04459   1.04718
 Alpha virt. eigenvalues --    1.04765   1.05151   1.05869   1.05947   1.06276
 Alpha virt. eigenvalues --    1.06781   1.07466   1.08090   1.08595   1.08889
 Alpha virt. eigenvalues --    1.09096   1.09625   1.09726   1.10224   1.10700
 Alpha virt. eigenvalues --    1.11018   1.11447   1.11800   1.12281   1.12775
 Alpha virt. eigenvalues --    1.13264   1.14057   1.14120   1.14683   1.15730
 Alpha virt. eigenvalues --    1.16097   1.16404   1.16831   1.17137   1.17431
 Alpha virt. eigenvalues --    1.17948   1.17979   1.18554   1.19057   1.19136
 Alpha virt. eigenvalues --    1.19621   1.20451   1.20587   1.20882   1.21155
 Alpha virt. eigenvalues --    1.21653   1.22023   1.22211   1.22710   1.23126
 Alpha virt. eigenvalues --    1.23398   1.24012   1.24254   1.24970   1.25670
 Alpha virt. eigenvalues --    1.26467   1.26802   1.27140   1.27466   1.27751
 Alpha virt. eigenvalues --    1.27970   1.28730   1.29018   1.29153   1.29489
 Alpha virt. eigenvalues --    1.29614   1.29810   1.30185   1.30961   1.31357
 Alpha virt. eigenvalues --    1.31765   1.32040   1.32439   1.32681   1.32958
 Alpha virt. eigenvalues --    1.33402   1.33825   1.34748   1.35471   1.36139
 Alpha virt. eigenvalues --    1.37125   1.37163   1.38006   1.38279   1.38995
 Alpha virt. eigenvalues --    1.39538   1.40011   1.40334   1.41023   1.41281
 Alpha virt. eigenvalues --    1.41549   1.41868   1.42897   1.43480   1.44395
 Alpha virt. eigenvalues --    1.44668   1.45371   1.45787   1.46210   1.46861
 Alpha virt. eigenvalues --    1.47112   1.47494   1.47898   1.48075   1.48659
 Alpha virt. eigenvalues --    1.49070   1.49272   1.49495   1.49595   1.49980
 Alpha virt. eigenvalues --    1.50374   1.50753   1.50880   1.51144   1.51475
 Alpha virt. eigenvalues --    1.51596   1.51748   1.52322   1.52407   1.52802
 Alpha virt. eigenvalues --    1.53387   1.53547   1.53860   1.54171   1.54292
 Alpha virt. eigenvalues --    1.54300   1.54714   1.54842   1.55340   1.55393
 Alpha virt. eigenvalues --    1.55616   1.55722   1.55907   1.56194   1.56558
 Alpha virt. eigenvalues --    1.56941   1.57231   1.57454   1.57911   1.58048
 Alpha virt. eigenvalues --    1.58201   1.58498   1.58835   1.59154   1.59406
 Alpha virt. eigenvalues --    1.59551   1.59989   1.60211   1.60632   1.61007
 Alpha virt. eigenvalues --    1.61464   1.61684   1.61979   1.62646   1.62983
 Alpha virt. eigenvalues --    1.63112   1.63451   1.63793   1.63946   1.64231
 Alpha virt. eigenvalues --    1.64480   1.64900   1.65175   1.65599   1.65736
 Alpha virt. eigenvalues --    1.66086   1.66200   1.66513   1.66725   1.67195
 Alpha virt. eigenvalues --    1.67726   1.67957   1.68361   1.68805   1.69177
 Alpha virt. eigenvalues --    1.69404   1.69767   1.70386   1.70755   1.70929
 Alpha virt. eigenvalues --    1.71141   1.71203   1.71736   1.71994   1.73018
 Alpha virt. eigenvalues --    1.73473   1.73987   1.74107   1.74601   1.74930
 Alpha virt. eigenvalues --    1.75488   1.75773   1.76530   1.76764   1.77630
 Alpha virt. eigenvalues --    1.78035   1.79204   1.79445   1.80136   1.80680
 Alpha virt. eigenvalues --    1.80864   1.81454   1.82590   1.82789   1.83656
 Alpha virt. eigenvalues --    1.84151   1.84358   1.84804   1.85122   1.85281
 Alpha virt. eigenvalues --    1.85758   1.85963   1.86322   1.86497   1.87310
 Alpha virt. eigenvalues --    1.87749   1.87809   1.88180   1.88615   1.89035
 Alpha virt. eigenvalues --    1.89223   1.89669   1.90149   1.90221   1.91772
 Alpha virt. eigenvalues --    1.92067   1.92844   1.93093   1.93818   1.94158
 Alpha virt. eigenvalues --    1.94880   1.95071   1.95439   1.95935   1.96649
 Alpha virt. eigenvalues --    1.96950   1.97829   1.98477   1.98689   1.98896
 Alpha virt. eigenvalues --    1.99207   1.99376   1.99733   2.00158   2.00779
 Alpha virt. eigenvalues --    2.01221   2.01506   2.01914   2.02891   2.03120
 Alpha virt. eigenvalues --    2.03407   2.04284   2.04704   2.05074   2.05382
 Alpha virt. eigenvalues --    2.06419   2.07088   2.07152   2.07536   2.08561
 Alpha virt. eigenvalues --    2.08800   2.08948   2.09324   2.09923   2.09996
 Alpha virt. eigenvalues --    2.10554   2.10843   2.11293   2.12018   2.12484
 Alpha virt. eigenvalues --    2.12714   2.13672   2.14132   2.14259   2.14642
 Alpha virt. eigenvalues --    2.14889   2.15289   2.15970   2.16445   2.16810
 Alpha virt. eigenvalues --    2.17020   2.18085   2.18219   2.18970   2.19591
 Alpha virt. eigenvalues --    2.19894   2.20110   2.20351   2.20577   2.21260
 Alpha virt. eigenvalues --    2.21872   2.22116   2.22788   2.22975   2.23822
 Alpha virt. eigenvalues --    2.24738   2.25249   2.25745   2.26260   2.26699
 Alpha virt. eigenvalues --    2.27176   2.27449   2.27620   2.28012   2.28370
 Alpha virt. eigenvalues --    2.28702   2.29002   2.29469   2.30236   2.30327
 Alpha virt. eigenvalues --    2.31166   2.31843   2.32073   2.32184   2.33097
 Alpha virt. eigenvalues --    2.33436   2.33747   2.33815   2.34502   2.35507
 Alpha virt. eigenvalues --    2.35740   2.36009   2.36312   2.36623   2.37202
 Alpha virt. eigenvalues --    2.37376   2.37654   2.37744   2.38407   2.39159
 Alpha virt. eigenvalues --    2.39394   2.39691   2.40421   2.41115   2.41403
 Alpha virt. eigenvalues --    2.41551   2.42074   2.42587   2.42758   2.43559
 Alpha virt. eigenvalues --    2.44116   2.44878   2.45054   2.45248   2.45784
 Alpha virt. eigenvalues --    2.46412   2.46568   2.46880   2.47170   2.47764
 Alpha virt. eigenvalues --    2.47935   2.48457   2.48693   2.49572   2.49979
 Alpha virt. eigenvalues --    2.50412   2.50772   2.51648   2.51998   2.52352
 Alpha virt. eigenvalues --    2.52807   2.52994   2.53242   2.53536   2.54139
 Alpha virt. eigenvalues --    2.54605   2.54742   2.55885   2.56309   2.56513
 Alpha virt. eigenvalues --    2.56601   2.56896   2.57103   2.57436   2.57551
 Alpha virt. eigenvalues --    2.58068   2.58468   2.59264   2.59775   2.60084
 Alpha virt. eigenvalues --    2.60530   2.60566   2.61185   2.61376   2.61725
 Alpha virt. eigenvalues --    2.62312   2.62614   2.62919   2.63459   2.63770
 Alpha virt. eigenvalues --    2.64242   2.65018   2.65257   2.65806   2.66093
 Alpha virt. eigenvalues --    2.66433   2.66914   2.67296   2.67434   2.67849
 Alpha virt. eigenvalues --    2.68179   2.68815   2.69242   2.69750   2.69832
 Alpha virt. eigenvalues --    2.70110   2.70785   2.70975   2.71229   2.71607
 Alpha virt. eigenvalues --    2.72336   2.72874   2.73271   2.73498   2.74191
 Alpha virt. eigenvalues --    2.74746   2.74953   2.75618   2.75727   2.76580
 Alpha virt. eigenvalues --    2.77118   2.77431   2.77782   2.77954   2.78466
 Alpha virt. eigenvalues --    2.78759   2.79233   2.79401   2.80263   2.80744
 Alpha virt. eigenvalues --    2.80904   2.81631   2.82185   2.82541   2.82724
 Alpha virt. eigenvalues --    2.83240   2.83614   2.84015   2.84237   2.84750
 Alpha virt. eigenvalues --    2.85216   2.85558   2.85867   2.86273   2.86863
 Alpha virt. eigenvalues --    2.87242   2.87974   2.88316   2.88499   2.88633
 Alpha virt. eigenvalues --    2.89661   2.89843   2.90123   2.90358   2.90464
 Alpha virt. eigenvalues --    2.91002   2.91423   2.91895   2.92138   2.92623
 Alpha virt. eigenvalues --    2.93156   2.93632   2.94162   2.94459   2.94564
 Alpha virt. eigenvalues --    2.94653   2.94922   2.95593   2.95843   2.96345
 Alpha virt. eigenvalues --    2.96676   2.96842   2.97424   2.97541   2.97757
 Alpha virt. eigenvalues --    2.98244   2.98854   2.98994   2.99432   2.99748
 Alpha virt. eigenvalues --    3.00224   3.00671   3.00874   3.01029   3.01234
 Alpha virt. eigenvalues --    3.01831   3.02367   3.02878   3.03138   3.03574
 Alpha virt. eigenvalues --    3.03876   3.04532   3.04881   3.05126   3.05993
 Alpha virt. eigenvalues --    3.06219   3.06622   3.06936   3.07626   3.07746
 Alpha virt. eigenvalues --    3.07948   3.08228   3.08393   3.08684   3.09111
 Alpha virt. eigenvalues --    3.09463   3.09605   3.10009   3.10445   3.10728
 Alpha virt. eigenvalues --    3.11590   3.11848   3.12021   3.12401   3.12605
 Alpha virt. eigenvalues --    3.12844   3.13172   3.13559   3.13851   3.14184
 Alpha virt. eigenvalues --    3.14318   3.14662   3.15090   3.15621   3.16149
 Alpha virt. eigenvalues --    3.16501   3.16953   3.17349   3.17510   3.18025
 Alpha virt. eigenvalues --    3.18094   3.18596   3.18730   3.19295   3.19675
 Alpha virt. eigenvalues --    3.19858   3.20220   3.20656   3.21049   3.21275
 Alpha virt. eigenvalues --    3.21816   3.21954   3.22202   3.22441   3.22850
 Alpha virt. eigenvalues --    3.23276   3.23605   3.23859   3.24178   3.24441
 Alpha virt. eigenvalues --    3.24489   3.24985   3.25125   3.25794   3.26068
 Alpha virt. eigenvalues --    3.26201   3.26538   3.26648   3.27150   3.27359
 Alpha virt. eigenvalues --    3.27629   3.28031   3.28245   3.28371   3.28579
 Alpha virt. eigenvalues --    3.29105   3.29330   3.29838   3.30010   3.30231
 Alpha virt. eigenvalues --    3.30366   3.30571   3.30675   3.31029   3.31183
 Alpha virt. eigenvalues --    3.31670   3.31840   3.31990   3.32305   3.32800
 Alpha virt. eigenvalues --    3.33410   3.33497   3.33806   3.33940   3.34269
 Alpha virt. eigenvalues --    3.35056   3.35197   3.35318   3.35534   3.35921
 Alpha virt. eigenvalues --    3.36210   3.36372   3.36734   3.37088   3.37221
 Alpha virt. eigenvalues --    3.37564   3.37886   3.37989   3.38546   3.38687
 Alpha virt. eigenvalues --    3.38988   3.39278   3.39369   3.39705   3.40080
 Alpha virt. eigenvalues --    3.40326   3.40707   3.41158   3.41405   3.41806
 Alpha virt. eigenvalues --    3.41965   3.42499   3.43070   3.43272   3.43736
 Alpha virt. eigenvalues --    3.43926   3.44870   3.45709   3.45858   3.46188
 Alpha virt. eigenvalues --    3.46334   3.46884   3.47048   3.47249   3.47613
 Alpha virt. eigenvalues --    3.48350   3.48702   3.49132   3.49579   3.50038
 Alpha virt. eigenvalues --    3.50327   3.51045   3.51400   3.52386   3.52906
 Alpha virt. eigenvalues --    3.53401   3.53949   3.54107   3.54689   3.54800
 Alpha virt. eigenvalues --    3.55276   3.55756   3.56194   3.56309   3.56811
 Alpha virt. eigenvalues --    3.57717   3.57888   3.58449   3.58906   3.59177
 Alpha virt. eigenvalues --    3.59620   3.59660   3.60319   3.60826   3.61522
 Alpha virt. eigenvalues --    3.61819   3.62783   3.63151   3.63536   3.63995
 Alpha virt. eigenvalues --    3.64595   3.65243   3.65504   3.66524   3.66854
 Alpha virt. eigenvalues --    3.67291   3.67418   3.68237   3.68619   3.68860
 Alpha virt. eigenvalues --    3.69366   3.69793   3.69954   3.70973   3.71196
 Alpha virt. eigenvalues --    3.71381   3.71667   3.71997   3.72436   3.72731
 Alpha virt. eigenvalues --    3.73592   3.73939   3.74709   3.74863   3.75353
 Alpha virt. eigenvalues --    3.75421   3.75655   3.76105   3.76587   3.76871
 Alpha virt. eigenvalues --    3.77413   3.78097   3.78616   3.79318   3.80179
 Alpha virt. eigenvalues --    3.80205   3.80773   3.81273   3.81839   3.82676
 Alpha virt. eigenvalues --    3.83387   3.83672   3.83833   3.84475   3.85488
 Alpha virt. eigenvalues --    3.85798   3.86460   3.87055   3.87724   3.87993
 Alpha virt. eigenvalues --    3.88459   3.89704   3.89993   3.90508   3.91164
 Alpha virt. eigenvalues --    3.91262   3.91968   3.92113   3.92442   3.93301
 Alpha virt. eigenvalues --    3.94064   3.94339   3.94733   3.96146   3.97006
 Alpha virt. eigenvalues --    3.98304   3.98644   3.98710   3.99647   4.00014
 Alpha virt. eigenvalues --    4.00379   4.01051   4.01453   4.01900   4.02417
 Alpha virt. eigenvalues --    4.03342   4.03720   4.03860   4.04611   4.05279
 Alpha virt. eigenvalues --    4.05545   4.06202   4.06551   4.06932   4.08774
 Alpha virt. eigenvalues --    4.09333   4.09848   4.10542   4.11127   4.11520
 Alpha virt. eigenvalues --    4.12442   4.13256   4.13642   4.13975   4.14031
 Alpha virt. eigenvalues --    4.14846   4.15448   4.16416   4.17144   4.17630
 Alpha virt. eigenvalues --    4.17843   4.18484   4.19055   4.19428   4.19711
 Alpha virt. eigenvalues --    4.20270   4.20857   4.21825   4.22331   4.23004
 Alpha virt. eigenvalues --    4.23886   4.24195   4.24782   4.25357   4.26178
 Alpha virt. eigenvalues --    4.26656   4.27584   4.27626   4.28100   4.28287
 Alpha virt. eigenvalues --    4.29298   4.29564   4.30083   4.30553   4.32012
 Alpha virt. eigenvalues --    4.32309   4.33222   4.33687   4.34068   4.34323
 Alpha virt. eigenvalues --    4.34938   4.35221   4.36090   4.36847   4.37529
 Alpha virt. eigenvalues --    4.37998   4.39083   4.39852   4.40889   4.40974
 Alpha virt. eigenvalues --    4.41263   4.41749   4.41989   4.42394   4.43298
 Alpha virt. eigenvalues --    4.44167   4.44419   4.44952   4.45220   4.45453
 Alpha virt. eigenvalues --    4.46069   4.46455   4.46966   4.47164   4.47668
 Alpha virt. eigenvalues --    4.48360   4.48849   4.49937   4.50406   4.51539
 Alpha virt. eigenvalues --    4.52151   4.53262   4.54419   4.54830   4.55955
 Alpha virt. eigenvalues --    4.56354   4.56965   4.57881   4.58806   4.59321
 Alpha virt. eigenvalues --    4.59917   4.61850   4.63817   4.64245   4.65629
 Alpha virt. eigenvalues --    4.66380   4.67219   4.68897   4.69117   4.69956
 Alpha virt. eigenvalues --    4.70087   4.70673   4.71975   4.72186   4.73196
 Alpha virt. eigenvalues --    4.73761   4.74207   4.74749   4.75520   4.76230
 Alpha virt. eigenvalues --    4.76396   4.78048   4.80438   4.81133   4.81875
 Alpha virt. eigenvalues --    4.83123   4.83440   4.83823   4.84246   4.84326
 Alpha virt. eigenvalues --    4.85199   4.85857   4.86357   4.86607   4.87986
 Alpha virt. eigenvalues --    4.88667   4.89607   4.90253   4.90839   4.92317
 Alpha virt. eigenvalues --    4.93333   4.94181   4.95080   4.95872   4.96302
 Alpha virt. eigenvalues --    4.96595   4.97141   4.98162   4.99178   5.00694
 Alpha virt. eigenvalues --    5.00928   5.02540   5.03085   5.03659   5.04165
 Alpha virt. eigenvalues --    5.04845   5.06290   5.07036   5.07426   5.08567
 Alpha virt. eigenvalues --    5.08769   5.09943   5.10422   5.11079   5.11443
 Alpha virt. eigenvalues --    5.14268   5.15400   5.17204   5.19032   5.19929
 Alpha virt. eigenvalues --    5.20265   5.21211   5.21958   5.22358   5.23159
 Alpha virt. eigenvalues --    5.23839   5.25357   5.26676   5.27247   5.28826
 Alpha virt. eigenvalues --    5.30101   5.31019   5.31432   5.33766   5.36737
 Alpha virt. eigenvalues --    5.36923   5.37966   5.38758   5.39391   5.40271
 Alpha virt. eigenvalues --    5.40542   5.41504   5.42097   5.42286   5.42971
 Alpha virt. eigenvalues --    5.44004   5.45182   5.47741   5.49542   5.50504
 Alpha virt. eigenvalues --    5.51320   5.52279   5.52601   5.53454   5.53785
 Alpha virt. eigenvalues --    5.56866   5.57896   5.60466   5.62191   5.63484
 Alpha virt. eigenvalues --    5.63531   5.64677   5.64950   5.65982   5.67106
 Alpha virt. eigenvalues --    5.68110   5.68875   5.70109   5.71792   5.75362
 Alpha virt. eigenvalues --    5.77992   5.78622   5.79573   5.82010   5.83529
 Alpha virt. eigenvalues --    5.91427   5.93692   5.94712   5.95414   5.98033
 Alpha virt. eigenvalues --    6.03024   6.03704   6.04499   6.09333   6.13553
 Alpha virt. eigenvalues --    6.13837   6.15000   6.15597   6.18408   6.20161
 Alpha virt. eigenvalues --    6.24858   6.29101   6.35821   6.36510   6.42697
 Alpha virt. eigenvalues --    6.48672   6.51737   6.54591   6.68656   6.97540
 Alpha virt. eigenvalues --    7.28576  22.36298  22.36800  22.44285  22.46332
 Alpha virt. eigenvalues --   22.47103  22.53252  22.53714  22.62864  22.63561
 Alpha virt. eigenvalues --   22.78570  22.86197  22.87738  22.92472  22.95289
 Alpha virt. eigenvalues --   22.95976  22.96854  22.98994  23.05074  23.05380
 Alpha virt. eigenvalues --   23.09511  23.16874  23.28191  23.28920  23.31548
 Alpha virt. eigenvalues --   23.32851  23.42473  23.43126  23.51690  23.52335
 Alpha virt. eigenvalues --   23.56684  23.75442  23.80494  23.81486  23.90824
 Alpha virt. eigenvalues --   32.40910  32.76845  32.93322  32.99728  33.05141
 Alpha virt. eigenvalues --   33.15207  44.07675
  Beta  occ. eigenvalues -- -256.14041 -29.94959 -25.80484 -25.78996 -25.78965
  Beta  occ. eigenvalues --  -19.16367 -14.41712 -14.34798 -14.31554 -14.31284
  Beta  occ. eigenvalues --  -14.31252 -14.31070 -10.25526 -10.23603 -10.21014
  Beta  occ. eigenvalues --  -10.20802 -10.20716 -10.20569 -10.20553 -10.20506
  Beta  occ. eigenvalues --  -10.20478 -10.20462 -10.20372 -10.20363 -10.19530
  Beta  occ. eigenvalues --  -10.19409 -10.18869 -10.18749 -10.18662 -10.18558
  Beta  occ. eigenvalues --  -10.18524 -10.18438 -10.18424 -10.18416 -10.18404
  Beta  occ. eigenvalues --  -10.18345 -10.18296 -10.18268 -10.18264 -10.18223
  Beta  occ. eigenvalues --  -10.18150 -10.18119 -10.18100 -10.18083 -10.18018
  Beta  occ. eigenvalues --  -10.17915  -3.29694  -2.06009  -2.04936  -2.04872
  Beta  occ. eigenvalues --   -1.05134  -1.04498  -0.96222  -0.95362  -0.95155
  Beta  occ. eigenvalues --   -0.94271  -0.90654  -0.81956  -0.81620  -0.81289
  Beta  occ. eigenvalues --   -0.80385  -0.80189  -0.80032  -0.79270  -0.79194
  Beta  occ. eigenvalues --   -0.76544  -0.75490  -0.74082  -0.73650  -0.72945
  Beta  occ. eigenvalues --   -0.71718  -0.70747  -0.69879  -0.67942  -0.67588
  Beta  occ. eigenvalues --   -0.67502  -0.64438  -0.63848  -0.63742  -0.61196
  Beta  occ. eigenvalues --   -0.60428  -0.60062  -0.59750  -0.57582  -0.56118
  Beta  occ. eigenvalues --   -0.55804  -0.54156  -0.53295  -0.53063  -0.52279
  Beta  occ. eigenvalues --   -0.50673  -0.50658  -0.50132  -0.48454  -0.47697
  Beta  occ. eigenvalues --   -0.47577  -0.47386  -0.46964  -0.44704  -0.44526
  Beta  occ. eigenvalues --   -0.44277  -0.44247  -0.43835  -0.43391  -0.43274
  Beta  occ. eigenvalues --   -0.43078  -0.42953  -0.42815  -0.42726  -0.42412
  Beta  occ. eigenvalues --   -0.42359  -0.42203  -0.41620  -0.41426  -0.41369
  Beta  occ. eigenvalues --   -0.41155  -0.40858  -0.39947  -0.39916  -0.39697
  Beta  occ. eigenvalues --   -0.39266  -0.39234  -0.38750  -0.38606  -0.38252
  Beta  occ. eigenvalues --   -0.37992  -0.37510  -0.37177  -0.36703  -0.36636
  Beta  occ. eigenvalues --   -0.36007  -0.35476  -0.35280  -0.34938  -0.34120
  Beta  occ. eigenvalues --   -0.33877  -0.33566  -0.33244  -0.32598  -0.31603
  Beta  occ. eigenvalues --   -0.31597  -0.29919  -0.29813  -0.28666  -0.28327
  Beta  occ. eigenvalues --   -0.27989  -0.26346  -0.26266  -0.23969  -0.22795
  Beta  occ. eigenvalues --   -0.22405  -0.21972  -0.21479  -0.18013  -0.17455
  Beta  occ. eigenvalues --   -0.13145
  Beta virt. eigenvalues --   -0.06913  -0.06869  -0.01841   0.00254   0.00637
  Beta virt. eigenvalues --    0.02134   0.02383   0.03304   0.03427   0.03648
  Beta virt. eigenvalues --    0.04526   0.04903   0.05768   0.05964   0.06361
  Beta virt. eigenvalues --    0.06412   0.06763   0.07251   0.08358   0.08419
  Beta virt. eigenvalues --    0.08624   0.08994   0.09427   0.09537   0.09770
  Beta virt. eigenvalues --    0.09936   0.10246   0.10429   0.10653   0.11217
  Beta virt. eigenvalues --    0.11452   0.11597   0.11712   0.11998   0.12259
  Beta virt. eigenvalues --    0.12457   0.12725   0.12845   0.13149   0.13275
  Beta virt. eigenvalues --    0.13571   0.14253   0.14426   0.14513   0.14598
  Beta virt. eigenvalues --    0.15019   0.15138   0.15176   0.15364   0.15725
  Beta virt. eigenvalues --    0.15834   0.15944   0.16105   0.16190   0.16304
  Beta virt. eigenvalues --    0.16440   0.16854   0.17108   0.17259   0.17646
  Beta virt. eigenvalues --    0.17885   0.18162   0.18323   0.18889   0.19439
  Beta virt. eigenvalues --    0.19809   0.19895   0.20126   0.20253   0.20473
  Beta virt. eigenvalues --    0.20696   0.21132   0.21301   0.21447   0.21596
  Beta virt. eigenvalues --    0.22063   0.22482   0.22761   0.22854   0.23151
  Beta virt. eigenvalues --    0.23398   0.23934   0.24157   0.24639   0.25148
  Beta virt. eigenvalues --    0.25508   0.25609   0.25733   0.25927   0.26319
  Beta virt. eigenvalues --    0.26599   0.26949   0.27124   0.27453   0.27715
  Beta virt. eigenvalues --    0.27813   0.28053   0.28248   0.28770   0.29105
  Beta virt. eigenvalues --    0.29492   0.29784   0.29907   0.30118   0.30416
  Beta virt. eigenvalues --    0.30558   0.30935   0.31273   0.31469   0.31604
  Beta virt. eigenvalues --    0.32041   0.32153   0.32533   0.32840   0.33234
  Beta virt. eigenvalues --    0.33498   0.33667   0.34116   0.34361   0.34602
  Beta virt. eigenvalues --    0.34805   0.35033   0.35099   0.35452   0.35743
  Beta virt. eigenvalues --    0.36083   0.36567   0.36966   0.37272   0.37430
  Beta virt. eigenvalues --    0.37635   0.37866   0.38190   0.38274   0.38711
  Beta virt. eigenvalues --    0.38865   0.39043   0.39151   0.39374   0.39478
  Beta virt. eigenvalues --    0.40027   0.40206   0.40504   0.40669   0.40908
  Beta virt. eigenvalues --    0.41163   0.41277   0.41585   0.41880   0.41941
  Beta virt. eigenvalues --    0.42283   0.42339   0.42676   0.42752   0.42956
  Beta virt. eigenvalues --    0.43371   0.43412   0.43571   0.43957   0.44141
  Beta virt. eigenvalues --    0.44319   0.44523   0.44878   0.45046   0.45269
  Beta virt. eigenvalues --    0.45382   0.45733   0.45927   0.46353   0.46484
  Beta virt. eigenvalues --    0.46569   0.46741   0.47074   0.47378   0.47567
  Beta virt. eigenvalues --    0.47739   0.47932   0.48206   0.48272   0.48484
  Beta virt. eigenvalues --    0.48555   0.48769   0.49227   0.49322   0.49504
  Beta virt. eigenvalues --    0.49620   0.49795   0.49926   0.50379   0.50622
  Beta virt. eigenvalues --    0.50717   0.51296   0.51369   0.51607   0.51968
  Beta virt. eigenvalues --    0.52013   0.52247   0.52753   0.52815   0.53021
  Beta virt. eigenvalues --    0.53253   0.53307   0.53670   0.53924   0.54431
  Beta virt. eigenvalues --    0.54489   0.54742   0.55005   0.55163   0.55350
  Beta virt. eigenvalues --    0.55881   0.56225   0.56425   0.56737   0.56933
  Beta virt. eigenvalues --    0.57153   0.57279   0.57624   0.58038   0.58141
  Beta virt. eigenvalues --    0.58741   0.58939   0.59194   0.59492   0.59797
  Beta virt. eigenvalues --    0.60259   0.60413   0.60903   0.60978   0.61373
  Beta virt. eigenvalues --    0.61424   0.62036   0.62140   0.62521   0.62899
  Beta virt. eigenvalues --    0.62954   0.63239   0.63883   0.64088   0.64373
  Beta virt. eigenvalues --    0.64646   0.64901   0.65170   0.65405   0.65485
  Beta virt. eigenvalues --    0.66265   0.66302   0.66500   0.66718   0.67004
  Beta virt. eigenvalues --    0.67246   0.67353   0.68055   0.68246   0.68521
  Beta virt. eigenvalues --    0.68998   0.69303   0.69746   0.70155   0.70715
  Beta virt. eigenvalues --    0.71140   0.71757   0.72005   0.72417   0.72480
  Beta virt. eigenvalues --    0.72752   0.72944   0.73320   0.73835   0.74094
  Beta virt. eigenvalues --    0.74184   0.74554   0.74915   0.75036   0.75422
  Beta virt. eigenvalues --    0.75705   0.76249   0.76326   0.76785   0.77274
  Beta virt. eigenvalues --    0.77376   0.77429   0.78316   0.78706   0.79053
  Beta virt. eigenvalues --    0.79319   0.79424   0.79597   0.79773   0.80362
  Beta virt. eigenvalues --    0.80663   0.80895   0.81308   0.81626   0.81853
  Beta virt. eigenvalues --    0.81994   0.82499   0.83033   0.83614   0.84089
  Beta virt. eigenvalues --    0.84516   0.84829   0.85421   0.85587   0.85747
  Beta virt. eigenvalues --    0.86293   0.86966   0.87130   0.87885   0.88086
  Beta virt. eigenvalues --    0.88397   0.88839   0.89388   0.89540   0.90091
  Beta virt. eigenvalues --    0.90298   0.90654   0.91156   0.91452   0.91913
  Beta virt. eigenvalues --    0.92096   0.92771   0.93042   0.93454   0.93743
  Beta virt. eigenvalues --    0.93890   0.94113   0.94871   0.94995   0.95449
  Beta virt. eigenvalues --    0.95712   0.96128   0.96384   0.96946   0.97380
  Beta virt. eigenvalues --    0.97910   0.98222   0.98416   0.98570   0.99159
  Beta virt. eigenvalues --    0.99201   0.99645   0.99842   1.00905   1.01163
  Beta virt. eigenvalues --    1.01504   1.01721   1.02049   1.02203   1.02772
  Beta virt. eigenvalues --    1.02902   1.03126   1.03267   1.03577   1.03969
  Beta virt. eigenvalues --    1.04230   1.04294   1.04584   1.04818   1.04933
  Beta virt. eigenvalues --    1.05469   1.06032   1.06138   1.06367   1.07006
  Beta virt. eigenvalues --    1.07728   1.08228   1.08946   1.09015   1.09381
  Beta virt. eigenvalues --    1.09696   1.10260   1.10430   1.10989   1.11338
  Beta virt. eigenvalues --    1.11701   1.12177   1.12407   1.12942   1.13475
  Beta virt. eigenvalues --    1.14212   1.14331   1.15075   1.15811   1.16301
  Beta virt. eigenvalues --    1.16693   1.16928   1.17630   1.17662   1.18027
  Beta virt. eigenvalues --    1.18183   1.18684   1.19213   1.19341   1.19762
  Beta virt. eigenvalues --    1.20523   1.20737   1.20994   1.21481   1.21780
  Beta virt. eigenvalues --    1.22180   1.22485   1.22846   1.23310   1.23654
  Beta virt. eigenvalues --    1.24246   1.24531   1.25525   1.25942   1.26582
  Beta virt. eigenvalues --    1.26996   1.27310   1.27620   1.27971   1.28408
  Beta virt. eigenvalues --    1.28864   1.29142   1.29600   1.29783   1.29817
  Beta virt. eigenvalues --    1.30038   1.30318   1.31190   1.31638   1.32051
  Beta virt. eigenvalues --    1.32270   1.32769   1.33123   1.33314   1.33576
  Beta virt. eigenvalues --    1.34094   1.35180   1.35621   1.36274   1.37335
  Beta virt. eigenvalues --    1.37439   1.38147   1.38489   1.39165   1.39729
  Beta virt. eigenvalues --    1.40279   1.40540   1.41163   1.41504   1.41685
  Beta virt. eigenvalues --    1.42095   1.43011   1.43630   1.44520   1.44797
  Beta virt. eigenvalues --    1.45477   1.45931   1.46368   1.47052   1.47286
  Beta virt. eigenvalues --    1.47685   1.48142   1.48205   1.48732   1.49180
  Beta virt. eigenvalues --    1.49449   1.49680   1.49724   1.50045   1.50463
  Beta virt. eigenvalues --    1.50865   1.51050   1.51229   1.51615   1.51705
  Beta virt. eigenvalues --    1.51948   1.52425   1.52536   1.52970   1.53585
  Beta virt. eigenvalues --    1.53748   1.54084   1.54243   1.54371   1.54445
  Beta virt. eigenvalues --    1.54778   1.55115   1.55428   1.55468   1.55732
  Beta virt. eigenvalues --    1.55810   1.56003   1.56300   1.56722   1.57065
  Beta virt. eigenvalues --    1.57342   1.57522   1.58036   1.58239   1.58299
  Beta virt. eigenvalues --    1.58702   1.59087   1.59302   1.59454   1.59934
  Beta virt. eigenvalues --    1.60121   1.60401   1.60764   1.61081   1.61526
  Beta virt. eigenvalues --    1.61757   1.62060   1.62742   1.63098   1.63184
  Beta virt. eigenvalues --    1.63599   1.63870   1.64029   1.64300   1.64601
  Beta virt. eigenvalues --    1.64976   1.65286   1.65675   1.65807   1.66151
  Beta virt. eigenvalues --    1.66288   1.66610   1.66806   1.67286   1.67778
  Beta virt. eigenvalues --    1.68005   1.68477   1.68862   1.69253   1.69509
  Beta virt. eigenvalues --    1.69862   1.70515   1.70893   1.71044   1.71204
  Beta virt. eigenvalues --    1.71288   1.71840   1.72075   1.73163   1.73530
  Beta virt. eigenvalues --    1.74059   1.74245   1.74716   1.74991   1.75625
  Beta virt. eigenvalues --    1.75871   1.76695   1.77073   1.77722   1.78275
  Beta virt. eigenvalues --    1.79287   1.79501   1.80211   1.80728   1.81051
  Beta virt. eigenvalues --    1.81507   1.82667   1.82842   1.83718   1.84357
  Beta virt. eigenvalues --    1.84437   1.84925   1.85166   1.85391   1.85819
  Beta virt. eigenvalues --    1.86049   1.86385   1.86619   1.87410   1.87840
  Beta virt. eigenvalues --    1.87878   1.88290   1.88694   1.89117   1.89350
  Beta virt. eigenvalues --    1.89796   1.90261   1.90389   1.91846   1.92184
  Beta virt. eigenvalues --    1.93093   1.93196   1.93989   1.94447   1.95094
  Beta virt. eigenvalues --    1.95237   1.95595   1.96141   1.96706   1.97210
  Beta virt. eigenvalues --    1.98016   1.98683   1.98908   1.99126   1.99376
  Beta virt. eigenvalues --    1.99511   1.99896   2.00308   2.00964   2.01359
  Beta virt. eigenvalues --    2.01600   2.02073   2.02938   2.03224   2.03618
  Beta virt. eigenvalues --    2.04399   2.04899   2.05367   2.05564   2.06701
  Beta virt. eigenvalues --    2.07170   2.07373   2.08059   2.08729   2.08965
  Beta virt. eigenvalues --    2.09194   2.09419   2.10046   2.10060   2.10628
  Beta virt. eigenvalues --    2.10947   2.11358   2.12089   2.12612   2.12801
  Beta virt. eigenvalues --    2.13989   2.14364   2.14519   2.14873   2.15106
  Beta virt. eigenvalues --    2.15514   2.16197   2.16558   2.16904   2.17294
  Beta virt. eigenvalues --    2.18197   2.18415   2.19112   2.19672   2.20015
  Beta virt. eigenvalues --    2.20196   2.20521   2.20668   2.21494   2.22044
  Beta virt. eigenvalues --    2.22252   2.22941   2.23109   2.24048   2.24830
  Beta virt. eigenvalues --    2.25493   2.25813   2.26352   2.26780   2.27237
  Beta virt. eigenvalues --    2.27585   2.27719   2.28057   2.28573   2.28819
  Beta virt. eigenvalues --    2.29084   2.29539   2.30346   2.30741   2.31236
  Beta virt. eigenvalues --    2.31942   2.32138   2.32285   2.33179   2.33485
  Beta virt. eigenvalues --    2.33882   2.34039   2.34714   2.35689   2.35806
  Beta virt. eigenvalues --    2.36079   2.36395   2.36712   2.37249   2.37409
  Beta virt. eigenvalues --    2.37739   2.37901   2.38504   2.39212   2.39501
  Beta virt. eigenvalues --    2.39752   2.40513   2.41218   2.41576   2.41666
  Beta virt. eigenvalues --    2.42191   2.42787   2.42907   2.43689   2.44252
  Beta virt. eigenvalues --    2.45095   2.45321   2.45368   2.45900   2.46555
  Beta virt. eigenvalues --    2.46751   2.47053   2.47437   2.47897   2.48121
  Beta virt. eigenvalues --    2.48600   2.48891   2.49662   2.50445   2.50615
  Beta virt. eigenvalues --    2.50996   2.51860   2.52208   2.52425   2.52948
  Beta virt. eigenvalues --    2.53083   2.53311   2.53657   2.54627   2.54737
  Beta virt. eigenvalues --    2.55036   2.56103   2.56374   2.56551   2.56723
  Beta virt. eigenvalues --    2.56999   2.57194   2.57611   2.57788   2.58250
  Beta virt. eigenvalues --    2.58567   2.59420   2.60175   2.60325   2.60666
  Beta virt. eigenvalues --    2.60772   2.61302   2.61504   2.61879   2.62410
  Beta virt. eigenvalues --    2.62888   2.63018   2.63524   2.64010   2.64453
  Beta virt. eigenvalues --    2.65119   2.65361   2.65993   2.66171   2.66608
  Beta virt. eigenvalues --    2.67018   2.67373   2.67582   2.68013   2.68285
  Beta virt. eigenvalues --    2.68957   2.69475   2.69810   2.70202   2.70284
  Beta virt. eigenvalues --    2.70850   2.71128   2.71318   2.71802   2.72438
  Beta virt. eigenvalues --    2.72968   2.73397   2.73590   2.74315   2.74823
  Beta virt. eigenvalues --    2.75171   2.75764   2.75848   2.76810   2.77227
  Beta virt. eigenvalues --    2.77531   2.77958   2.78062   2.78742   2.78947
  Beta virt. eigenvalues --    2.79371   2.79542   2.80381   2.80868   2.81020
  Beta virt. eigenvalues --    2.81720   2.82333   2.82631   2.82804   2.83515
  Beta virt. eigenvalues --    2.83688   2.84080   2.84306   2.84892   2.85346
  Beta virt. eigenvalues --    2.85645   2.85941   2.86457   2.87060   2.87359
  Beta virt. eigenvalues --    2.88079   2.88442   2.88645   2.88699   2.89769
  Beta virt. eigenvalues --    2.90027   2.90251   2.90450   2.90626   2.91122
  Beta virt. eigenvalues --    2.91557   2.91980   2.92402   2.92725   2.93416
  Beta virt. eigenvalues --    2.93776   2.94398   2.94575   2.94725   2.94801
  Beta virt. eigenvalues --    2.95063   2.95678   2.95927   2.96694   2.96888
  Beta virt. eigenvalues --    2.97066   2.97506   2.97736   2.97936   2.98489
  Beta virt. eigenvalues --    2.98999   2.99054   2.99490   2.99954   3.00334
  Beta virt. eigenvalues --    3.00778   3.00992   3.01303   3.01465   3.02038
  Beta virt. eigenvalues --    3.02675   3.03023   3.03398   3.03689   3.04156
  Beta virt. eigenvalues --    3.04793   3.05112   3.05307   3.06107   3.06479
  Beta virt. eigenvalues --    3.06793   3.07039   3.07715   3.07852   3.08113
  Beta virt. eigenvalues --    3.08397   3.08490   3.08804   3.09215   3.09606
  Beta virt. eigenvalues --    3.09717   3.10186   3.10556   3.10868   3.11670
  Beta virt. eigenvalues --    3.11925   3.12137   3.12505   3.12800   3.12913
  Beta virt. eigenvalues --    3.13323   3.13636   3.13937   3.14262   3.14431
  Beta virt. eigenvalues --    3.14806   3.15182   3.15684   3.16248   3.16592
  Beta virt. eigenvalues --    3.17065   3.17481   3.17572   3.18085   3.18173
  Beta virt. eigenvalues --    3.18721   3.18786   3.19351   3.19724   3.19955
  Beta virt. eigenvalues --    3.20329   3.20729   3.21154   3.21363   3.21938
  Beta virt. eigenvalues --    3.22011   3.22257   3.22535   3.22896   3.23423
  Beta virt. eigenvalues --    3.23646   3.23922   3.24252   3.24542   3.24591
  Beta virt. eigenvalues --    3.25068   3.25200   3.25865   3.26137   3.26298
  Beta virt. eigenvalues --    3.26607   3.26754   3.27221   3.27444   3.27683
  Beta virt. eigenvalues --    3.28160   3.28339   3.28491   3.28699   3.29225
  Beta virt. eigenvalues --    3.29413   3.29889   3.30095   3.30315   3.30447
  Beta virt. eigenvalues --    3.30608   3.30726   3.31065   3.31260   3.31735
  Beta virt. eigenvalues --    3.31937   3.32078   3.32367   3.32880   3.33456
  Beta virt. eigenvalues --    3.33568   3.33870   3.34017   3.34342   3.35155
  Beta virt. eigenvalues --    3.35279   3.35468   3.35634   3.35984   3.36286
  Beta virt. eigenvalues --    3.36527   3.36819   3.37158   3.37376   3.37636
  Beta virt. eigenvalues --    3.37981   3.38120   3.38601   3.38794   3.39097
[...]
                                                    194(r)
   142. CR (   1) C  67                  0.99970   -10.05885  1527(v),1525(v),1324(v)
                                                    1332(v)
   143. CR (   1) N  71                  0.99969   -14.22124  1326(v),1352(v),1320(v)
                                                    1523(v),1327(v)
   144. CR (   1) C  73                  0.99957   -10.08841  1409(v),1527(g),1532(v)
                                                    1254(v),1297(v)
   145. CR (   1) C  74                  0.99967   -10.12255  1382(v),149(r),1524(v)
                                                    1377(v),1531(v),150(r)
                                                    155(r)
   146. CR (   1) N  76                  0.99971   -14.12925  149(r),150(r),153(r),1350(v)
                                                    1407(v),1528(v),168(r)
                                                    171(r)
   147. CR (   1) C  77                  0.99949   -10.05868  1324(v),1523(v),1527(g)
                                                    1382(v),149(r),150(r),155(r)
   163. LP (   1) N  76                  0.83203    -0.36296  149(r),150(r),153(r),1526(v)
                                                    1527(v),1350(v),1528(v)
                                                    1532(v),1529(g),1407(v)
                                                    1531(g),1384(g),1381(g)
                                                    170(r),175(r),246(r),194(r)
                                                    195(r),220(r),221(r),272(r)
                                                    273(r),247(r),1440(r)
                                                    1447(r),245(r),1441(r)
                                                    1446(r),1444(r),1449(r)
                                                    1438(r),1443(r),271(r)
                                                    219(r),171(r),184(r),193(r)
                                                    176(r),148(r)
   164. LP (   1) C  77                  0.52093    -0.11048  90(v),1530(v),1328(v)
                                                    1383(v),1408(g),148(r)
                                                    1445(r)
  1252. RY*(   1) C  67                  0.00059     1.16674   
  1253. RY*(   2) C  67                  0.00039     2.01599   
  1254. RY*(   3) C  67                  0.00025     1.31552   
  1255. RY*(   4) C  67                  0.00006     1.28050   
  1256. RY*(   5) C  67                  0.00004     1.79802   
  1257. RY*(   6) C  67                  0.00000     2.76494   
  1258. RY*(   7) C  67                  0.00000    21.58957   
  1259. RY*(   8) C  67                  0.00000     1.77602   
  1260. RY*(   9) C  67                  0.00001     1.49596   
  1261. RY*(  10) C  67                  0.00001     1.18373   
  1262. RY*(  11) C  67                  0.00000     1.34717   
  1263. RY*(  12) C  67                  0.00000     3.14060   
  1264. RY*(  13) C  67                  0.00000     2.52552   
  1265. RY*(  14) C  67                  0.00000     2.76205   
  1266. RY*(  15) C  67                  0.00000     2.34974   
  1267. RY*(  16) C  67                  0.00000     2.83426   
  1268. RY*(  17) C  67                  0.00000     2.42124   
  1269. RY*(  18) C  67                  0.00001     2.55853   
  1270. RY*(  19) C  67                  0.00000     2.52347   
  1271. RY*(  20) C  67                  0.00000     3.54783   
  1272. RY*(  21) C  67                  0.00000     3.47347   
  1273. RY*(  22) C  67                  0.00000     3.28362   
  1274. RY*(  23) C  67                  0.00000     3.68063   
  1275. RY*(  24) C  67                  0.00000     3.48660   
  1276. RY*(  25) C  67                  0.00000     3.45881   
  1277. RY*(  26) C  67                  0.00000     3.29811   
  1278. RY*(   1) H  68                  0.00037     1.00199   
  1279. RY*(   2) H  68                  0.00007     1.69361   
  1280. RY*(   3) H  68                  0.00003     1.90551   
  1281. RY*(   4) H  68                  0.00004     2.07196   
  1282. RY*(   5) H  68                  0.00000     2.88786   
  1283. RY*(   1) H  69                  0.00036     1.00047   
  1284. RY*(   2) H  69                  0.00007     1.69020   
  1285. RY*(   3) H  69                  0.00004     1.97959   
  1286. RY*(   4) H  69                  0.00003     2.00425   
  1287. RY*(   5) H  69                  0.00000     2.88421   
  1288. RY*(   1) H  70                  0.00012     1.45644   
  1289. RY*(   2) H  70                  0.00006     1.72267   
  1290. RY*(   3) H  70                  0.00004     2.05675   
  1291. RY*(   4) H  70                  0.00000     2.95031   
  1292. RY*(   5) H  70                  0.00001     1.46770   
  1293. RY*(   1) N  71                  0.00136     0.71718   
  1294. RY*(   2) N  71                  0.00109     1.84785   
  1295. RY*(   3) N  71                  0.00052     2.15888   
  1296. RY*(   4) N  71                  0.00038     2.28603   
  1297. RY*(   5) N  71                  0.00026     1.08532   
  1298. RY*(   6) N  71                  0.00010     2.11816   
  1299. RY*(   7) N  71                  0.00006     2.33132   
  1300. RY*(   8) N  71                  0.00003     2.62215   
  1301. RY*(   9) N  71                  0.00002     3.63300   
  1302. RY*(  10) N  71                  0.00002     3.08892   
  1303. RY*(  11) N  71                  0.00001     2.88240   
  1304. RY*(  12) N  71                  0.00000     2.26942   
  1305. RY*(  13) N  71                  0.00000    30.65179   
  1306. RY*(  14) N  71                  0.00000     3.76754   
  1307. RY*(  15) N  71                  0.00001     3.12249   
  1308. RY*(  16) N  71                  0.00000     3.93696   
  1309. RY*(  17) N  71                  0.00000     4.72746   
  1310. RY*(  18) N  71                  0.00000     2.79959   
  1311. RY*(  19) N  71                  0.00001     3.60955   
  1312. RY*(  20) N  71                  0.00000     4.72747   
  1313. RY*(  21) N  71                  0.00000     4.71618   
  1314. RY*(  22) N  71                  0.00000     4.25724   
  1315. RY*(  23) N  71                  0.00000     4.53374   
  1316. RY*(  24) N  71                  0.00000     4.24786   
  1317. RY*(  25) N  71                  0.00000     4.46523   
  1318. RY*(  26) N  71                  0.00000     4.17754   
  1319. RY*(   1) H  72                  0.00028     2.17649   
  1320. RY*(   2) H  72                  0.00020     2.12926   
  1321. RY*(   3) H  72                  0.00010     2.70520   
  1322. RY*(   4) H  72                  0.00009     1.13996   
  1323. RY*(   5) H  72                  0.00000     3.08066   
  1324. RY*(   1) C  73                  0.00195     1.69256   
  1325. RY*(   2) C  73                  0.00176     1.20527   
  1326. RY*(   3) C  73                  0.00093     1.50534   
  1327. RY*(   4) C  73                  0.00080     2.08976   
  1328. RY*(   5) C  73                  0.00065     1.89663   
  1329. RY*(   6) C  73                  0.00048     1.75659   
  1330. RY*(   7) C  73                  0.00021     2.61377   
  1331. RY*(   8) C  73                  0.00010     2.76446   
  1332. RY*(   9) C  73                  0.00008     2.52104   
  1333. RY*(  10) C  73                  0.00003     3.68673   
  1334. RY*(  11) C  73                  0.00001     1.81884   
  1335. RY*(  12) C  73                  0.00000    21.51974   
  1336. RY*(  13) C  73                  0.00000     1.62263   
  1337. RY*(  14) C  73                  0.00000     1.59604   
  1338. RY*(  15) C  73                  0.00000     2.42320   
  1339. RY*(  16) C  73                  0.00001     1.90498   
  1340. RY*(  17) C  73                  0.00000     3.69495   
  1341. RY*(  18) C  73                  0.00000     1.93427   
  1342. RY*(  19) C  73                  0.00000     1.14791   
  1343. RY*(  20) C  73                  0.00000     4.04411   
  1344. RY*(  21) C  73                  0.00000     4.07298   
  1345. RY*(  22) C  73                  0.00000     3.55690   
  1346. RY*(  23) C  73                  0.00000     3.84027   
  1347. RY*(  24) C  73                  0.00000     3.42635   
  1348. RY*(  25) C  73                  0.00000     3.65311   
  1349. RY*(  26) C  73                  0.00000     3.53152   
  1350. RY*(   1) C  74                  0.00220     1.67578   
  1351. RY*(   2) C  74                  0.00170     0.63400   
  1352. RY*(   3) C  74                  0.00120     1.74142   
  1353. RY*(   4) C  74                  0.00063     1.45630   
  1354. RY*(   5) C  74                  0.00051     2.69132   
  1355. RY*(   6) C  74                  0.00030     1.90623   
  1356. RY*(   7) C  74                  0.00014     1.70314   
  1357. RY*(   8) C  74                  0.00011     1.70378   
  1358. RY*(   9) C  74                  0.00009     1.20292   
  1359. RY*(  10) C  74                  0.00006     1.62388   
  1360. RY*(  11) C  74                  0.00004     3.00641   
  1361. RY*(  12) C  74                  0.00001     1.56756   
  1362. RY*(  13) C  74                  0.00002     1.68217   
  1363. RY*(  14) C  74                  0.00001     2.06403   
  1364. RY*(  15) C  74                  0.00002     2.37176   
  1365. RY*(  16) C  74                  0.00002     3.64611   
  1366. RY*(  17) C  74                  0.00000     3.65502   
  1367. RY*(  18) C  74                  0.00000     3.21686   
  1368. RY*(  19) C  74                  0.00000    21.18898   
  1369. RY*(  20) C  74                  0.00001     3.91387   
  1370. RY*(  21) C  74                  0.00000     3.94275   
  1371. RY*(  22) C  74                  0.00000     3.54875   
  1372. RY*(  23) C  74                  0.00000     3.77909   
  1373. RY*(  24) C  74                  0.00000     3.53466   
  1374. RY*(  25) C  74                  0.00000     3.78145   
  1375. RY*(  26) C  74                  0.00000     3.46028   
  1376. RY*(   1) H  75                  0.00029     0.71683   
  1377. RY*(   2) H  75                  0.00018     2.40302   
  1378. RY*(   3) H  75                  0.00008     2.25076   
  1379. RY*(   4) H  75                  0.00002     2.65186   
  1380. RY*(   5) H  75                  0.00001     3.02496   
  1381. RY*(   1) N  76                  0.00302     1.34049   
  1382. RY*(   2) N  76                  0.00130     1.11893   
  1383. RY*(   3) N  76                  0.00118     0.93844   
  1384. RY*(   4) N  76                  0.00054     1.65007   
  1385. RY*(   5) N  76                  0.00026     2.02308   
  1386. RY*(   6) N  76                  0.00025     2.61772   
  1387. RY*(   7) N  76                  0.00022     1.93941   
  1388. RY*(   8) N  76                  0.00015     3.01311   
  1389. RY*(   9) N  76                  0.00005     2.21933   
  1390. RY*(  10) N  76                  0.00005     3.66601   
  1391. RY*(  11) N  76                  0.00003     3.08001   
  1392. RY*(  12) N  76                  0.00002     4.77523   
  1393. RY*(  13) N  76                  0.00000     3.68234   
  1394. RY*(  14) N  76                  0.00001     2.56954   
  1395. RY*(  15) N  76                  0.00000     4.79826   
  1396. RY*(  16) N  76                  0.00000    31.74552   
  1397. RY*(  17) N  76                  0.00001     4.46238   
  1398. RY*(  18) N  76                  0.00001     4.49484   
  1399. RY*(  19) N  76                  0.00001     3.61262   
  1400. RY*(  20) N  76                  0.00000     4.45624   
  1401. RY*(  21) N  76                  0.00001     5.04644   
  1402. RY*(  22) N  76                  0.00000     4.30496   
  1403. RY*(  23) N  76                  0.00000     4.69246   
  1404. RY*(  24) N  76                  0.00000     4.75355   
  1405. RY*(  25) N  76                  0.00000     4.63510   
  1406. RY*(  26) N  76                  0.00000     4.53702   
  1407. RY*(   1) C  77                  0.00200     1.45467   
  1408. RY*(   2) C  77                  0.00123     0.72151   
  1409. RY*(   3) C  77                  0.00088     1.77523   
  1410. RY*(   4) C  77                  0.00030     1.91199   
  1411. RY*(   5) C  77                  0.00027     1.69367   
  1412. RY*(   6) C  77                  0.00019     2.24020   
  1413. RY*(   7) C  77                  0.00016     2.02907   
  1414. RY*(   8) C  77                  0.00011     1.87980   
  1415. RY*(   9) C  77                  0.00007     1.35877   
  1416. RY*(  10) C  77                  0.00008     1.66201   
  1417. RY*(  11) C  77                  0.00005     1.54667   
  1418. RY*(  12) C  77                  0.00003     2.91947   
  1419. RY*(  13) C  77                  0.00003     2.01253   
  1420. RY*(  14) C  77                  0.00001     1.97833   
  1421. RY*(  15) C  77                  0.00002     3.28473   
  1422. RY*(  16) C  77                  0.00000     3.23237   
  1423. RY*(  17) C  77                  0.00000     3.70231   
  1424. RY*(  18) C  77                  0.00001     1.72564   
  1425. RY*(  19) C  77                  0.00000    21.65496   
  1426. RY*(  20) C  77                  0.00000     3.93027   
  1427. RY*(  21) C  77                  0.00001     4.07544   
  1428. RY*(  22) C  77                  0.00000     3.46790   
  1429. RY*(  23) C  77                  0.00000     3.80463   
  1430. RY*(  24) C  77                  0.00000     3.25164   
  1431. RY*(  25) C  77                  0.00000     3.68193   
  1432. RY*(  26) C  77                  0.00000     3.27923   
  1433. RY*(   1) H  78                  0.00032     1.18500   
  1434. RY*(   2) H  78                  0.00015     1.86483   
  1435. RY*(   3) H  78                  0.00012     2.30150   
  1436. RY*(   4) H  78                  0.00003     2.73999   
  1437. RY*(   5) H  78                  0.00000     3.11804   
  1520. BD*(   1) C  67 - H  68          0.00610     0.35980   
  1521. BD*(   1) C  67 - H  69          0.00578     0.35944   
  1522. BD*(   1) C  67 - H  70          0.00174     0.37345   
  1523. BD*(   1) C  67 - C  73          0.00687     0.38949   
  1524. BD*(   1) N  71 - H  72          0.00713     0.36790   
  1525. BD*(   1) N  71 - C  73          0.01353     0.42997   
  1526. BD*(   1) N  71 - C  74          0.01155     0.44859   
  1527. BD*(   1) C  73 - C  77          0.01071     0.56793   
  1528. BD*(   1) C  74 - H  75          0.00932     0.39092   
  1529. BD*(   1) C  74 - N  76          0.00769     0.53293   
  1530. BD*(   2) C  74 - N  76          0.20437    -0.00318  90(v),154(r),1351(g),1383(g)
                                                    152(r),155(r),148(r),1448(r)
                                                    1445(r),1442(r)
  1531. BD*(   1) N  76 - C  77          0.00764     0.48081   
  1532. BD*(   1) C  77 - H  78          0.00733     0.43353   
       -------------------------------
              Total Lewis   21.09849  ( 96.6767%)
        Valence non-Lewis    0.69019  (  3.1626%)
        Rydberg non-Lewis    0.03509  (  0.1608%)
       -------------------------------
            Total unit  4   21.82377  (100.0000%)
           Charge unit  4    0.17623
 Unable to Open any file for archive entry.
 1\1\GINC-BGN1028\SP\UAPFD\def2TZVP\C34H36Fe1N6O1(5)\BEBJONES\28-Mar-20
 24\0\\# apfd/def2TZVP scf=maxcycle=999 geom=check pop=nbo\\1bz6_II_Q\\
 0,5\Fe,0,-0.5332829154,9.4782334547,15.4407824312\N,0,-1.9035464454,10
 .7506394522,16.1427569115\N,0,-1.9879662675,8.1381698314,15.0563437775
 \N,0,0.8377420286,8.1395565985,14.8123315415\N,0,0.9192583936,10.74948
 60769,15.9306970255\C,0,-1.6748432449,12.000095935,16.6249222451\C,0,-
 2.921434715,12.6704304148,16.923282712\C,0,-3.9107187728,11.7850276514
 ,16.6290028876\C,0,-3.2537999688,10.5911606646,16.1431701322\C,0,-3.32
 71640458,8.3186086922,15.2201682942\C,0,-4.0626629009,7.1650853569,14.
 7680320215\C,0,-3.1298397709,6.2606059613,14.3358893206\C,0,-1.8397663
 972,6.896361726,14.5267344931\C,0,0.6104747662,6.8609369482,14.4024046
 729\C,0,1.8488588076,6.1527486136,14.2110834297\C,0,2.8478889571,7.027
 6246988,14.5502649045\C,0,2.1871445325,8.2652691419,14.9137927559\C,0,
 2.2574590233,10.5519950722,15.803867084\C,0,2.994531904,11.6794835197,
 16.3342004996\C,0,2.0650403507,12.5653340168,16.7798687615\C,0,0.77393
 70076,11.9675717153,16.5140821273\C,0,-0.4300903995,12.5671320617,16.8
 281762654\H,0,-0.3975501966,13.5545139226,17.2630745331\C,0,-3.9260411
 106,9.4566585106,15.7337127193\H,0,-5.0026018266,9.4614666606,15.81378
 35127\C,0,-0.6374588375,6.2907463142,14.2213709191\H,0,-0.669301568,5.
 2744995078,13.8594200736\C,0,2.8584340298,9.3996522414,15.3348795362\H
 ,0,3.9372659396,9.3667492684,15.3414440101\C,0,-5.3881499536,11.943203
 583,16.7502397455\H,0,-5.640983555,12.9254720267,17.1418217858\H,0,-5.
 8001818353,11.1902595037,17.4224589179\H,0,-5.869777017,11.8273896958,
 15.7786206199\C,0,-3.0238186695,14.0581954907,17.4572007043\H,0,-2.543
 5944564,14.7651134219,16.7804517338\H,0,-2.5321490815,14.1329449158,18
 .4275335798\H,0,-4.0638658948,14.3514655064,17.5779750208\C,0,-5.54716
 5652,7.0501924887,14.7349239815\H,0,-6.0038619962,8.0015922372,14.4652
 073902\H,0,-5.9368887987,6.7547456613,15.7105858433\H,0,-5.8468057359,
 6.3009240587,14.0049126434\C,0,-3.3241960007,4.9451718135,13.767380763
 5\H,0,-2.6016378408,4.6496955477,13.0152133712\C,0,-4.291885184,4.0954
 387569,14.0967062971\H,0,-5.0089607433,4.3138769011,14.8685923878\H,0,
 -4.3835445096,3.1340195644,13.6188439297\C,0,1.9701381542,4.7600371935
 ,13.6988729363\H,0,1.2462014836,4.5785278547,12.9058588399\H,0,1.78880
 27721,4.0335584711,14.4928769053\H,0,2.9697364323,4.5937492023,13.3025
 883736\C,0,4.2802665936,6.8271562567,14.5435211953\H,0,4.8744177141,7.
 6948875427,14.2805669013\C,0,4.9006110237,5.689728043,14.8398517447\H,
 0,4.3652760683,4.8103694812,15.1531220908\H,0,5.9741181952,5.606085412
 8,14.8020250303\C,0,4.4816925471,11.7753044905,16.35800585\H,0,4.88858
 71809,11.6810618757,15.3509946423\H,0,4.9074779836,10.9794579997,16.97
 00268984\H,0,4.8016090387,12.7298719277,16.7685893002\C,0,2.2594989707
 ,13.8936616798,17.4271802781\H,0,1.770603512,14.677319456,16.848178541
 9\H,0,3.3166479528,14.1349021516,17.5060368717\H,0,1.8311830735,13.897
 6733669,18.4297517362\O,0,-0.286,8.505,17.477\H,0,0.261,7.73,17.348\H,
 0,-0.61,8.797,18.252\C,0,0.5151413313,11.419123524,10.3305392996\H,0,0
 .3039149747,12.4681186645,10.1251503044\H,0,0.1707573494,10.830054684,
 9.4808276942\H,0,1.5883533814,11.2934248497,10.4291185193\N,0,-1.51744
 01366,10.9834267705,11.7251345337\H,0,-2.1810100858,11.2684364751,11.0
 23838833\C,0,-0.1546952702,10.9807060816,11.5811962116\C,0,-1.79939440
 12,10.5295018053,12.9675612284\H,0,-2.7902244602,10.4233586247,13.3587
 592274\N,0,-0.6985268414,10.2404318992,13.618292676\C,0,0.3328442616,1
 0.5170084794,12.7692984134\H,0,1.3482220054,10.3636372181,13.069944445
 8\\Version=ES64L-G16RevC.02\State=5-A\HF=-2984.0049189\S2=6.013817\S2-
 1=0.\S2A=6.000058\RMSD=2.798e-09\Dipole=-0.4377275,1.0097187,-1.029140
 5\Quadrupole=-2.5513176,-4.4472737,6.9985913,-2.726917,2.8744717,-6.14
 13139\PG=C01 [X(C34H36Fe1N6O1)]\\@
 The archive entry for this job was punched.


 I FIND THAT THE THREE TRULY GREAT TIMES FOR THINKING THOUGHTS
 ARE WHEN I AM STANDING IN THE SHOWER, SITTING ON THE JOHN, OR WALKING.

                                    -- COLIN FLETCHER
 Job cpu time:       3 days  6 hours 58 minutes  5.1 seconds.
 Elapsed time:       0 days  1 hours 11 minutes 49.2 seconds.
 File lengths (MBytes):  RWF=   2158 Int=      0 D2E=      0 Chk=    192 Scr=      1
 Normal termination of Gaussian 16 at Thu Mar 28 02:02:00 2024.
