 Entering Gaussian System, Link 0=g16
 Input=1bz612.com
 Output=1bz612.log
 Initial command:
 /sw/chem/gaussian/g16_C02/a100/g16/l1.exe "/local/bebjones_7797061/Gau-527632.inp" -scrdir="/local/bebjones_7797061/"
 Entering Link 1 = /sw/chem/gaussian/g16_C02/a100/g16/l1.exe PID=    527633.
  
 Copyright (c) 1988-2021, Gaussian, Inc.  All Rights Reserved.
  
 This is part of the Gaussian(R) 16 program.  It is based on
 the Gaussian(R) 09 system (copyright 2009, Gaussian, Inc.),
 the Gaussian(R) 03 system (copyright 2003, Gaussian, Inc.),
 the Gaussian(R) 98 system (copyright 1998, Gaussian, Inc.),
 the Gaussian(R) 94 system (copyright 1995, Gaussian, Inc.),
 the Gaussian 92(TM) system (copyright 1992, Gaussian, Inc.),
 the Gaussian 90(TM) system (copyright 1990, Gaussian, Inc.),
 the Gaussian 88(TM) system (copyright 1988, Gaussian, Inc.),
 the Gaussian 86(TM) system (copyright 1986, Carnegie Mellon
 University), and the Gaussian 82(TM) system (copyright 1983,
 Carnegie Mellon University). Gaussian is a federally registered
 trademark of Gaussian, Inc.
  
 This software contains proprietary and confidential information,
 including trade secrets, belonging to Gaussian, Inc.
  
 This software is provided under written license and may be
 used, copied, transmitted, or stored only in accord with that
 written license.
  
 The following legend is applicable only to US Government
 contracts under FAR:
  
                    RESTRICTED RIGHTS LEGEND
  
 Use, reproduction and disclosure by the US Government is
 subject to restrictions as set forth in subparagraphs (a)
 and (c) of the Commercial Computer Software - Restricted
 Rights clause in FAR 52.227-19.
  
 Gaussian, Inc.
 340 Quinnipiac St., Bldg. 40, Wallingford CT 06492
  
  
 ---------------------------------------------------------------
 Warning -- This program may not be used in any manner that
 competes with the business of Gaussian, Inc. or will provide
 assistance to any competitor of Gaussian, Inc.  The licensee
 of this program is prohibited from giving any competitor of
 Gaussian, Inc. access to this program.  By using this program,
 the user acknowledges that Gaussian, Inc. is engaged in the
 business of creating and licensing software in the field of
 computational chemistry and represents and warrants to the
 licensee that it is not a competitor of Gaussian, Inc. and that
 it will not use this program in any manner prohibited above.
 ---------------------------------------------------------------
  

 Cite this work as:
 Gaussian 16, Revision C.02,
 M. J. Frisch, G. W. Trucks, H. B. Schlegel, G. E. Scuseria, 
 M. A. Robb, J. R. Cheeseman, G. Scalmani, V. Barone, 
 G. A. Petersson, H. Nakatsuji, X. Li, M. Caricato, A. V. Marenich, 
 J. Bloino, B. G. Janesko, R. Gomperts, B. Mennucci, H. P. Hratchian, 
 J. V. Ortiz, A. F. Izmaylov, J. L. Sonnenberg, D. Williams-Young, 
 F. Ding, F. Lipparini, F. Egidi, J. Goings, B. Peng, A. Petrone, 
 T. Henderson, D. Ranasinghe, V. G. Zakrzewski, J. Gao, N. Rega, 
 G. Zheng, W. Liang, M. Hada, M. Ehara, K. Toyota, R. Fukuda, 
 J. Hasegawa, M. Ishida, T. Nakajima, Y. Honda, O. Kitao, H. Nakai, 
 T. Vreven, K. Throssell, J. A. Montgomery, Jr., J. E. Peralta, 
 F. Ogliaro, M. J. Bearpark, J. J. Heyd, E. N. Brothers, K. N. Kudin, 
 V. N. Staroverov, T. A. Keith, R. Kobayashi, J. Normand, 
 K. Raghavachari, A. P. Rendell, J. C. Burant, S. S. Iyengar, 
 J. Tomasi, M. Cossi, J. M. Millam, M. Klene, C. Adamo, R. Cammi, 
 J. W. Ochterski, R. L. Martin, K. Morokuma, O. Farkas, 
 J. B. Foresman, and D. J. Fox, Gaussian, Inc., Wallingford CT, 2019.
 
 ******************************************
 Gaussian 16:  ES64L-G16RevC.02  7-Dec-2021
                30-Mar-2024 
 ******************************************
 %mem=16GB
 %CPU=0-71
 SetSPE:  set environment variable "OMP_PROC_BIND" = "true"
 SetSPE:  set environment variable "OMP_PLACES" = "{0},{1},{2},{3},{4},{5},{6},{7},{8},{9},{10},{11},{12},{13},{14},{15},{16},{17},{18},{19},{20},{21},{22},{23},{24},{25},{26},{27},{28},{29},{30},{31},{32},{33},{34},{35},{36},{37},{38},{39},{40},{41},{42},{43},{44},{45},{46},{47},{48},{49},{50},{51},{52},{53},{54},{55},{56},{57},{58},{59},{60},{61},{62},{63},{64},{65},{66},{67},{68},{69},{70},{71}"
 Will use up to   72 processors via shared memory.
 %gpucpu=0,1,2,3=0,1,2,3
 Will use    4 GPUs:
 Thread  CPU   GPU
      0    0     0
      1    1     1
      2    2     2
      3    3     3
      4    4    -1
      5    5    -1
      6    6    -1
      7    7    -1
      8    8    -1
      9    9    -1
     10   10    -1
     11   11    -1
     12   12    -1
     13   13    -1
     14   14    -1
     15   15    -1
     16   16    -1
     17   17    -1
     18   18    -1
     19   19    -1
     20   20    -1
     21   21    -1
     22   22    -1
     23   23    -1
     24   24    -1
     25   25    -1
     26   26    -1
     27   27    -1
     28   28    -1
     29   29    -1
     30   30    -1
     31   31    -1
     32   32    -1
     33   33    -1
     34   34    -1
     35   35    -1
     36   36    -1
     37   37    -1
     38   38    -1
     39   39    -1
     40   40    -1
     41   41    -1
     42   42    -1
     43   43    -1
     44   44    -1
     45   45    -1
     46   46    -1
     47   47    -1
     48   48    -1
     49   49    -1
     50   50    -1
     51   51    -1
     52   52    -1
     53   53    -1
     54   54    -1
     55   55    -1
     56   56    -1
     57   57    -1
     58   58    -1
     59   59    -1
     60   60    -1
     61   61    -1
     62   62    -1
     63   63    -1
     64   64    -1
     65   65    -1
     66   66    -1
     67   67    -1
     68   68    -1
     69   69    -1
     70   70    -1
     71   71    -1
 SetGPE:  set environment variable "OMP_PROC_BIND" = "true"
 SetGPE:  set environment variable "OMP_PLACES" = "{0},{1},{2},{3},{4},{5},{6},{7},{8},{9},{10},{11},{12},{13},{14},{15},{16},{17},{18},{19},{20},{21},{22},{23},{24},{25},{26},{27},{28},{29},{30},{31},{32},{33},{34},{35},{36},{37},{38},{39},{40},{41},{42},{43},{44},{45},{46},{47},{48},{49},{50},{51},{52},{53},{54},{55},{56},{57},{58},{59},{60},{61},{62},{63},{64},{65},{66},{67},{68},{69},{70},{71}"
 %oldchk=1bz6_II_S.chk
 %chk=1bz6_III_Dn.chk
 Properties for Device   0
 Minimum vector length:                              32
 Maximum vector length:                            1024
 Number of SMPs:                                    108
 Maximum number of threads per SMP:                2048
 Number of ASync Engines:                             5
 Memory:                                           9192980480
 Properties for Device   1
 Minimum vector length:                              32
 Maximum vector length:                            1024
 Number of SMPs:                                    108
 Maximum number of threads per SMP:                2048
 Number of ASync Engines:                             5
 Memory:                                           9192980480
 Properties for Device   2
 Minimum vector length:                              32
 Maximum vector length:                            1024
 Number of SMPs:                                    108
 Maximum number of threads per SMP:                2048
 Number of ASync Engines:                             5
 Memory:                                           9192980480
 Properties for Device   3
 Minimum vector length:                              32
 Maximum vector length:                            1024
 Number of SMPs:                                    108
 Maximum number of threads per SMP:                2048
 Number of ASync Engines:                             5
 Memory:                                           9192980480
   8273682432 words of memory will be used on each GPU.
 Copying data from "1bz6_II_S.chk" to current chk file "1bz6_III_Dn.chk"
 IOpt=  2 FromEx=T IUOpen= 4 IOptOp= 5 NList=   0 IFRang= 0 IUIn= 4 IUOut= 2.
 ---------------------------------------------------
 # apfd/def2TZVP scf=maxcycle=999 geom=check pop=nbo
 ---------------------------------------------------
 1/29=2,38=1,172=1/1;
 2/12=2,40=1/2;
 3/5=44,7=101,11=2,14=-4,25=1,30=1,74=-44/1,2,3;
 4//1;
 5/5=2,7=999,38=5/2;
 6/7=2,8=2,9=2,10=2,28=1,40=1/1,7;
 99/5=1,9=1/99;
 ----------
 1bz6_III_D
 ----------
 Structure from the checkpoint file:  "1bz6_III_Dn.chk"
 Charge =  1 Multiplicity = 2
 Z-Matrix found in chk file.
 Fe,0,-0.5332829154,9.4782334547,15.4407824312
 N,0,-1.9035464454,10.7506394522,16.1427569115
 N,0,-1.9879662675,8.1381698314,15.0563437775
 N,0,0.8377420286,8.1395565985,14.8123315415
 N,0,0.9192583936,10.7494860769,15.9306970255
 C,0,-1.6748432449,12.000095935,16.6249222451
 C,0,-2.921434715,12.6704304148,16.923282712
 C,0,-3.9107187728,11.7850276514,16.6290028876
 C,0,-3.2537999688,10.5911606646,16.1431701322
 C,0,-3.3271640458,8.3186086922,15.2201682942
 C,0,-4.0626629009,7.1650853569,14.7680320215
 C,0,-3.1298397709,6.2606059613,14.3358893206
 C,0,-1.8397663972,6.896361726,14.5267344931
 C,0,0.6104747662,6.8609369482,14.4024046729
 C,0,1.8488588076,6.1527486136,14.2110834297
 C,0,2.8478889571,7.0276246988,14.5502649045
 C,0,2.1871445325,8.2652691419,14.9137927559
 C,0,2.2574590233,10.5519950722,15.803867084
 C,0,2.994531904,11.6794835197,16.3342004996
 C,0,2.0650403507,12.5653340168,16.7798687615
 C,0,0.7739370076,11.9675717153,16.5140821273
 C,0,-0.4300903995,12.5671320617,16.8281762654
 H,0,-0.3975501966,13.5545139226,17.2630745331
 C,0,-3.9260411106,9.4566585106,15.7337127193
 H,0,-5.0026018266,9.4614666606,15.8137835127
 C,0,-0.6374588375,6.2907463142,14.2213709191
 H,0,-0.669301568,5.2744995078,13.8594200736
 C,0,2.8584340298,9.3996522414,15.3348795362
 H,0,3.9372659396,9.3667492684,15.3414440101
 C,0,-5.3881499536,11.943203583,16.7502397455
 H,0,-5.640983555,12.9254720267,17.1418217858
 H,0,-5.8001818353,11.1902595037,17.4224589179
 H,0,-5.869777017,11.8273896958,15.7786206199
 C,0,-3.0238186695,14.0581954907,17.4572007043
 H,0,-2.5435944564,14.7651134219,16.7804517338
 H,0,-2.5321490815,14.1329449158,18.4275335798
 H,0,-4.0638658948,14.3514655064,17.5779750208
 C,0,-5.547165652,7.0501924887,14.7349239815
 H,0,-6.0038619962,8.0015922372,14.4652073902
 H,0,-5.9368887987,6.7547456613,15.7105858433
 H,0,-5.8468057359,6.3009240587,14.0049126434
 C,0,-3.3241960007,4.9451718135,13.7673807635
 H,0,-2.6016378408,4.6496955477,13.0152133712
 C,0,-4.291885184,4.0954387569,14.0967062971
 H,0,-5.0089607433,4.3138769011,14.8685923878
 H,0,-4.3835445096,3.1340195644,13.6188439297
 C,0,1.9701381542,4.7600371935,13.6988729363
 H,0,1.2462014836,4.5785278547,12.9058588399
 H,0,1.7888027721,4.0335584711,14.4928769053
 H,0,2.9697364323,4.5937492023,13.3025883736
 C,0,4.2802665936,6.8271562567,14.5435211953
 H,0,4.8744177141,7.6948875427,14.2805669013
 C,0,4.9006110237,5.689728043,14.8398517447
 H,0,4.3652760683,4.8103694812,15.1531220908
 H,0,5.9741181952,5.6060854128,14.8020250303
 C,0,4.4816925471,11.7753044905,16.35800585
 H,0,4.8885871809,11.6810618757,15.3509946423
 H,0,4.9074779836,10.9794579997,16.9700268984
 H,0,4.8016090387,12.7298719277,16.7685893002
 C,0,2.2594989707,13.8936616798,17.4271802781
 H,0,1.770603512,14.677319456,16.8481785419
 H,0,3.3166479528,14.1349021516,17.5060368717
 H,0,1.8311830735,13.8976733669,18.4297517362
 O,0,-0.286,8.505,17.477
 H,0,0.261,7.73,17.348
 H,0,-0.61,8.797,18.252
 C,0,0.5151413313,11.419123524,10.3305392996
 H,0,0.3039149747,12.4681186645,10.1251503044
 H,0,0.1707573494,10.830054684,9.4808276942
 H,0,1.5883533814,11.2934248497,10.4291185193
 N,0,-1.5174401366,10.9834267705,11.7251345337
 H,0,-2.1810100858,11.2684364751,11.023838833
 C,0,-0.1546952702,10.9807060816,11.5811962116
 C,0,-1.7993944012,10.5295018053,12.9675612284
 H,0,-2.7902244602,10.4233586247,13.3587592274
 N,0,-0.6985268414,10.2404318992,13.618292676
 C,0,0.3328442616,10.5170084794,12.7692984134
 H,0,1.3482220054,10.3636372181,13.0699444458
 Recover connectivity data from disk.
 Stoichiometry    C34H36FeN6O(1+,2)
 Framework group  C1[X(C34H36FeN6O)]
 Deg. of freedom   228
 Full point group                 C1      NOp   1
 Largest Abelian subgroup         C1      NOp   1
 Largest concise Abelian subgroup C1      NOp   1
                         Standard orientation:                         
 ---------------------------------------------------------------------
 Center     Atomic      Atomic             Coordinates (Angstroms)
 Number     Number       Type             X           Y           Z
 ---------------------------------------------------------------------
      1         26           0       -0.028235   -0.192327   -0.312320
      2          7           0       -1.266089   -1.747290   -0.510357
      3          7           0       -1.607472    1.058275   -0.353242
      4          7           0        1.204183    1.400307   -0.205659
      5          7           0        1.542536   -1.413818   -0.393651
      6          6           0       -0.915505   -3.059144   -0.555744
      7          6           0       -2.090093   -3.903083   -0.577334
      8          6           0       -3.161672   -3.065944   -0.565585
      9          6           0       -2.625439   -1.722948   -0.524216
     10          6           0       -2.922259    0.710214   -0.408334
     11          6           0       -3.767822    1.875094   -0.344463
     12          6           0       -2.928704    2.954276   -0.265491
     13          6           0       -1.582352    2.413726   -0.271645
     14          6           0        0.852436    2.715517   -0.238107
     15          6           0        2.015535    3.558447   -0.329763
     16          6           0        3.095941    2.717085   -0.387623
     17          6           0        2.559746    1.373528   -0.299033
     18          6           0        2.854798   -1.062212   -0.379073
     19          6           0        3.699658   -2.228648   -0.525358
     20          6           0        2.862091   -3.294565   -0.623376
     21          6           0        1.518155   -2.764714   -0.533912
     22          6           0        0.379108   -3.543580   -0.595132
     23          1           0        0.508845   -4.611997   -0.677426
     24          6           0       -3.406054   -0.584305   -0.496099
     25          1           0       -4.476786   -0.715313   -0.538396
     26          6           0       -0.445575    3.195195   -0.220619
     27          1           0       -0.577179    4.266384   -0.216708
     28          6           0        3.339441    0.231023   -0.338123
     29          1           0        4.409991    0.359655   -0.386900
     30          6           0       -4.616343   -3.391704   -0.583890
     31          1           0       -4.771269   -4.467297   -0.618688
     32          1           0       -5.097323   -2.948180   -1.455967
     33          1           0       -5.110169   -3.003132    0.307495
     34          6           0       -2.055423   -5.392635   -0.615765
     35          1           0       -1.511058   -5.785156    0.243265
     36          1           0       -1.555595   -5.741329   -1.519898
     37          1           0       -3.061660   -5.804431   -0.601506
     38          6           0       -5.256567    1.856373   -0.307953
     39          1           0       -5.619588    1.011750    0.276263
     40          1           0       -5.669898    1.771472   -1.314451
     41          1           0       -5.629992    2.775274    0.139571
     42          6           0       -3.251799    4.360042   -0.161685
     43          1           0       -2.563862    4.955405    0.427753
     44          6           0       -4.296348    4.957411   -0.726479
     45          1           0       -4.986246    4.428230   -1.360300
     46          1           0       -4.482545    6.010349   -0.593316
     47          6           0        1.999262    5.047137   -0.313992
     48          1           0        1.258486    5.415218    0.394294
     49          1           0        1.750861    5.446532   -1.298816
     50          1           0        2.976659    5.428111   -0.025127
     51          6           0        4.502043    3.040095   -0.489986
     52          1           0        5.176791    2.369062    0.029195
     53          6           0        5.009957    4.065484   -1.165991
     54          1           0        4.392785    4.736065   -1.738191
     55          1           0        6.070132    4.256044   -1.189656
     56          6           0        5.189165   -2.188683   -0.559525
     57          1           0        5.581632   -1.726194    0.346339
     58          1           0        5.537668   -1.607178   -1.413710
     59          1           0        5.601650   -3.191571   -0.638248
     60          6           0        3.186803   -4.738739   -0.797171
     61          1           0        2.774414   -5.325690    0.023687
     62          1           0        4.262641   -4.893411   -0.822223
     63          1           0        2.764237   -5.117094   -1.728248
     64          8           0        0.130115    0.063278   -2.562677
     65          1           0        0.598821    0.883996   -2.715030
     66          1           0       -0.161413   -0.499523   -3.186482
     67          6           0        1.186757   -0.208662    5.119471
     68          1           0        1.077738   -1.143572    5.668333
     69          1           0        0.783962    0.595813    5.734441
     70          1           0        2.243007   -0.024247    4.953251
     71          7           0       -0.873885   -0.454175    3.719618
     72          1           0       -1.508962   -0.548730    4.494929
     73          6           0        0.481666   -0.277273    3.814415
     74          6           0       -1.194465   -0.469551    2.405783
     75          1           0       -2.189614   -0.592475    2.030796
     76          7           0       -0.124723   -0.313777    1.663954
     77          6           0        0.925808   -0.194036    2.525964
     78          1           0        1.922481   -0.056523    2.161773
 ---------------------------------------------------------------------
 Rotational constants (GHZ):           0.0926068           0.0911484           0.0593298
 Standard basis: def2TZVP (5D, 7F)
 There are  1744 symmetry adapted cartesian basis functions of A   symmetry.
 There are  1532 symmetry adapted basis functions of A   symmetry.
  1532 basis functions,  2481 primitive gaussians,  1744 cartesian basis functions
   158 alpha electrons      157 beta electrons
       nuclear repulsion energy      5964.0921437341 Hartrees.
 NAtoms=   78 NActive=   78 NUniq=   78 SFac= 1.00D+00 NAtFMM=   60 NAOKFM=T Big=T
 Integral buffers will be    131072 words long.
 Raffenetti 2 integral format.
 Two-electron integral symmetry is turned on.
 R6APFD:  NTU= -4 IXU= 1 FactS= 1.050
 Nuclear repulsion after empirical dispersion term =     5963.9395102147 Hartrees.
 One-electron integrals computed using PRISM.
   1 Symmetry operations used in ECPInt.
 ECPInt:  NShTT=  186355 NPrTT=  576197 LenC2=  147099 LenP2D=  301000.
 LDataN:  DoStor=T MaxTD1= 6 Len=  172
 Number of processors reduced to  23 by ecpmxn.
 NBasis=  1532 RedAO= T EigKep=  3.10D-06  NBF=  1532
 NBsUse=  1532 1.00D-06 EigRej= -1.00D+00 NBFU=  1532
 ExpMin= 4.20D-02 ExpMax= 3.01D+05 ExpMxC= 2.91D+03 IAcc=3 IRadAn=         5 AccDes= 0.00D+00
 Harris functional with IExCor= 3731 and IRadAn=       5 diagonalized for initial guess.
 HarFok:  IExCor= 3731 AccDes= 0.00D+00 IRadAn=         5 IDoV= 1 UseB2=F ITyADJ=14
 ICtDFT=  3500011 ScaDFX=  1.000000  1.000000  1.000000  1.000000
 FoFCou: FMM=F IPFlag=           0 FMFlag=      100000 FMFlg1=        2001
         NFxFlg=           0 DoJE=T BraDBF=F KetDBF=T FulRan=T
         wScrn=  0.000000 ICntrl=       500 IOpCl=  0 I1Cent=   200000004 NGrid=           0
         NMat0=    1 NMatS0=      1 NMatT0=    0 NMatD0=    1 NMtDS0=    0 NMtDT0=    0
 Petite list used in FoFCou.
 Initial guess <Sx>= 0.0000 <Sy>= 0.0000 <Sz>= 0.5000 <S**2>= 0.7500 S= 0.5000
 Requested convergence on RMS density matrix=1.00D-08 within 999 cycles.
 Requested convergence on MAX density matrix=1.00D-06.
 Requested convergence on             energy=1.00D-06.
 No special actions if energy rises.
 EnCoef did     3 forward-backward iterations
 EnCoef did   100 forward-backward iterations
 EnCoef did   100 forward-backward iterations
 EnCoef did   100 forward-backward iterations
 EnCoef did     2 forward-backward iterations
 Restarting incremental Fock formation.
 Restarting incremental Fock formation.
 Restarting incremental Fock formation.
 Restarting incremental Fock formation.
 Restarting incremental Fock formation.
 Restarting incremental Fock formation.
 Restarting incremental Fock formation.
 Restarting incremental Fock formation.
 Restarting incremental Fock formation.
 Restarting incremental Fock formation.
 SCF Done:  E(UAPFD) =  -2983.83538082     A.U. after  205 cycles
            NFock=205  Conv=0.21D-08     -V/T= 2.0035
 <Sx>= 0.0000 <Sy>= 0.0000 <Sz>= 0.5000 <S**2>= 0.8002 S= 0.5248
 <L.S>=  0.00000000000    
 Annihilation of the first spin contaminant:
 S**2 before annihilation     0.8002,   after     0.7509

 **********************************************************************

            Population analysis using the SCF Density.

 **********************************************************************

 Orbital symmetries:
 Alpha Orbitals:
       Occupied  (A) (A) (A) (A) (A) (A) (A) (A) (A) (A) (A) (A)
                 (A) (A) (A) (A) (A) (A) (A) (A) (A) (A) (A) (A)
                 (A) (A) (A) (A) (A) (A) (A) (A) (A) (A) (A) (A)
                 (A) (A) (A) (A) (A) (A) (A) (A) (A) (A) (A) (A)
                 (A) (A) (A) (A) (A) (A) (A) (A) (A) (A) (A) (A)
                 (A) (A) (A) (A) (A) (A) (A) (A) (A) (A) (A) (A)
                 (A) (A) (A) (A) (A) (A) (A) (A) (A) (A) (A) (A)
                 (A) (A) (A) (A) (A) (A) (A) (A) (A) (A) (A) (A)
                 (A) (A) (A) (A) (A) (A) (A) (A) (A) (A) (A) (A)
                 (A) (A) (A) (A) (A) (A) (A) (A) (A) (A) (A) (A)
                 (A) (A) (A) (A) (A) (A) (A) (A) (A) (A) (A) (A)
                 (A) (A) (A) (A) (A) (A) (A) (A) (A) (A) (A) (A)
                 (A) (A) (A) (A) (A) (A) (A) (A) (A) (A) (A) (A)
                 (A) (A)
       Virtual   (A) (A) (A) (A) (A) (A) (A) (A) (A) (A) (A) (A)
                 (A) (A) (A) (A) (A) (A) (A) (A) (A) (A) (A) (A)
                 (A) (A) (A) (A) (A) (A) (A) (A) (A) (A) (A) (A)
                 (A) (A) (A) (A) (A) (A) (A) (A) (A) (A) (A) (A)
                 (A) (A) (A) (A) (A) (A) (A) (A) (A) (A) (A) (A)
                 (A) (A) (A) (A) (A) (A) (A) (A) (A) (A) (A) (A)
                 (A) (A) (A) (A) (A) (A) (A) (A) (A) (A) (A) (A)
                 (A) (A) (A) (A) (A) (A) (A) (A) (A) (A) (A) (A)
                 (A) (A) (A) (A) (A) (A) (A) (A) (A) (A) (A) (A)
                 (A) (A) (A) (A) (A) (A) (A) (A) (A) (A) (A) (A)
                 (A) (A) (A) (A) (A) (A) (A) (A) (A) (A) (A) (A)
                 (A) (A) (A) (A) (A) (A) (A) (A) (A) (A) (A) (A)
                 (A) (A) (A) (A) (A) (A) (A) (A) (A) (A) (A) (A)
                 (A) (A) (A) (A) (A) (A) (A) (A) (A) (A) (A) (A)
                 (A) (A) (A) (A) (A) (A) (A) (A) (A) (A) (A) (A)
                 (A) (A) (A) (A) (A) (A) (A) (A) (A) (A) (A) (A)
                 (A) (A) (A) (A) (A) (A) (A) (A) (A) (A) (A) (A)
                 (A) (A) (A) (A) (A) (A) (A) (A) (A) (A) (A) (A)
                 (A) (A) (A) (A) (A) (A) (A) (A) (A) (A) (A) (A)
                 (A) (A) (A) (A) (A) (A) (A) (A) (A) (A) (A) (A)
                 (A) (A) (A) (A) (A) (A) (A) (A) (A) (A) (A) (A)
                 (A) (A) (A) (A) (A) (A) (A) (A) (A) (A) (A) (A)
                 (A) (A) (A) (A) (A) (A) (A) (A) (A) (A) (A) (A)
                 (A) (A) (A) (A) (A) (A) (A) (A) (A) (A) (A) (A)
                 (A) (A) (A) (A) (A) (A) (A) (A) (A) (A) (A) (A)
                 (A) (A) (A) (A) (A) (A) (A) (A) (A) (A) (A) (A)
                 (A) (A) (A) (A) (A) (A) (A) (A) (A) (A) (A) (A)
                 (A) (A) (A) (A) (A) (A) (A) (A) (A) (A) (A) (A)
                 (A) (A) (A) (A) (A) (A) (A) (A) (A) (A) (A) (A)
                 (A) (A) (A) (A) (A) (A) (A) (A) (A) (A) (A) (A)
                 (A) (A) (A) (A) (A) (A) (A) (A) (A) (A) (A) (A)
                 (A) (A) (A) (A) (A) (A) (A) (A) (A) (A) (A) (A)
                 (A) (A) (A) (A) (A) (A) (A) (A) (A) (A) (A) (A)
                 (A) (A) (A) (A) (A) (A) (A) (A) (A) (A) (A) (A)
                 (A) (A) (A) (A) (A) (A) (A) (A) (A) (A) (A) (A)
                 (A) (A) (A) (A) (A) (A) (A) (A) (A) (A) (A) (A)
                 (A) (A) (A) (A) (A) (A) (A) (A) (A) (A) (A) (A)
                 (A) (A) (A) (A) (A) (A) (A) (A) (A) (A) (A) (A)
                 (A) (A) (A) (A) (A) (A) (A) (A) (A) (A) (A) (A)
                 (A) (A) (A) (A) (A) (A) (A) (A) (A) (A) (A) (A)
                 (A) (A) (A) (A) (A) (A) (A) (A) (A) (A) (A) (A)
                 (A) (A) (A) (A) (A) (A) (A) (A) (A) (A) (A) (A)
                 (A) (A) (A) (A) (A) (A) (A) (A) (A) (A) (A) (A)
                 (A) (A) (A) (A) (A) (A) (A) (A) (A) (A) (A) (A)
                 (A) (A) (A) (A) (A) (A) (A) (A) (A) (A) (A) (A)
                 (A) (A) (A) (A) (A) (A) (A) (A) (A) (A) (A) (A)
                 (A) (A) (A) (A) (A) (A) (A) (A) (A) (A) (A) (A)
                 (A) (A) (A) (A) (A) (A) (A) (A) (A) (A) (A) (A)
                 (A) (A) (A) (A) (A) (A) (A) (A) (A) (A) (A) (A)
                 (A) (A) (A) (A) (A) (A) (A) (A) (A) (A) (A) (A)
                 (A) (A) (A) (A) (A) (A) (A) (A) (A) (A) (A) (A)
                 (A) (A) (A) (A) (A) (A) (A) (A) (A) (A) (A) (A)
                 (A) (A) (A) (A) (A) (A) (A) (A) (A) (A) (A) (A)
                 (A) (A) (A) (A) (A) (A) (A) (A) (A) (A) (A) (A)
                 (A) (A) (A) (A) (A) (A) (A) (A) (A) (A) (A) (A)
                 (A) (A) (A) (A) (A) (A) (A) (A) (A) (A) (A) (A)
                 (A) (A) (A) (A) (A) (A) (A) (A) (A) (A) (A) (A)
                 (A) (A) (A) (A) (A) (A) (A) (A) (A) (A) (A) (A)
                 (A) (A) (A) (A) (A) (A) (A) (A) (A) (A) (A) (A)
                 (A) (A) (A) (A) (A) (A) (A) (A) (A) (A) (A) (A)
                 (A) (A) (A) (A) (A) (A) (A) (A) (A) (A) (A) (A)
                 (A) (A) (A) (A) (A) (A) (A) (A) (A) (A) (A) (A)
                 (A) (A) (A) (A) (A) (A) (A) (A) (A) (A) (A) (A)
                 (A) (A) (A) (A) (A) (A) (A) (A) (A) (A) (A) (A)
                 (A) (A) (A) (A) (A) (A) (A) (A) (A) (A) (A) (A)
                 (A) (A) (A) (A) (A) (A) (A) (A) (A) (A) (A) (A)
                 (A) (A) (A) (A) (A) (A) (A) (A) (A) (A) (A) (A)
                 (A) (A) (A) (A) (A) (A) (A) (A) (A) (A) (A) (A)
                 (A) (A) (A) (A) (A) (A) (A) (A) (A) (A) (A) (A)
                 (A) (A) (A) (A) (A) (A) (A) (A) (A) (A) (A) (A)
                 (A) (A) (A) (A) (A) (A) (A) (A) (A) (A) (A) (A)
                 (A) (A) (A) (A) (A) (A) (A) (A) (A) (A) (A) (A)
                 (A) (A) (A) (A) (A) (A) (A) (A) (A) (A) (A) (A)
                 (A) (A) (A) (A) (A) (A) (A) (A) (A) (A) (A) (A)
                 (A) (A) (A) (A) (A) (A) (A) (A) (A) (A) (A) (A)
                 (A) (A) (A) (A) (A) (A) (A) (A) (A) (A) (A) (A)
                 (A) (A) (A) (A) (A) (A) (A) (A) (A) (A) (A) (A)
                 (A) (A) (A) (A) (A) (A) (A) (A) (A) (A) (A) (A)
                 (A) (A) (A) (A) (A) (A) (A) (A) (A) (A) (A) (A)
                 (A) (A) (A) (A) (A) (A) (A) (A) (A) (A) (A) (A)
                 (A) (A) (A) (A) (A) (A) (A) (A) (A) (A) (A) (A)
                 (A) (A) (A) (A) (A) (A) (A) (A) (A) (A) (A) (A)
                 (A) (A) (A) (A) (A) (A) (A) (A) (A) (A) (A) (A)
                 (A) (A) (A) (A) (A) (A) (A) (A) (A) (A) (A) (A)
                 (A) (A) (A) (A) (A) (A) (A) (A) (A) (A) (A) (A)
                 (A) (A) (A) (A) (A) (A) (A) (A) (A) (A) (A) (A)
                 (A) (A) (A) (A) (A) (A) (A) (A) (A) (A) (A) (A)
                 (A) (A) (A) (A) (A) (A) (A) (A) (A) (A) (A) (A)
                 (A) (A) (A) (A) (A) (A) (A) (A) (A) (A) (A) (A)
                 (A) (A) (A) (A) (A) (A) (A) (A) (A) (A) (A) (A)
                 (A) (A) (A) (A) (A) (A) (A) (A) (A) (A) (A) (A)
                 (A) (A) (A) (A) (A) (A) (A) (A) (A) (A) (A) (A)
                 (A) (A) (A) (A) (A) (A) (A) (A) (A) (A) (A) (A)
                 (A) (A) (A) (A) (A) (A) (A) (A) (A) (A) (A) (A)
                 (A) (A) (A) (A) (A) (A) (A) (A) (A) (A) (A) (A)
                 (A) (A) (A) (A) (A) (A) (A) (A) (A) (A) (A) (A)
                 (A) (A) (A) (A) (A) (A) (A) (A) (A) (A) (A) (A)
                 (A) (A) (A) (A) (A) (A) (A) (A) (A) (A) (A) (A)
                 (A) (A) (A) (A) (A) (A) (A) (A) (A) (A) (A) (A)
                 (A) (A) (A) (A) (A) (A) (A) (A) (A) (A) (A) (A)
                 (A) (A) (A) (A) (A) (A) (A) (A) (A) (A) (A) (A)
                 (A) (A) (A) (A) (A) (A) (A) (A) (A) (A) (A) (A)
                 (A) (A) (A) (A) (A) (A) (A) (A) (A) (A) (A) (A)
                 (A) (A) (A) (A) (A) (A) (A) (A) (A) (A) (A) (A)
                 (A) (A) (A) (A) (A) (A) (A) (A) (A) (A) (A) (A)
                 (A) (A) (A) (A) (A) (A) (A) (A) (A) (A) (A) (A)
                 (A) (A) (A) (A) (A) (A) (A) (A) (A) (A) (A) (A)
                 (A) (A) (A) (A) (A) (A) (A) (A) (A) (A) (A) (A)
                 (A) (A) (A) (A) (A) (A) (A) (A) (A) (A) (A) (A)
                 (A) (A) (A) (A) (A) (A) (A) (A) (A) (A) (A) (A)
                 (A) (A) (A) (A) (A) (A) (A) (A) (A) (A) (A) (A)
                 (A) (A) (A) (A) (A) (A) (A) (A) (A) (A) (A) (A)
                 (A) (A) (A) (A) (A) (A) (A) (A) (A) (A) (A) (A)
                 (A) (A) (A) (A) (A) (A) (A) (A) (A) (A) (A) (A)
                 (A) (A) (A) (A) (A) (A)
 Beta  Orbitals:
       Occupied  (A) (A) (A) (A) (A) (A) (A) (A) (A) (A) (A) (A)
                 (A) (A) (A) (A) (A) (A) (A) (A) (A) (A) (A) (A)
                 (A) (A) (A) (A) (A) (A) (A) (A) (A) (A) (A) (A)
                 (A) (A) (A) (A) (A) (A) (A) (A) (A) (A) (A) (A)
                 (A) (A) (A) (A) (A) (A) (A) (A) (A) (A) (A) (A)
                 (A) (A) (A) (A) (A) (A) (A) (A) (A) (A) (A) (A)
                 (A) (A) (A) (A) (A) (A) (A) (A) (A) (A) (A) (A)
                 (A) (A) (A) (A) (A) (A) (A) (A) (A) (A) (A) (A)
                 (A) (A) (A) (A) (A) (A) (A) (A) (A) (A) (A) (A)
                 (A) (A) (A) (A) (A) (A) (A) (A) (A) (A) (A) (A)
                 (A) (A) (A) (A) (A) (A) (A) (A) (A) (A) (A) (A)
                 (A) (A) (A) (A) (A) (A) (A) (A) (A) (A) (A) (A)
                 (A) (A) (A) (A) (A) (A) (A) (A) (A) (A) (A) (A)
                 (A)
       Virtual   (A) (A) (A) (A) (A) (A) (A) (A) (A) (A) (A) (A)
                 (A) (A) (A) (A) (A) (A) (A) (A) (A) (A) (A) (A)
                 (A) (A) (A) (A) (A) (A) (A) (A) (A) (A) (A) (A)
                 (A) (A) (A) (A) (A) (A) (A) (A) (A) (A) (A) (A)
                 (A) (A) (A) (A) (A) (A) (A) (A) (A) (A) (A) (A)
                 (A) (A) (A) (A) (A) (A) (A) (A) (A) (A) (A) (A)
                 (A) (A) (A) (A) (A) (A) (A) (A) (A) (A) (A) (A)
                 (A) (A) (A) (A) (A) (A) (A) (A) (A) (A) (A) (A)
                 (A) (A) (A) (A) (A) (A) (A) (A) (A) (A) (A) (A)
                 (A) (A) (A) (A) (A) (A) (A) (A) (A) (A) (A) (A)
                 (A) (A) (A) (A) (A) (A) (A) (A) (A) (A) (A) (A)
                 (A) (A) (A) (A) (A) (A) (A) (A) (A) (A) (A) (A)
                 (A) (A) (A) (A) (A) (A) (A) (A) (A) (A) (A) (A)
                 (A) (A) (A) (A) (A) (A) (A) (A) (A) (A) (A) (A)
                 (A) (A) (A) (A) (A) (A) (A) (A) (A) (A) (A) (A)
                 (A) (A) (A) (A) (A) (A) (A) (A) (A) (A) (A) (A)
                 (A) (A) (A) (A) (A) (A) (A) (A) (A) (A) (A) (A)
                 (A) (A) (A) (A) (A) (A) (A) (A) (A) (A) (A) (A)
                 (A) (A) (A) (A) (A) (A) (A) (A) (A) (A) (A) (A)
                 (A) (A) (A) (A) (A) (A) (A) (A) (A) (A) (A) (A)
                 (A) (A) (A) (A) (A) (A) (A) (A) (A) (A) (A) (A)
                 (A) (A) (A) (A) (A) (A) (A) (A) (A) (A) (A) (A)
                 (A) (A) (A) (A) (A) (A) (A) (A) (A) (A) (A) (A)
                 (A) (A) (A) (A) (A) (A) (A) (A) (A) (A) (A) (A)
                 (A) (A) (A) (A) (A) (A) (A) (A) (A) (A) (A) (A)
                 (A) (A) (A) (A) (A) (A) (A) (A) (A) (A) (A) (A)
                 (A) (A) (A) (A) (A) (A) (A) (A) (A) (A) (A) (A)
                 (A) (A) (A) (A) (A) (A) (A) (A) (A) (A) (A) (A)
                 (A) (A) (A) (A) (A) (A) (A) (A) (A) (A) (A) (A)
                 (A) (A) (A) (A) (A) (A) (A) (A) (A) (A) (A) (A)
                 (A) (A) (A) (A) (A) (A) (A) (A) (A) (A) (A) (A)
                 (A) (A) (A) (A) (A) (A) (A) (A) (A) (A) (A) (A)
                 (A) (A) (A) (A) (A) (A) (A) (A) (A) (A) (A) (A)
                 (A) (A) (A) (A) (A) (A) (A) (A) (A) (A) (A) (A)
                 (A) (A) (A) (A) (A) (A) (A) (A) (A) (A) (A) (A)
                 (A) (A) (A) (A) (A) (A) (A) (A) (A) (A) (A) (A)
                 (A) (A) (A) (A) (A) (A) (A) (A) (A) (A) (A) (A)
                 (A) (A) (A) (A) (A) (A) (A) (A) (A) (A) (A) (A)
                 (A) (A) (A) (A) (A) (A) (A) (A) (A) (A) (A) (A)
                 (A) (A) (A) (A) (A) (A) (A) (A) (A) (A) (A) (A)
                 (A) (A) (A) (A) (A) (A) (A) (A) (A) (A) (A) (A)
                 (A) (A) (A) (A) (A) (A) (A) (A) (A) (A) (A) (A)
                 (A) (A) (A) (A) (A) (A) (A) (A) (A) (A) (A) (A)
                 (A) (A) (A) (A) (A) (A) (A) (A) (A) (A) (A) (A)
                 (A) (A) (A) (A) (A) (A) (A) (A) (A) (A) (A) (A)
                 (A) (A) (A) (A) (A) (A) (A) (A) (A) (A) (A) (A)
                 (A) (A) (A) (A) (A) (A) (A) (A) (A) (A) (A) (A)
                 (A) (A) (A) (A) (A) (A) (A) (A) (A) (A) (A) (A)
                 (A) (A) (A) (A) (A) (A) (A) (A) (A) (A) (A) (A)
                 (A) (A) (A) (A) (A) (A) (A) (A) (A) (A) (A) (A)
                 (A) (A) (A) (A) (A) (A) (A) (A) (A) (A) (A) (A)
                 (A) (A) (A) (A) (A) (A) (A) (A) (A) (A) (A) (A)
                 (A) (A) (A) (A) (A) (A) (A) (A) (A) (A) (A) (A)
                 (A) (A) (A) (A) (A) (A) (A) (A) (A) (A) (A) (A)
                 (A) (A) (A) (A) (A) (A) (A) (A) (A) (A) (A) (A)
                 (A) (A) (A) (A) (A) (A) (A) (A) (A) (A) (A) (A)
                 (A) (A) (A) (A) (A) (A) (A) (A) (A) (A) (A) (A)
                 (A) (A) (A) (A) (A) (A) (A) (A) (A) (A) (A) (A)
                 (A) (A) (A) (A) (A) (A) (A) (A) (A) (A) (A) (A)
                 (A) (A) (A) (A) (A) (A) (A) (A) (A) (A) (A) (A)
                 (A) (A) (A) (A) (A) (A) (A) (A) (A) (A) (A) (A)
                 (A) (A) (A) (A) (A) (A) (A) (A) (A) (A) (A) (A)
                 (A) (A) (A) (A) (A) (A) (A) (A) (A) (A) (A) (A)
                 (A) (A) (A) (A) (A) (A) (A) (A) (A) (A) (A) (A)
                 (A) (A) (A) (A) (A) (A) (A) (A) (A) (A) (A) (A)
                 (A) (A) (A) (A) (A) (A) (A) (A) (A) (A) (A) (A)
                 (A) (A) (A) (A) (A) (A) (A) (A) (A) (A) (A) (A)
                 (A) (A) (A) (A) (A) (A) (A) (A) (A) (A) (A) (A)
                 (A) (A) (A) (A) (A) (A) (A) (A) (A) (A) (A) (A)
                 (A) (A) (A) (A) (A) (A) (A) (A) (A) (A) (A) (A)
                 (A) (A) (A) (A) (A) (A) (A) (A) (A) (A) (A) (A)
                 (A) (A) (A) (A) (A) (A) (A) (A) (A) (A) (A) (A)
                 (A) (A) (A) (A) (A) (A) (A) (A) (A) (A) (A) (A)
                 (A) (A) (A) (A) (A) (A) (A) (A) (A) (A) (A) (A)
                 (A) (A) (A) (A) (A) (A) (A) (A) (A) (A) (A) (A)
                 (A) (A) (A) (A) (A) (A) (A) (A) (A) (A) (A) (A)
                 (A) (A) (A) (A) (A) (A) (A) (A) (A) (A) (A) (A)
                 (A) (A) (A) (A) (A) (A) (A) (A) (A) (A) (A) (A)
                 (A) (A) (A) (A) (A) (A) (A) (A) (A) (A) (A) (A)
                 (A) (A) (A) (A) (A) (A) (A) (A) (A) (A) (A) (A)
                 (A) (A) (A) (A) (A) (A) (A) (A) (A) (A) (A) (A)
                 (A) (A) (A) (A) (A) (A) (A) (A) (A) (A) (A) (A)
                 (A) (A) (A) (A) (A) (A) (A) (A) (A) (A) (A) (A)
                 (A) (A) (A) (A) (A) (A) (A) (A) (A) (A) (A) (A)
                 (A) (A) (A) (A) (A) (A) (A) (A) (A) (A) (A) (A)
                 (A) (A) (A) (A) (A) (A) (A) (A) (A) (A) (A) (A)
                 (A) (A) (A) (A) (A) (A) (A) (A) (A) (A) (A) (A)
                 (A) (A) (A) (A) (A) (A) (A) (A) (A) (A) (A) (A)
                 (A) (A) (A) (A) (A) (A) (A) (A) (A) (A) (A) (A)
                 (A) (A) (A) (A) (A) (A) (A) (A) (A) (A) (A) (A)
                 (A) (A) (A) (A) (A) (A) (A) (A) (A) (A) (A) (A)
                 (A) (A) (A) (A) (A) (A) (A) (A) (A) (A) (A) (A)
                 (A) (A) (A) (A) (A) (A) (A) (A) (A) (A) (A) (A)
                 (A) (A) (A) (A) (A) (A) (A) (A) (A) (A) (A) (A)
                 (A) (A) (A) (A) (A) (A) (A) (A) (A) (A) (A) (A)
                 (A) (A) (A) (A) (A) (A) (A) (A) (A) (A) (A) (A)
                 (A) (A) (A) (A) (A) (A) (A) (A) (A) (A) (A) (A)
                 (A) (A) (A) (A) (A) (A) (A) (A) (A) (A) (A) (A)
                 (A) (A) (A) (A) (A) (A) (A) (A) (A) (A) (A) (A)
                 (A) (A) (A) (A) (A) (A) (A) (A) (A) (A) (A) (A)
                 (A) (A) (A) (A) (A) (A) (A) (A) (A) (A) (A) (A)
                 (A) (A) (A) (A) (A) (A) (A) (A) (A) (A) (A) (A)
                 (A) (A) (A) (A) (A) (A) (A) (A) (A) (A) (A) (A)
                 (A) (A) (A) (A) (A) (A) (A) (A) (A) (A) (A) (A)
                 (A) (A) (A) (A) (A) (A) (A) (A) (A) (A) (A) (A)
                 (A) (A) (A) (A) (A) (A) (A) (A) (A) (A) (A) (A)
                 (A) (A) (A) (A) (A) (A) (A) (A) (A) (A) (A) (A)
                 (A) (A) (A) (A) (A) (A) (A) (A) (A) (A) (A) (A)
                 (A) (A) (A) (A) (A) (A) (A) (A) (A) (A) (A) (A)
                 (A) (A) (A) (A) (A) (A) (A) (A) (A) (A) (A) (A)
                 (A) (A) (A) (A) (A) (A) (A) (A) (A) (A) (A) (A)
                 (A) (A) (A) (A) (A) (A) (A) (A) (A) (A) (A) (A)
                 (A) (A) (A) (A) (A) (A) (A) (A) (A) (A) (A) (A)
                 (A) (A) (A) (A) (A) (A) (A) (A) (A) (A) (A) (A)
                 (A) (A) (A) (A) (A) (A) (A)
 The electronic state is 2-A.
 Alpha  occ. eigenvalues -- -256.39094 -30.25838 -26.10544 -26.10315 -26.07568
 Alpha  occ. eigenvalues --  -19.29779 -14.53234 -14.50133 -14.46112 -14.46074
 Alpha  occ. eigenvalues --  -14.45775 -14.45585 -10.37888 -10.35029 -10.32755
 Alpha  occ. eigenvalues --  -10.32705 -10.32695 -10.32621 -10.32587 -10.32574
 Alpha  occ. eigenvalues --  -10.32453 -10.32428 -10.32385 -10.30388 -10.29941
 Alpha  occ. eigenvalues --  -10.29669 -10.29616 -10.29611 -10.29609 -10.29584
 Alpha  occ. eigenvalues --  -10.29566 -10.29546 -10.29387 -10.29338 -10.29271
 Alpha  occ. eigenvalues --  -10.29250 -10.28851 -10.28686 -10.27896 -10.27870
 Alpha  occ. eigenvalues --  -10.27853 -10.27834 -10.27749 -10.27550 -10.27516
 Alpha  occ. eigenvalues --  -10.27295  -3.64292  -2.42621  -2.42054  -2.36277
 Alpha  occ. eigenvalues --   -1.17347  -1.17295  -1.08899  -1.08029  -1.07751
 Alpha  occ. eigenvalues --   -1.06904  -1.03181  -0.93504  -0.92289  -0.91912
 Alpha  occ. eigenvalues --   -0.91386  -0.91117  -0.90941  -0.90710  -0.90630
 Alpha  occ. eigenvalues --   -0.86770  -0.85558  -0.85234  -0.84308  -0.82899
 Alpha  occ. eigenvalues --   -0.82601  -0.81219  -0.80226  -0.78547  -0.78342
 Alpha  occ. eigenvalues --   -0.78056  -0.76370  -0.75149  -0.75099  -0.72851
 Alpha  occ. eigenvalues --   -0.72755  -0.70729  -0.70071  -0.68864  -0.68180
 Alpha  occ. eigenvalues --   -0.67375  -0.65143  -0.64445  -0.63640  -0.63389
 Alpha  occ. eigenvalues --   -0.61923  -0.61813  -0.61477  -0.59464  -0.59311
 Alpha  occ. eigenvalues --   -0.58902  -0.58308  -0.58126  -0.56159  -0.55600
 Alpha  occ. eigenvalues --   -0.55154  -0.54883  -0.54473  -0.54289  -0.54147
 Alpha  occ. eigenvalues --   -0.54040  -0.53473  -0.53386  -0.53289  -0.52994
 Alpha  occ. eigenvalues --   -0.52727  -0.52573  -0.52295  -0.52077  -0.51743
 Alpha  occ. eigenvalues --   -0.50845  -0.50693  -0.50517  -0.50379  -0.50271
 Alpha  occ. eigenvalues --   -0.50170  -0.49934  -0.49773  -0.49398  -0.49137
 Alpha  occ. eigenvalues --   -0.48600  -0.48373  -0.48243  -0.48179  -0.47856
 Alpha  occ. eigenvalues --   -0.47537  -0.47304  -0.47103  -0.46585  -0.46313
 Alpha  occ. eigenvalues --   -0.45913  -0.45434  -0.44904  -0.44382  -0.43836
 Alpha  occ. eigenvalues --   -0.43567  -0.43083  -0.42674  -0.41715  -0.41539
 Alpha  occ. eigenvalues --   -0.40645  -0.39935  -0.39497  -0.39353  -0.37606
 Alpha  occ. eigenvalues --   -0.37357  -0.35334  -0.33973  -0.33367  -0.32585
 Alpha  occ. eigenvalues --   -0.32164  -0.29937  -0.28942
 Alpha virt. eigenvalues --   -0.19511  -0.17786  -0.17754  -0.14819  -0.12116
 Alpha virt. eigenvalues --   -0.10234  -0.09009  -0.07768  -0.07455  -0.06392
 Alpha virt. eigenvalues --   -0.06178  -0.05426  -0.04380  -0.03896  -0.03058
 Alpha virt. eigenvalues --   -0.02731  -0.02568  -0.02261  -0.02168  -0.01167
 Alpha virt. eigenvalues --   -0.00698  -0.00596  -0.00009   0.00291   0.00327
 Alpha virt. eigenvalues --    0.00639   0.00776   0.01551   0.02090   0.02158
 Alpha virt. eigenvalues --    0.02528   0.02711   0.02826   0.03117   0.03435
 Alpha virt. eigenvalues --    0.03514   0.03653   0.03906   0.04075   0.04171
 Alpha virt. eigenvalues --    0.04457   0.04545   0.04980   0.05081   0.05202
 Alpha virt. eigenvalues --    0.05568   0.05619   0.05902   0.06178   0.06465
 Alpha virt. eigenvalues --    0.06888   0.07181   0.07243   0.07596   0.07815
 Alpha virt. eigenvalues --    0.07943   0.08008   0.08387   0.08655   0.08756
 Alpha virt. eigenvalues --    0.08921   0.09209   0.09394   0.09749   0.10105
 Alpha virt. eigenvalues --    0.10271   0.10714   0.10885   0.11187   0.11334
 Alpha virt. eigenvalues --    0.11682   0.11891   0.11979   0.12288   0.12552
 Alpha virt. eigenvalues --    0.13087   0.13264   0.13461   0.13492   0.13860
 Alpha virt. eigenvalues --    0.14003   0.14434   0.14704   0.15029   0.15284
 Alpha virt. eigenvalues --    0.15715   0.16052   0.16491   0.16843   0.16966
 Alpha virt. eigenvalues --    0.17023   0.17416   0.17621   0.17693   0.17924
 Alpha virt. eigenvalues --    0.18073   0.18310   0.18773   0.19348   0.19700
 Alpha virt. eigenvalues --    0.19786   0.20143   0.20553   0.20624   0.20964
 Alpha virt. eigenvalues --    0.21067   0.21341   0.21478   0.21918   0.22086
 Alpha virt. eigenvalues --    0.22194   0.22489   0.22684   0.23309   0.23433
 Alpha virt. eigenvalues --    0.23575   0.23986   0.24100   0.24481   0.24536
 Alpha virt. eigenvalues --    0.24927   0.24940   0.25424   0.25541   0.25755
 Alpha virt. eigenvalues --    0.26196   0.26714   0.27039   0.27354   0.27521
 Alpha virt. eigenvalues --    0.27957   0.28215   0.28316   0.28838   0.28910
 Alpha virt. eigenvalues --    0.29121   0.29251   0.29546   0.29934   0.30168
 Alpha virt. eigenvalues --    0.30352   0.30387   0.30715   0.31013   0.31231
 Alpha virt. eigenvalues --    0.31447   0.31654   0.31745   0.32149   0.32507
 Alpha virt. eigenvalues --    0.32666   0.32865   0.33049   0.33189   0.33394
 Alpha virt. eigenvalues --    0.33476   0.33589   0.34232   0.34404   0.34485
 Alpha virt. eigenvalues --    0.34921   0.35069   0.35338   0.35447   0.35561
 Alpha virt. eigenvalues --    0.35922   0.36018   0.36371   0.36672   0.36952
 Alpha virt. eigenvalues --    0.37399   0.37716   0.37944   0.37984   0.38156
 Alpha virt. eigenvalues --    0.38339   0.38492   0.38617   0.38918   0.39072
 Alpha virt. eigenvalues --    0.39245   0.39486   0.39886   0.40013   0.40261
 Alpha virt. eigenvalues --    0.40558   0.40907   0.41109   0.41391   0.41501
 Alpha virt. eigenvalues --    0.41511   0.41906   0.42170   0.42335   0.42434
 Alpha virt. eigenvalues --    0.42672   0.42813   0.43078   0.43192   0.43629
 Alpha virt. eigenvalues --    0.43713   0.43972   0.44176   0.44425   0.44602
 Alpha virt. eigenvalues --    0.44981   0.45223   0.45518   0.45588   0.45999
 Alpha virt. eigenvalues --    0.46200   0.46458   0.46820   0.46905   0.47142
 Alpha virt. eigenvalues --    0.47249   0.47461   0.48026   0.48161   0.48467
 Alpha virt. eigenvalues --    0.48609   0.48952   0.49426   0.49670   0.49908
 Alpha virt. eigenvalues --    0.50279   0.50481   0.50547   0.50971   0.51476
 Alpha virt. eigenvalues --    0.51921   0.52183   0.52248   0.52580   0.53105
 Alpha virt. eigenvalues --    0.53337   0.53552   0.54171   0.54266   0.54589
 Alpha virt. eigenvalues --    0.54740   0.54852   0.55194   0.55588   0.55788
 Alpha virt. eigenvalues --    0.55887   0.56255   0.56398   0.56907   0.57149
 Alpha virt. eigenvalues --    0.57236   0.57682   0.57912   0.58340   0.58752
 Alpha virt. eigenvalues --    0.58982   0.59429   0.59972   0.60456   0.60907
 Alpha virt. eigenvalues --    0.61119   0.61233   0.61558   0.61998   0.62458
 Alpha virt. eigenvalues --    0.62725   0.62806   0.63269   0.63539   0.63739
 Alpha virt. eigenvalues --    0.63860   0.64295   0.64640   0.64964   0.65232
 Alpha virt. eigenvalues --    0.65625   0.66161   0.66573   0.66855   0.67024
 Alpha virt. eigenvalues --    0.67607   0.68006   0.68421   0.68645   0.68802
 Alpha virt. eigenvalues --    0.68975   0.69156   0.69829   0.69957   0.70627
 Alpha virt. eigenvalues --    0.70871   0.70996   0.71410   0.71761   0.72171
 Alpha virt. eigenvalues --    0.72511   0.73000   0.73511   0.74074   0.74329
 Alpha virt. eigenvalues --    0.74881   0.75085   0.75353   0.75957   0.76307
 Alpha virt. eigenvalues --    0.76766   0.77137   0.77187   0.77545   0.78389
 Alpha virt. eigenvalues --    0.78737   0.78991   0.79341   0.79773   0.79887
 Alpha virt. eigenvalues --    0.80512   0.81125   0.81283   0.81522   0.82429
 Alpha virt. eigenvalues --    0.82744   0.83098   0.83224   0.83585   0.83972
 Alpha virt. eigenvalues --    0.84110   0.84342   0.85205   0.85436   0.85782
 Alpha virt. eigenvalues --    0.85935   0.86174   0.86990   0.87541   0.87599
 Alpha virt. eigenvalues --    0.87912   0.88219   0.88654   0.89021   0.89252
 Alpha virt. eigenvalues --    0.89339   0.90107   0.90748   0.90962   0.91116
 Alpha virt. eigenvalues --    0.91307   0.91735   0.91996   0.92324   0.92666
 Alpha virt. eigenvalues --    0.92829   0.93167   0.93705   0.93745   0.93993
 Alpha virt. eigenvalues --    0.94207   0.94278   0.94377   0.94828   0.95160
 Alpha virt. eigenvalues --    0.95600   0.95903   0.96132   0.96917   0.97277
 Alpha virt. eigenvalues --    0.97595   0.98497   0.98663   0.98755   0.99329
 Alpha virt. eigenvalues --    0.99720   0.99928   1.00300   1.00738   1.01245
 Alpha virt. eigenvalues --    1.02010   1.02379   1.02435   1.03334   1.03593
 Alpha virt. eigenvalues --    1.04279   1.05098   1.05714   1.05882   1.06261
 Alpha virt. eigenvalues --    1.06584   1.07288   1.07621   1.07778   1.08331
 Alpha virt. eigenvalues --    1.08632   1.08890   1.09384   1.09774   1.10050
 Alpha virt. eigenvalues --    1.10472   1.10811   1.11282   1.11441   1.11873
 Alpha virt. eigenvalues --    1.11943   1.12512   1.12646   1.13226   1.13492
 Alpha virt. eigenvalues --    1.14058   1.15244   1.15805   1.15913   1.16223
 Alpha virt. eigenvalues --    1.16853   1.17134   1.17512   1.17879   1.18065
 Alpha virt. eigenvalues --    1.18402   1.18764   1.18799   1.19434   1.19517
 Alpha virt. eigenvalues --    1.20089   1.20371   1.20767   1.21200   1.21516
 Alpha virt. eigenvalues --    1.21612   1.22310   1.22903   1.23045   1.23785
 Alpha virt. eigenvalues --    1.24720   1.25274   1.25949   1.26095   1.27162
 Alpha virt. eigenvalues --    1.27367   1.28083   1.28355   1.28723   1.29357
 Alpha virt. eigenvalues --    1.30191   1.30513   1.30606   1.31089   1.32288
 Alpha virt. eigenvalues --    1.32908   1.33903   1.34037   1.34483   1.34918
 Alpha virt. eigenvalues --    1.35408   1.35961   1.36366   1.36635   1.37063
 Alpha virt. eigenvalues --    1.37468   1.38045   1.38273   1.38549   1.38792
 Alpha virt. eigenvalues --    1.39037   1.39555   1.39706   1.39808   1.40540
 Alpha virt. eigenvalues --    1.40748   1.40915   1.41193   1.41403   1.42008
 Alpha virt. eigenvalues --    1.42439   1.42523   1.43150   1.43254   1.43477
 Alpha virt. eigenvalues --    1.43681   1.43845   1.43996   1.44456   1.44894
 Alpha virt. eigenvalues --    1.44978   1.45165   1.45380   1.45537   1.45956
 Alpha virt. eigenvalues --    1.46125   1.46433   1.46802   1.47058   1.47464
 Alpha virt. eigenvalues --    1.47528   1.47804   1.47954   1.48332   1.48704
 Alpha virt. eigenvalues --    1.48854   1.49129   1.49212   1.49632   1.49816
 Alpha virt. eigenvalues --    1.50443   1.50712   1.50887   1.51272   1.51733
 Alpha virt. eigenvalues --    1.51839   1.52274   1.52702   1.52981   1.53296
 Alpha virt. eigenvalues --    1.53443   1.53780   1.54069   1.54208   1.54740
 Alpha virt. eigenvalues --    1.54956   1.55466   1.55531   1.55902   1.56081
 Alpha virt. eigenvalues --    1.56271   1.57199   1.57502   1.57760   1.58050
 Alpha virt. eigenvalues --    1.58460   1.58710   1.58814   1.59180   1.59696
 Alpha virt. eigenvalues --    1.59911   1.60221   1.60659   1.60704   1.61057
 Alpha virt. eigenvalues --    1.61466   1.62289   1.62724   1.63339   1.63601
 Alpha virt. eigenvalues --    1.63801   1.64416   1.64866   1.64983   1.65481
 Alpha virt. eigenvalues --    1.65829   1.66989   1.67239   1.68769   1.69035
 Alpha virt. eigenvalues --    1.69577   1.69999   1.70377   1.70882   1.72119
 Alpha virt. eigenvalues --    1.72259   1.73091   1.73168   1.73668   1.74119
 Alpha virt. eigenvalues --    1.74339   1.74608   1.75222   1.75606   1.75767
 Alpha virt. eigenvalues --    1.76166   1.76760   1.77294   1.77421   1.77969
 Alpha virt. eigenvalues --    1.78174   1.78217   1.78655   1.78886   1.79286
 Alpha virt. eigenvalues --    1.79582   1.81126   1.81286   1.81801   1.82275
 Alpha virt. eigenvalues --    1.82780   1.83106   1.83700   1.84239   1.84650
 Alpha virt. eigenvalues --    1.85096   1.86220   1.86379   1.87016   1.87868
 Alpha virt. eigenvalues --    1.87967   1.88157   1.88534   1.88757   1.89115
 Alpha virt. eigenvalues --    1.89773   1.89911   1.90474   1.90753   1.91485
 Alpha virt. eigenvalues --    1.91953   1.92262   1.92284   1.93268   1.93723
 Alpha virt. eigenvalues --    1.93967   1.94388   1.95381   1.96241   1.96333
 Alpha virt. eigenvalues --    1.96590   1.97642   1.97895   1.98094   1.98950
 Alpha virt. eigenvalues --    1.99115   1.99504   1.99844   2.00327   2.00924
 Alpha virt. eigenvalues --    2.01601   2.01743   2.01878   2.02313   2.03012
 Alpha virt. eigenvalues --    2.03214   2.03554   2.03918   2.04251   2.05219
 Alpha virt. eigenvalues --    2.05656   2.05893   2.06285   2.06963   2.07415
 Alpha virt. eigenvalues --    2.08283   2.08559   2.09055   2.09389   2.09741
 Alpha virt. eigenvalues --    2.09873   2.10448   2.11278   2.11418   2.12119
 Alpha virt. eigenvalues --    2.12395   2.13028   2.13980   2.14346   2.15282
 Alpha virt. eigenvalues --    2.15963   2.16180   2.16303   2.16852   2.17071
 Alpha virt. eigenvalues --    2.17534   2.17865   2.18038   2.18637   2.18954
 Alpha virt. eigenvalues --    2.19507   2.19720   2.20449   2.21210   2.21391
 Alpha virt. eigenvalues --    2.21834   2.22557   2.22774   2.23130   2.23378
 Alpha virt. eigenvalues --    2.23769   2.24929   2.25585   2.25767   2.26235
 Alpha virt. eigenvalues --    2.26727   2.27211   2.27268   2.27834   2.28175
 Alpha virt. eigenvalues --    2.28332   2.28833   2.29378   2.29563   2.30077
 Alpha virt. eigenvalues --    2.30238   2.30862   2.31195   2.31292   2.31697
 Alpha virt. eigenvalues --    2.32205   2.32826   2.33288   2.34217   2.34504
 Alpha virt. eigenvalues --    2.34933   2.35282   2.35634   2.35910   2.36339
 Alpha virt. eigenvalues --    2.36814   2.37013   2.37181   2.37759   2.38211
 Alpha virt. eigenvalues --    2.38708   2.39098   2.39489   2.40116   2.41095
 Alpha virt. eigenvalues --    2.41260   2.41672   2.42030   2.42637   2.43328
 Alpha virt. eigenvalues --    2.43446   2.43750   2.44112   2.44211   2.45465
 Alpha virt. eigenvalues --    2.45822   2.46195   2.46515   2.46629   2.46852
 Alpha virt. eigenvalues --    2.47134   2.47219   2.47967   2.48061   2.48697
 Alpha virt. eigenvalues --    2.49189   2.49517   2.49816   2.50248   2.50634
 Alpha virt. eigenvalues --    2.50935   2.51299   2.51776   2.51907   2.52419
 Alpha virt. eigenvalues --    2.53069   2.53270   2.53818   2.54577   2.54870
 Alpha virt. eigenvalues --    2.55378   2.55536   2.55675   2.56319   2.56600
 Alpha virt. eigenvalues --    2.56756   2.57173   2.57563   2.57768   2.58179
 Alpha virt. eigenvalues --    2.58731   2.59159   2.59589   2.60230   2.60299
 Alpha virt. eigenvalues --    2.60528   2.60896   2.61778   2.62282   2.62469
 Alpha virt. eigenvalues --    2.62523   2.63274   2.63899   2.64302   2.64661
 Alpha virt. eigenvalues --    2.65141   2.65359   2.65880   2.66257   2.66810
 Alpha virt. eigenvalues --    2.67034   2.67326   2.67887   2.68453   2.68525
 Alpha virt. eigenvalues --    2.69387   2.69694   2.70313   2.70702   2.71240
 Alpha virt. eigenvalues --    2.71564   2.72071   2.72383   2.72969   2.73335
 Alpha virt. eigenvalues --    2.73711   2.74108   2.74329   2.74719   2.75109
 Alpha virt. eigenvalues --    2.75491   2.76017   2.76530   2.77248   2.77479
 Alpha virt. eigenvalues --    2.77570   2.78048   2.78708   2.78877   2.79228
 Alpha virt. eigenvalues --    2.79369   2.79713   2.80274   2.80482   2.80935
 Alpha virt. eigenvalues --    2.81184   2.81639   2.82162   2.82464   2.83138
 Alpha virt. eigenvalues --    2.83464   2.83692   2.83850   2.84234   2.84730
 Alpha virt. eigenvalues --    2.85132   2.85442   2.85893   2.86187   2.86684
 Alpha virt. eigenvalues --    2.87105   2.87150   2.87438   2.88063   2.88411
 Alpha virt. eigenvalues --    2.88610   2.88828   2.89527   2.89707   2.90019
 Alpha virt. eigenvalues --    2.90389   2.90730   2.90997   2.91461   2.92060
 Alpha virt. eigenvalues --    2.92311   2.92796   2.93188   2.93775   2.94122
 Alpha virt. eigenvalues --    2.94160   2.95215   2.95385   2.96004   2.96302
 Alpha virt. eigenvalues --    2.96905   2.97080   2.97229   2.97299   2.97723
 Alpha virt. eigenvalues --    2.97975   2.98467   2.98831   2.99274   2.99318
 Alpha virt. eigenvalues --    2.99636   2.99780   3.00833   3.01009   3.01293
 Alpha virt. eigenvalues --    3.01610   3.01666   3.01988   3.02365   3.02786
 Alpha virt. eigenvalues --    3.03087   3.03335   3.03778   3.03878   3.04432
 Alpha virt. eigenvalues --    3.04937   3.05394   3.05793   3.06407   3.06650
 Alpha virt. eigenvalues --    3.07013   3.07141   3.07322   3.07997   3.08363
 Alpha virt. eigenvalues --    3.08571   3.09087   3.09190   3.09501   3.09969
 Alpha virt. eigenvalues --    3.10443   3.10626   3.11041   3.11343   3.11541
 Alpha virt. eigenvalues --    3.11840   3.12330   3.12478   3.12918   3.13171
 Alpha virt. eigenvalues --    3.13479   3.13740   3.13969   3.14392   3.14513
 Alpha virt. eigenvalues --    3.15116   3.15393   3.15807   3.15893   3.15977
 Alpha virt. eigenvalues --    3.16412   3.16776   3.17088   3.17304   3.17489
 Alpha virt. eigenvalues --    3.17690   3.17873   3.18308   3.18661   3.19027
 Alpha virt. eigenvalues --    3.19352   3.19673   3.19867   3.19944   3.20564
 Alpha virt. eigenvalues --    3.20648   3.21152   3.21244   3.21454   3.21567
 Alpha virt. eigenvalues --    3.21829   3.22228   3.22886   3.23169   3.23316
 Alpha virt. eigenvalues --    3.23354   3.23675   3.24238   3.24479   3.24848
 Alpha virt. eigenvalues --    3.24896   3.25131   3.25463   3.25641   3.26151
 Alpha virt. eigenvalues --    3.26481   3.26681   3.26873   3.27323   3.27483
 Alpha virt. eigenvalues --    3.27919   3.28087   3.28225   3.28317   3.28804
 Alpha virt. eigenvalues --    3.28952   3.29340   3.29611   3.29767   3.30213
 Alpha virt. eigenvalues --    3.30494   3.30798   3.31320   3.31646   3.32183
 Alpha virt. eigenvalues --    3.32511   3.32989   3.33367   3.33830   3.34842
 Alpha virt. eigenvalues --    3.35064   3.35140   3.35408   3.35885   3.36129
 Alpha virt. eigenvalues --    3.36448   3.36795   3.37422   3.37866   3.37981
 Alpha virt. eigenvalues --    3.38846   3.39208   3.39396   3.40060   3.40554
 Alpha virt. eigenvalues --    3.41384   3.42056   3.42482   3.42638   3.42838
 Alpha virt. eigenvalues --    3.43469   3.43765   3.44170   3.44932   3.45135
 Alpha virt. eigenvalues --    3.45362   3.45707   3.46706   3.46930   3.47617
 Alpha virt. eigenvalues --    3.47816   3.48292   3.48475   3.48840   3.49514
 Alpha virt. eigenvalues --    3.49692   3.50561   3.50744   3.51717   3.52356
 Alpha virt. eigenvalues --    3.52410   3.52892   3.53622   3.54021   3.54409
 Alpha virt. eigenvalues --    3.55553   3.55996   3.56185   3.56322   3.56835
 Alpha virt. eigenvalues --    3.57283   3.57855   3.57965   3.58884   3.59252
 Alpha virt. eigenvalues --    3.59765   3.60487   3.60622   3.60987   3.61349
 Alpha virt. eigenvalues --    3.61747   3.61931   3.62841   3.63265   3.63899
 Alpha virt. eigenvalues --    3.64266   3.64508   3.64599   3.64734   3.65002
 Alpha virt. eigenvalues --    3.65589   3.65772   3.66834   3.67386   3.67681
 Alpha virt. eigenvalues --    3.68118   3.68898   3.69299   3.69899   3.70261
 Alpha virt. eigenvalues --    3.70782   3.71142   3.72561   3.72745   3.72816
 Alpha virt. eigenvalues --    3.73308   3.74328   3.74780   3.75201   3.76324
 Alpha virt. eigenvalues --    3.76914   3.77048   3.77505   3.78646   3.79011
 Alpha virt. eigenvalues --    3.79377   3.80069   3.80354   3.81021   3.81197
 Alpha virt. eigenvalues --    3.81735   3.82308   3.82841   3.83175   3.83542
 Alpha virt. eigenvalues --    3.84813   3.86122   3.87151   3.87310   3.87603
 Alpha virt. eigenvalues --    3.88590   3.89065   3.89520   3.89996   3.90606
 Alpha virt. eigenvalues --    3.90675   3.91187   3.92105   3.92328   3.92741
 Alpha virt. eigenvalues --    3.93113   3.94028   3.94211   3.94894   3.95457
 Alpha virt. eigenvalues --    3.95944   3.96709   3.97661   3.98218   3.98896
 Alpha virt. eigenvalues --    3.99467   4.00213   4.00384   4.00518   4.01648
 Alpha virt. eigenvalues --    4.02186   4.02411   4.03320   4.04067   4.04939
 Alpha virt. eigenvalues --    4.05596   4.06153   4.06554   4.06845   4.07877
 Alpha virt. eigenvalues --    4.08054   4.08497   4.09201   4.09838   4.10024
 Alpha virt. eigenvalues --    4.10830   4.11756   4.12019   4.12802   4.13358
 Alpha virt. eigenvalues --    4.14312   4.14950   4.15248   4.15833   4.15982
 Alpha virt. eigenvalues --    4.16439   4.17049   4.17236   4.17943   4.19336
 Alpha virt. eigenvalues --    4.19831   4.20790   4.21508   4.22212   4.22617
 Alpha virt. eigenvalues --    4.22996   4.23307   4.23568   4.24804   4.25130
 Alpha virt. eigenvalues --    4.25775   4.26556   4.26699   4.28183   4.28876
 Alpha virt. eigenvalues --    4.30133   4.30348   4.30445   4.30806   4.31273
 Alpha virt. eigenvalues --    4.31820   4.32559   4.33231   4.33507   4.34075
 Alpha virt. eigenvalues --    4.34294   4.34754   4.35029   4.35313   4.35897
 Alpha virt. eigenvalues --    4.36258   4.36359   4.37534   4.37813   4.39006
 Alpha virt. eigenvalues --    4.39947   4.41035   4.41591   4.42437   4.43320
 Alpha virt. eigenvalues --    4.44150   4.44811   4.45865   4.46273   4.47269
 Alpha virt. eigenvalues --    4.47828   4.48464   4.48896   4.51272   4.51949
 Alpha virt. eigenvalues --    4.53067   4.54277   4.55343   4.55721   4.57642
 Alpha virt. eigenvalues --    4.57937   4.58763   4.59122   4.59418   4.60408
 Alpha virt. eigenvalues --    4.60981   4.61834   4.61931   4.63527   4.64244
 Alpha virt. eigenvalues --    4.64540   4.65147   4.66120   4.67016   4.69004
 Alpha virt. eigenvalues --    4.69543   4.70590   4.71191   4.72102   4.72371
 Alpha virt. eigenvalues --    4.72820   4.73579   4.74276   4.74352   4.74629
 Alpha virt. eigenvalues --    4.75099   4.76288   4.77101   4.77815   4.78732
 Alpha virt. eigenvalues --    4.79380   4.80574   4.81122   4.82416   4.82854
 Alpha virt. eigenvalues --    4.83295   4.83912   4.84551   4.84947   4.85792
 Alpha virt. eigenvalues --    4.86935   4.89275   4.89452   4.90505   4.91048
 Alpha virt. eigenvalues --    4.91973   4.92231   4.92957   4.94218   4.94701
 Alpha virt. eigenvalues --    4.95624   4.96314   4.96897   4.98017   4.98793
 Alpha virt. eigenvalues --    4.99631   4.99737   5.03035   5.03859   5.04597
 Alpha virt. eigenvalues --    5.06835   5.07590   5.08620   5.09203   5.09431
 Alpha virt. eigenvalues --    5.10779   5.11781   5.11965   5.13348   5.14712
 Alpha virt. eigenvalues --    5.15466   5.16289   5.17660   5.18310   5.19449
 Alpha virt. eigenvalues --    5.21168   5.24015   5.25262   5.25509   5.26408
 Alpha virt. eigenvalues --    5.26874   5.27936   5.28135   5.28838   5.29393
 Alpha virt. eigenvalues --    5.29948   5.31423   5.32053   5.32587   5.35596
 Alpha virt. eigenvalues --    5.37114   5.38445   5.39061   5.39596   5.40518
 Alpha virt. eigenvalues --    5.40730   5.41333   5.44715   5.44780   5.48098
 Alpha virt. eigenvalues --    5.50633   5.51250   5.51464   5.52562   5.52600
 Alpha virt. eigenvalues --    5.53898   5.54770   5.56015   5.56906   5.57894
 Alpha virt. eigenvalues --    5.59433   5.62629   5.65662   5.66159   5.67297
 Alpha virt. eigenvalues --    5.69319   5.71275   5.78769   5.80637   5.81964
 Alpha virt. eigenvalues --    5.82446   5.84883   5.90510   5.91000   5.91886
 Alpha virt. eigenvalues --    5.97484   6.00030   6.00696   6.01796   6.02435
 Alpha virt. eigenvalues --    6.05668   6.07758   6.12067   6.15843   6.23282
 Alpha virt. eigenvalues --    6.23925   6.30349   6.35711   6.38935   6.41663
 Alpha virt. eigenvalues --    6.55682   6.84727   7.15788  22.26939  22.27472
 Alpha virt. eigenvalues --   22.34855  22.36961  22.37708  22.43773  22.44271
 Alpha virt. eigenvalues --   22.53486  22.54148  22.66756  22.75899  22.77902
 Alpha virt. eigenvalues --   22.81471  22.83710  22.84504  22.85684  22.87531
 Alpha virt. eigenvalues --   22.93718  22.94129  22.97574  23.05594  23.16891
 Alpha virt. eigenvalues --   23.17439  23.20160  23.21438  23.30830  23.31556
 Alpha virt. eigenvalues --   23.40540  23.40840  23.45552  23.64037  23.68804
 Alpha virt. eigenvalues --   23.69818  23.78956  32.29437  32.61822  32.78905
 Alpha virt. eigenvalues --   32.85302  32.90742  33.00755  43.94436
  Beta  occ. eigenvalues -- -256.39061 -30.23653 -26.08144 -26.07908 -26.06909
  Beta  occ. eigenvalues --  -19.29777 -14.53231 -14.50207 -14.46149 -14.46106
  Beta  occ. eigenvalues --  -14.45835 -14.45650 -10.37871 -10.35031 -10.32751
  Beta  occ. eigenvalues --  -10.32701 -10.32687 -10.32612 -10.32588 -10.32568
  Beta  occ. eigenvalues --  -10.32452 -10.32426 -10.32380 -10.30389 -10.29922
  Beta  occ. eigenvalues --  -10.29648 -10.29624 -10.29613 -10.29590 -10.29574
  Beta  occ. eigenvalues --  -10.29564 -10.29550 -10.29398 -10.29339 -10.29274
  Beta  occ. eigenvalues --  -10.29252 -10.28857 -10.28685 -10.27898 -10.27870
  Beta  occ. eigenvalues --  -10.27855 -10.27835 -10.27749 -10.27539 -10.27517
  Beta  occ. eigenvalues --  -10.27296  -3.58992  -2.35236  -2.34736  -2.34065
  Beta  occ. eigenvalues --   -1.17350  -1.17301  -1.08914  -1.08012  -1.07807
  Beta  occ. eigenvalues --   -1.06926  -1.03223  -0.93506  -0.92269  -0.91922
  Beta  occ. eigenvalues --   -0.91357  -0.91119  -0.90943  -0.90721  -0.90638
  Beta  occ. eigenvalues --   -0.86765  -0.85556  -0.85250  -0.84304  -0.82897
  Beta  occ. eigenvalues --   -0.82601  -0.81220  -0.80230  -0.78550  -0.78348
  Beta  occ. eigenvalues --   -0.78073  -0.76393  -0.75148  -0.75096  -0.72853
  Beta  occ. eigenvalues --   -0.72757  -0.70727  -0.70076  -0.68857  -0.68178
  Beta  occ. eigenvalues --   -0.67375  -0.65145  -0.64454  -0.63642  -0.63386
  Beta  occ. eigenvalues --   -0.61934  -0.61836  -0.61491  -0.59443  -0.59280
  Beta  occ. eigenvalues --   -0.58837  -0.58319  -0.58115  -0.56145  -0.55564
  Beta  occ. eigenvalues --   -0.55060  -0.54822  -0.54368  -0.54293  -0.54046
  Beta  occ. eigenvalues --   -0.53972  -0.53466  -0.53381  -0.53305  -0.52919
  Beta  occ. eigenvalues --   -0.52689  -0.52510  -0.52287  -0.52069  -0.51758
  Beta  occ. eigenvalues --   -0.50677  -0.50547  -0.50462  -0.50283  -0.50227
  Beta  occ. eigenvalues --   -0.49984  -0.49822  -0.49746  -0.49394  -0.49094
  Beta  occ. eigenvalues --   -0.48565  -0.48317  -0.48143  -0.48105  -0.47743
  Beta  occ. eigenvalues --   -0.47409  -0.47195  -0.46783  -0.46283  -0.46042
  Beta  occ. eigenvalues --   -0.45732  -0.44917  -0.44306  -0.44126  -0.43639
  Beta  occ. eigenvalues --   -0.43099  -0.42557  -0.41755  -0.41493  -0.40106
  Beta  occ. eigenvalues --   -0.39442  -0.38833  -0.37848  -0.37533  -0.37093
  Beta  occ. eigenvalues --   -0.35289  -0.34196  -0.33451  -0.32614  -0.32004
  Beta  occ. eigenvalues --   -0.29965  -0.28868
  Beta virt. eigenvalues --   -0.20841  -0.17753  -0.17380  -0.16786  -0.12075
  Beta virt. eigenvalues --   -0.11882  -0.10018  -0.08927  -0.07738  -0.07405
  Beta virt. eigenvalues --   -0.06320  -0.06159  -0.05410  -0.04376  -0.03886
  Beta virt. eigenvalues --   -0.03054  -0.02725  -0.02408  -0.02192  -0.02107
  Beta virt. eigenvalues --   -0.01139  -0.00689  -0.00559   0.00002   0.00294
  Beta virt. eigenvalues --    0.00350   0.00652   0.00788   0.01557   0.02110
  Beta virt. eigenvalues --    0.02175   0.02534   0.02718   0.02833   0.03141
  Beta virt. eigenvalues --    0.03465   0.03537   0.03677   0.03910   0.04097
  Beta virt. eigenvalues --    0.04182   0.04461   0.04563   0.04991   0.05093
  Beta virt. eigenvalues --    0.05226   0.05570   0.05646   0.05923   0.06182
  Beta virt. eigenvalues --    0.06467   0.06896   0.07187   0.07246   0.07604
  Beta virt. eigenvalues --    0.07822   0.07952   0.08009   0.08416   0.08662
  Beta virt. eigenvalues --    0.08773   0.08934   0.09214   0.09410   0.09770
  Beta virt. eigenvalues --    0.10124   0.10288   0.10717   0.10895   0.11193
  Beta virt. eigenvalues --    0.11341   0.11687   0.11922   0.12000   0.12295
  Beta virt. eigenvalues --    0.12561   0.13096   0.13275   0.13469   0.13509
  Beta virt. eigenvalues --    0.13874   0.14043   0.14477   0.14831   0.15053
  Beta virt. eigenvalues --    0.15359   0.15758   0.16070   0.16504   0.16868
  Beta virt. eigenvalues --    0.16983   0.17028   0.17437   0.17637   0.17746
  Beta virt. eigenvalues --    0.17945   0.18094   0.18320   0.18880   0.19420
  Beta virt. eigenvalues --    0.19704   0.19822   0.20174   0.20562   0.20642
  Beta virt. eigenvalues --    0.21006   0.21131   0.21372   0.21493   0.21928
  Beta virt. eigenvalues --    0.22110   0.22231   0.22550   0.22743   0.23328
  Beta virt. eigenvalues --    0.23458   0.23606   0.24005   0.24234   0.24502
  Beta virt. eigenvalues --    0.24560   0.24930   0.24967   0.25484   0.25574
  Beta virt. eigenvalues --    0.25786   0.26232   0.26738   0.27053   0.27397
  Beta virt. eigenvalues --    0.27565   0.27973   0.28287   0.28335   0.28868
  Beta virt. eigenvalues --    0.28939   0.29152   0.29293   0.29562   0.29957
  Beta virt. eigenvalues --    0.30198   0.30380   0.30433   0.30735   0.31041
  Beta virt. eigenvalues --    0.31257   0.31504   0.31690   0.31756   0.32193
  Beta virt. eigenvalues --    0.32537   0.32697   0.32892   0.33063   0.33227
  Beta virt. eigenvalues --    0.33431   0.33520   0.33660   0.34263   0.34448
  Beta virt. eigenvalues --    0.34516   0.35017   0.35073   0.35399   0.35487
  Beta virt. eigenvalues --    0.35604   0.35933   0.36028   0.36410   0.36686
  Beta virt. eigenvalues --    0.36981   0.37433   0.37722   0.37966   0.38020
  Beta virt. eigenvalues --    0.38167   0.38375   0.38516   0.38621   0.38926
  Beta virt. eigenvalues --    0.39088   0.39264   0.39505   0.39898   0.40028
  Beta virt. eigenvalues --    0.40270   0.40571   0.40924   0.41128   0.41444
  Beta virt. eigenvalues --    0.41508   0.41522   0.41928   0.42186   0.42369
  Beta virt. eigenvalues --    0.42442   0.42724   0.42854   0.43104   0.43207
  Beta virt. eigenvalues --    0.43638   0.43728   0.44015   0.44188   0.44457
  Beta virt. eigenvalues --    0.44613   0.45017   0.45242   0.45524   0.45620
  Beta virt. eigenvalues --    0.46037   0.46216   0.46485   0.46827   0.46950
  Beta virt. eigenvalues --    0.47159   0.47257   0.47477   0.48032   0.48196
  Beta virt. eigenvalues --    0.48491   0.48613   0.48956   0.49444   0.49705
  Beta virt. eigenvalues --    0.49927   0.50304   0.50509   0.50612   0.50989
  Beta virt. eigenvalues --    0.51491   0.51933   0.52201   0.52273   0.52597
  Beta virt. eigenvalues --    0.53126   0.53356   0.53575   0.54193   0.54280
  Beta virt. eigenvalues --    0.54601   0.54767   0.54881   0.55213   0.55596
  Beta virt. eigenvalues --    0.55832   0.55916   0.56270   0.56412   0.56911
  Beta virt. eigenvalues --    0.57169   0.57253   0.57695   0.57971   0.58393
  Beta virt. eigenvalues --    0.58816   0.59018   0.59461   0.59993   0.60509
  Beta virt. eigenvalues --    0.60967   0.61179   0.61323   0.61567   0.62044
  Beta virt. eigenvalues --    0.62491   0.62771   0.62860   0.63286   0.63562
  Beta virt. eigenvalues --    0.63777   0.63890   0.64333   0.64675   0.65014
  Beta virt. eigenvalues --    0.65253   0.65672   0.66185   0.66578   0.66904
  Beta virt. eigenvalues --    0.67047   0.67615   0.68015   0.68459   0.68653
  Beta virt. eigenvalues --    0.68833   0.68990   0.69177   0.69836   0.69990
  Beta virt. eigenvalues --    0.70661   0.70916   0.71016   0.71442   0.71780
  Beta virt. eigenvalues --    0.72192   0.72533   0.73028   0.73525   0.74101
  Beta virt. eigenvalues --    0.74347   0.74893   0.75108   0.75391   0.75975
  Beta virt. eigenvalues --    0.76337   0.76800   0.77195   0.77270   0.77604
  Beta virt. eigenvalues --    0.78413   0.78787   0.79016   0.79374   0.79793
  Beta virt. eigenvalues --    0.79936   0.80536   0.81159   0.81322   0.81548
  Beta virt. eigenvalues --    0.82452   0.82755   0.83120   0.83243   0.83614
  Beta virt. eigenvalues --    0.83990   0.84125   0.84391   0.85283   0.85486
  Beta virt. eigenvalues --    0.85793   0.85952   0.86202   0.87008   0.87561
  Beta virt. eigenvalues --    0.87620   0.87938   0.88255   0.88671   0.89041
  Beta virt. eigenvalues --    0.89287   0.89373   0.90133   0.90754   0.91085
  Beta virt. eigenvalues --    0.91158   0.91317   0.91763   0.92025   0.92345
  Beta virt. eigenvalues --    0.92678   0.92853   0.93196   0.93733   0.93768
  Beta virt. eigenvalues --    0.94032   0.94236   0.94294   0.94418   0.94866
  Beta virt. eigenvalues --    0.95238   0.95636   0.95914   0.96160   0.96940
  Beta virt. eigenvalues --    0.97351   0.97747   0.98506   0.98689   0.99046
  Beta virt. eigenvalues --    0.99357   0.99758   1.00010   1.00325   1.00858
  Beta virt. eigenvalues --    1.01318   1.02034   1.02409   1.02577   1.03378
  Beta virt. eigenvalues --    1.03806   1.04341   1.05148   1.05802   1.05936
  Beta virt. eigenvalues --    1.06390   1.06635   1.07296   1.07644   1.07802
  Beta virt. eigenvalues --    1.08372   1.08658   1.08938   1.09414   1.09812
  Beta virt. eigenvalues --    1.10123   1.10494   1.10830   1.11310   1.11530
  Beta virt. eigenvalues --    1.11910   1.11969   1.12556   1.12777   1.13262
  Beta virt. eigenvalues --    1.13502   1.14184   1.15328   1.15827   1.15970
  Beta virt. eigenvalues --    1.16283   1.16983   1.17158   1.17565   1.17907
  Beta virt. eigenvalues --    1.18146   1.18422   1.18791   1.18837   1.19446
  Beta virt. eigenvalues --    1.19528   1.20129   1.20517   1.20832   1.21229
  Beta virt. eigenvalues --    1.21538   1.21702   1.22347   1.22911   1.23089
  Beta virt. eigenvalues --    1.23816   1.24763   1.25321   1.25970   1.26122
  Beta virt. eigenvalues --    1.27244   1.27399   1.28098   1.28399   1.28741
  Beta virt. eigenvalues --    1.29392   1.30214   1.30542   1.30688   1.31120
  Beta virt. eigenvalues --    1.32307   1.32952   1.33938   1.34060   1.34500
  Beta virt. eigenvalues --    1.34943   1.35457   1.36004   1.36401   1.36682
  Beta virt. eigenvalues --    1.37108   1.37511   1.38055   1.38305   1.38587
  Beta virt. eigenvalues --    1.38818   1.39052   1.39611   1.39731   1.39825
  Beta virt. eigenvalues --    1.40583   1.40774   1.40932   1.41222   1.41430
  Beta virt. eigenvalues --    1.42038   1.42467   1.42573   1.43187   1.43279
  Beta virt. eigenvalues --    1.43489   1.43756   1.43872   1.44012   1.44482
  Beta virt. eigenvalues --    1.44906   1.45022   1.45183   1.45447   1.45555
  Beta virt. eigenvalues --    1.45967   1.46141   1.46446   1.46805   1.47079
  Beta virt. eigenvalues --    1.47494   1.47558   1.47825   1.47982   1.48346
  Beta virt. eigenvalues --    1.48735   1.48865   1.49141   1.49228   1.49651
  Beta virt. eigenvalues --    1.49833   1.50461   1.50723   1.50901   1.51286
  Beta virt. eigenvalues --    1.51744   1.51854   1.52307   1.52722   1.52990
  Beta virt. eigenvalues --    1.53302   1.53463   1.53798   1.54078   1.54214
  Beta virt. eigenvalues --    1.54757   1.54964   1.55477   1.55538   1.55915
  Beta virt. eigenvalues --    1.56117   1.56288   1.57211   1.57511   1.57773
  Beta virt. eigenvalues --    1.58058   1.58469   1.58731   1.58852   1.59205
  Beta virt. eigenvalues --    1.59754   1.59941   1.60231   1.60664   1.60710
  Beta virt. eigenvalues --    1.61076   1.61478   1.62307   1.62742   1.63350
  Beta virt. eigenvalues --    1.63608   1.63850   1.64418   1.64888   1.65005
  Beta virt. eigenvalues --    1.65549   1.65894   1.67003   1.67273   1.68786
  Beta virt. eigenvalues --    1.69045   1.69592   1.70037   1.70390   1.70891
  Beta virt. eigenvalues --    1.72131   1.72277   1.73135   1.73210   1.73679
  Beta virt. eigenvalues --    1.74131   1.74350   1.74618   1.75232   1.75635
  Beta virt. eigenvalues --    1.75773   1.76173   1.76781   1.77314   1.77441
  Beta virt. eigenvalues --    1.77973   1.78183   1.78247   1.78674   1.78902
  Beta virt. eigenvalues --    1.79292   1.79617   1.81167   1.81304   1.81863
  Beta virt. eigenvalues --    1.82347   1.82813   1.83152   1.83823   1.84319
  Beta virt. eigenvalues --    1.84673   1.85140   1.86262   1.86420   1.87044
  Beta virt. eigenvalues --    1.87928   1.88003   1.88210   1.88595   1.88801
  Beta virt. eigenvalues --    1.89130   1.89842   1.89942   1.90495   1.90758
  Beta virt. eigenvalues --    1.91492   1.91968   1.92281   1.92317   1.93309
  Beta virt. eigenvalues --    1.93789   1.94071   1.94415   1.95524   1.96346
  Beta virt. eigenvalues --    1.96373   1.96609   1.97704   1.97925   1.98156
  Beta virt. eigenvalues --    1.98969   1.99129   1.99522   1.99870   2.00344
  Beta virt. eigenvalues --    2.00944   2.01627   2.01770   2.01931   2.02366
  Beta virt. eigenvalues --    2.03062   2.03262   2.03581   2.03957   2.04295
  Beta virt. eigenvalues --    2.05244   2.05720   2.05927   2.06297   2.07018
  Beta virt. eigenvalues --    2.07433   2.08310   2.08572   2.09088   2.09407
  Beta virt. eigenvalues --    2.09769   2.09889   2.10478   2.11300   2.11470
  Beta virt. eigenvalues --    2.12154   2.12423   2.13046   2.13996   2.14408
  Beta virt. eigenvalues --    2.15305   2.15981   2.16193   2.16315   2.16883
  Beta virt. eigenvalues --    2.17109   2.17544   2.17910   2.18059   2.18655
  Beta virt. eigenvalues --    2.18965   2.19530   2.19796   2.20479   2.21228
  Beta virt. eigenvalues --    2.21418   2.21846   2.22595   2.22847   2.23143
  Beta virt. eigenvalues --    2.23415   2.23794   2.24945   2.25610   2.25776
  Beta virt. eigenvalues --    2.26250   2.26741   2.27229   2.27303   2.27850
  Beta virt. eigenvalues --    2.28188   2.28352   2.28868   2.29398   2.29593
  Beta virt. eigenvalues --    2.30105   2.30264   2.30897   2.31221   2.31313
  Beta virt. eigenvalues --    2.31724   2.32251   2.32851   2.33321   2.34238
  Beta virt. eigenvalues --    2.34600   2.34985   2.35312   2.35700   2.35980
  Beta virt. eigenvalues --    2.36372   2.36879   2.37078   2.37208   2.37801
  Beta virt. eigenvalues --    2.38225   2.38834   2.39160   2.39506   2.40148
  Beta virt. eigenvalues --    2.41169   2.41330   2.41683   2.42164   2.42671
  Beta virt. eigenvalues --    2.43367   2.43515   2.43771   2.44125   2.44258
  Beta virt. eigenvalues --    2.45489   2.45873   2.46266   2.46526   2.46652
  Beta virt. eigenvalues --    2.46872   2.47145   2.47266   2.48001   2.48084
  Beta virt. eigenvalues --    2.48743   2.49315   2.49535   2.49860   2.50266
  Beta virt. eigenvalues --    2.50646   2.50948   2.51322   2.51840   2.51927
  Beta virt. eigenvalues --    2.52432   2.53084   2.53293   2.53834   2.54608
  Beta virt. eigenvalues --    2.54929   2.55415   2.55591   2.55708   2.56337
  Beta virt. eigenvalues --    2.56647   2.56796   2.57201   2.57602   2.57789
  Beta virt. eigenvalues --    2.58208   2.58750   2.59166   2.59604   2.60270
  Beta virt. eigenvalues --    2.60360   2.60539   2.60923   2.61786   2.62312
  Beta virt. eigenvalues --    2.62493   2.62533   2.63297   2.63949   2.64316
  Beta virt. eigenvalues --    2.64701   2.65159   2.65424   2.65937   2.66308
  Beta virt. eigenvalues --    2.66819   2.67052   2.67358   2.67919   2.68493
  Beta virt. eigenvalues --    2.68563   2.69397   2.69699   2.70320   2.70729
  Beta virt. eigenvalues --    2.71260   2.71573   2.72144   2.72419   2.73002
  Beta virt. eigenvalues --    2.73355   2.73718   2.74124   2.74350   2.74755
  Beta virt. eigenvalues --    2.75144   2.75510   2.76062   2.76579   2.77267
  Beta virt. eigenvalues --    2.77499   2.77601   2.78063   2.78749   2.78923
  Beta virt. eigenvalues --    2.79242   2.79398   2.79741   2.80286   2.80531
  Beta virt. eigenvalues --    2.81019   2.81227   2.81674   2.82209   2.82499
  Beta virt. eigenvalues --    2.83260   2.83519   2.83750   2.83880   2.84252
  Beta virt. eigenvalues --    2.84751   2.85203   2.85561   2.85947   2.86229
  Beta virt. eigenvalues --    2.86705   2.87125   2.87166   2.87467   2.88078
  Beta virt. eigenvalues --    2.88425   2.88635   2.88842   2.89551   2.89732
  Beta virt. eigenvalues --    2.90099   2.90427   2.90761   2.91019   2.91498
  Beta virt. eigenvalues --    2.92086   2.92333   2.92854   2.93203   2.93803
  Beta virt. eigenvalues --    2.94141   2.94219   2.95254   2.95426   2.96036
  Beta virt. eigenvalues --    2.96328   2.96932   2.97107   2.97243   2.97314
  Beta virt. eigenvalues --    2.97747   2.97990   2.98488   2.98868   2.99298
  Beta virt. eigenvalues --    2.99346   2.99655   2.99816   3.00850   3.01040
  Beta virt. eigenvalues --    3.01326   3.01637   3.01684   3.01999   3.02396
  Beta virt. eigenvalues --    3.02803   3.03104   3.03357   3.03805   3.03898
  Beta virt. eigenvalues --    3.04451   3.04954   3.05423   3.05810   3.06427
  Beta virt. eigenvalues --    3.06683   3.07035   3.07157   3.07341   3.08017
  Beta virt. eigenvalues --    3.08377   3.08587   3.09104   3.09213   3.09527
  Beta virt. eigenvalues --    3.09996   3.10458   3.10650   3.11070   3.11379
  Beta virt. eigenvalues --    3.11556   3.11858   3.12350   3.12519   3.12927
  Beta virt. eigenvalues --    3.13213   3.13509   3.13769   3.13983   3.14418
  Beta virt. eigenvalues --    3.14522   3.15138   3.15423   3.15841   3.15915
  Beta virt. eigenvalues --    3.15991   3.16421   3.16798   3.17113   3.17334
  Beta virt. eigenvalues --    3.17516   3.17712   3.17896   3.18324   3.18688
  Beta virt. eigenvalues --    3.19046   3.19375   3.19695   3.19882   3.19955
  Beta virt. eigenvalues --    3.20577   3.20666   3.21163   3.21260   3.21468
  Beta virt. eigenvalues --    3.21576   3.21845   3.22255   3.22904   3.23183
  Beta virt. eigenvalues --    3.23338   3.23379   3.23682   3.24269   3.24504
  Beta virt. eigenvalues --    3.24872   3.24922   3.25146   3.25506   3.25660
  Beta virt. eigenvalues --    3.26209   3.26501   3.26703   3.26912   3.27337
  Beta virt. eigenvalues --    3.27505   3.27945   3.28108   3.28258   3.28360
[...]
  1387. RY*(  12) N  76                  0.00004     3.75898   
  1388. RY*(  13) N  76                  0.00003     2.98570   
  1389. RY*(  14) N  76                  0.00001     3.00279   
  1390. RY*(  15) N  76                  0.00000     4.30075   
  1391. RY*(  16) N  76                  0.00001     4.31952   
  1392. RY*(  17) N  76                  0.00000     4.71621   
  1393. RY*(  18) N  76                  0.00001     4.61686   
  1394. RY*(  19) N  76                  0.00000    31.27862   
  1395. RY*(  20) N  76                  0.00000     4.23669   
  1396. RY*(  21) N  76                  0.00001     4.77988   
  1397. RY*(  22) N  76                  0.00000     3.97038   
  1398. RY*(  23) N  76                  0.00000     4.40227   
  1399. RY*(  24) N  76                  0.00000     4.51364   
  1400. RY*(  25) N  76                  0.00000     4.62221   
  1401. RY*(  26) N  76                  0.00000     4.40356   
  1402. RY*(   1) C  77                  0.00194     1.40752   
  1403. RY*(   2) C  77                  0.00123     0.61870   
  1404. RY*(   3) C  77                  0.00079     1.78712   
  1405. RY*(   4) C  77                  0.00035     1.98090   
  1406. RY*(   5) C  77                  0.00026     1.53714   
  1407. RY*(   6) C  77                  0.00022     1.63445   
  1408. RY*(   7) C  77                  0.00020     1.77262   
  1409. RY*(   8) C  77                  0.00014     1.56888   
  1410. RY*(   9) C  77                  0.00010     1.88849   
  1411. RY*(  10) C  77                  0.00007     1.63876   
  1412. RY*(  11) C  77                  0.00005     1.33863   
  1413. RY*(  12) C  77                  0.00003     1.92971   
  1414. RY*(  13) C  77                  0.00003     2.02110   
  1415. RY*(  14) C  77                  0.00003     2.86409   
  1416. RY*(  15) C  77                  0.00000     3.13631   
  1417. RY*(  16) C  77                  0.00001     1.19825   
  1418. RY*(  17) C  77                  0.00000     3.46712   
  1419. RY*(  18) C  77                  0.00001     3.33785   
  1420. RY*(  19) C  77                  0.00000    21.42380   
  1421. RY*(  20) C  77                  0.00000     3.83352   
  1422. RY*(  21) C  77                  0.00001     3.86399   
  1423. RY*(  22) C  77                  0.00000     3.35075   
  1424. RY*(  23) C  77                  0.00000     3.65723   
  1425. RY*(  24) C  77                  0.00000     3.32281   
  1426. RY*(  25) C  77                  0.00000     3.49013   
  1427. RY*(  26) C  77                  0.00000     3.29351   
  1428. RY*(   1) H  78                  0.00026     0.76151   
  1429. RY*(   2) H  78                  0.00017     2.08664   
  1430. RY*(   3) H  78                  0.00011     2.19556   
  1431. RY*(   4) H  78                  0.00004     2.63511   
  1432. RY*(   5) H  78                  0.00001     3.00305   
  1433. BD*(   1)Fe   1 - N   2          0.03045     0.28148   
  1434. BD*(   1)Fe   1 - N   3          0.03885     0.27159   
  1435. BD*(   1)Fe   1 - N   4          0.03088     0.28502   
  1436. BD*(   1)Fe   1 - N   5          0.03887     0.27436   
  1437. BD*(   1)Fe   1 - N  76          0.03846     0.15552   
  1438. BD*(   1) N   2 - C   6          0.01341     0.40261   
  1439. BD*(   2) N   2 - C   6          0.31673    -0.09974  1485(v),1458(v),1453(v)
                                                    293(g),187(g),155(v),707(v)
                                                    191(g)
  1440. BD*(   1) N   2 - C   9          0.01360     0.39998   
  1441. BD*(   1) N   3 - C  10          0.01369     0.39521   
  1442. BD*(   2) N   3 - C  10          0.33180    -0.10326  1458(v),1462(v),1467(v)
                                                    154(v),397(g),215(g),155(v)
                                                    1448(r),396(g),738(v)
  1443. BD*(   1) N   3 - C  13          0.01308     0.40066   
  1444. BD*(   1) N   4 - C  14          0.01368     0.39685   
  1445. BD*(   2) N   4 - C  14          0.32897    -0.10413  1467(v),1471(v),1476(v)
                                                    501(g),239(g),155(v),770(v)
  1446. BD*(   1) N   4 - C  17          0.01320     0.39990   
  1447. BD*(   1) N   5 - C  18          0.01351     0.39943   
  1448. BD*(   2) N   5 - C  18          0.33134    -0.10181  1476(v),1480(v),1485(v)
                                                    154(v),605(g),267(g),155(v)
                                                    604(g),1442(r)
  1449. BD*(   1) N   5 - C  21          0.01353     0.40069   
  1450. BD*(   1) C   6 - C   7          0.01731     0.38567   
  1451. BD*(   1) C   6 - C  22          0.01023     0.47062   
  1452. BD*(   1) C   7 - C   8          0.01146     0.50757   
  1453. BD*(   2) C   7 - C   8          0.11722    -0.03068  1458(v),1439(v),1494(v)
                                                    1492(v),1491(v),1493(v)
  1454. BD*(   1) C   7 - C  34          0.00812     0.32137   
  1455. BD*(   1) C   8 - C   9          0.01755     0.38568   
  1456. BD*(   1) C   8 - C  30          0.00816     0.32006   
  1457. BD*(   1) C   9 - C  24          0.01034     0.47000   
  1458. BD*(   2) C   9 - C  24          0.19978    -0.05992  1442(v),1453(v),1439(v)
                                                    738(g),1467(r),1485(r)
                                                    373(g)
  1459. BD*(   1) C  10 - C  11          0.01700     0.39078   
  1460. BD*(   1) C  10 - C  24          0.01051     0.46388   
  1461. BD*(   1) C  11 - C  12          0.01260     0.48991   
  1462. BD*(   2) C  11 - C  12          0.14013    -0.03635  1501(v),1467(v),1442(v)
                                                    1497(v),1496(v)
  1463. BD*(   1) C  11 - C  38          0.00780     0.31994   
  1464. BD*(   1) C  12 - C  13          0.01681     0.37960   
  1465. BD*(   1) C  12 - C  42          0.01331     0.40054   
  1466. BD*(   1) C  13 - C  26          0.01015     0.47157   
  1467. BD*(   2) C  13 - C  26          0.19505    -0.05759  1462(v),1445(v),1442(v)
                                                    770(g),1458(r),1485(r)
                                                    1476(r),477(g)
  1468. BD*(   1) C  14 - C  15          0.01692     0.39352   
  1469. BD*(   1) C  14 - C  26          0.01054     0.46776   
  1470. BD*(   1) C  15 - C  16          0.01264     0.49043   
  1471. BD*(   2) C  15 - C  16          0.13815    -0.03532  1509(v),1476(v),1445(v)
                                                    1505(v),1504(v)
  1472. BD*(   1) C  15 - C  47          0.00773     0.32344   
  1473. BD*(   1) C  16 - C  17          0.01713     0.38340   
  1474. BD*(   1) C  16 - C  51          0.01334     0.40211   
  1475. BD*(   1) C  17 - C  28          0.01043     0.46611   
  1476. BD*(   2) C  17 - C  28          0.20569    -0.06089  1448(v),1471(v),1445(v)
                                                    1467(r),800(g),1485(r)
                                                    579(g)
  1477. BD*(   1) C  18 - C  19          0.01739     0.38307   
  1478. BD*(   1) C  18 - C  28          0.01041     0.46876   
  1479. BD*(   1) C  19 - C  20          0.01145     0.50660   
  1480. BD*(   2) C  19 - C  20          0.11954    -0.03128  1485(v),1448(v),1513(v)
                                                    1517(v),1515(v),1512(v)
  1481. BD*(   1) C  19 - C  56          0.00811     0.31928   
  1482. BD*(   1) C  20 - C  21          0.01715     0.38315   
  1483. BD*(   1) C  20 - C  60          0.00810     0.31982   
  1484. BD*(   1) C  21 - C  22          0.01016     0.47222   
  1485. BD*(   2) C  21 - C  22          0.19698    -0.05735  1439(v),1480(v),1448(v)
                                                    707(g),1458(r),1467(r)
                                                    1476(r),685(g)
  1486. BD*(   1) C  22 - H  23          0.00610     0.33269   
  1487. BD*(   1) C  24 - H  25          0.00639     0.33326   
  1488. BD*(   1) C  26 - H  27          0.00646     0.33272   
  1489. BD*(   1) C  28 - H  29          0.00652     0.33403   
  1490. BD*(   1) C  30 - H  31          0.00303     0.30641   
  1491. BD*(   1) C  30 - H  32          0.00471     0.29391   
  1492. BD*(   1) C  30 - H  33          0.00480     0.29137   
  1493. BD*(   1) C  34 - H  35          0.00463     0.29437   
  1494. BD*(   1) C  34 - H  36          0.00479     0.29430   
  1495. BD*(   1) C  34 - H  37          0.00303     0.30690   
  1496. BD*(   1) C  38 - H  39          0.00442     0.29556   
  1497. BD*(   1) C  38 - H  40          0.00540     0.29160   
  1498. BD*(   1) C  38 - H  41          0.00372     0.30575   
  1499. BD*(   1) C  42 - H  43          0.01026     0.33346   
  1500. BD*(   1) C  42 - C  44          0.00368     0.54350   
  1501. BD*(   2) C  42 - C  44          0.02923    -0.02945   
  1502. BD*(   1) C  44 - H  45          0.00515     0.35016   
  1503. BD*(   1) C  44 - H  46          0.00385     0.35397   
  1504. BD*(   1) C  47 - H  48          0.00448     0.29957   
  1505. BD*(   1) C  47 - H  49          0.00546     0.29395   
  1506. BD*(   1) C  47 - H  50          0.00371     0.30934   
  1507. BD*(   1) C  51 - H  52          0.01042     0.33481   
  1508. BD*(   1) C  51 - C  53          0.00367     0.54461   
  1509. BD*(   2) C  51 - C  53          0.03049    -0.02681   
  1510. BD*(   1) C  53 - H  54          0.00515     0.35157   
  1511. BD*(   1) C  53 - H  55          0.00387     0.35593   
  1512. BD*(   1) C  56 - H  57          0.00435     0.29270   
  1513. BD*(   1) C  56 - H  58          0.00464     0.29337   
  1514. BD*(   1) C  56 - H  59          0.00301     0.30593   
  1515. BD*(   1) C  60 - H  61          0.00445     0.29332   
  1516. BD*(   1) C  60 - H  62          0.00301     0.30612   
  1517. BD*(   1) C  60 - H  63          0.00454     0.29387   
  1520. BD*(   1) C  67 - H  68          0.00509     0.27092   
  1521. BD*(   1) C  67 - H  69          0.00479     0.27043   
  1522. BD*(   1) C  67 - H  70          0.00154     0.28266   
  1523. BD*(   1) C  67 - C  73          0.00610     0.28792   
  1524. BD*(   1) N  71 - H  72          0.00638     0.26360   
  1525. BD*(   1) N  71 - C  73          0.01363     0.31744   
  1526. BD*(   1) N  71 - C  74          0.01012     0.32771   
  1527. BD*(   1) C  73 - C  77          0.01034     0.45169   
  1528. BD*(   1) C  74 - H  75          0.00853     0.27297   
  1529. BD*(   1) C  74 - N  76          0.00903     0.40818   
  1530. BD*(   2) C  74 - N  76          0.22169    -0.13079  95(v),1346(g),154(v),1529(g)
  1531. BD*(   1) N  76 - C  77          0.00834     0.35621   
  1532. BD*(   1) C  77 - H  78          0.00681     0.31593   
       -------------------------------
              Total Lewis  147.56852  ( 97.0205%)
        Valence non-Lewis    4.23692  (  2.7856%)
        Rydberg non-Lewis    0.29491  (  0.1939%)
       -------------------------------
            Total unit  1  152.10035  (100.0000%)
           Charge unit  1    0.89965
 
 Molecular unit  2  (H2O)
    86. BD (   1) O  64 - H  65          0.99679    -0.92937  155(r),161(r),1243(v)
                                                    1437(r),163(r),1376(r)
                                                    162(r),1435(r),168(r),187(r)
                                                    192(r),243(r),189(r),1379(r)
    87. BD (   1) O  64 - H  66          0.99751    -0.99191  155(r),161(r),1239(v),163(r)
                                                    1437(r),162(r),243(r)
                                                    1379(r),165(r),242(r)
                                                    1376(r),154(r),1377(r)
                                                    168(r)
   146. CR (   1) O  64                  0.99990   -19.09275  155(r),1243(v),1239(v)
                                                    1437(r),163(r)
   157. LP (   1) O  64                  0.98808    -0.45449  154(r),1242(v),1434(r)
                                                    1237(v),1436(r),166(r)
                                                    1378(r)
   158. LP (   2) O  64                  0.91161    -0.63096  155(r),1437(r),1243(v)
                                                    1238(v),1518(g),1519(g)
                                                    168(r),163(r),214(r),1379(r)
                                                    266(r),154(r),242(r),187(r)
                                                    165(r),268(r),241(r),216(r)
                                                    267(r),189(r),215(r),190(r)
                                                    1435(r),171(r),239(r)
  1211. RY*(   1) O  64                  0.00073     1.10814   
  1212. RY*(   2) O  64                  0.00021     0.76194   
  1213. RY*(   3) O  64                  0.00017     0.90484   
  1214. RY*(   4) O  64                  0.00008     1.02108   
  1215. RY*(   5) O  64                  0.00002     2.09400   
  1216. RY*(   6) O  64                  0.00002     2.12248   
  1217. RY*(   7) O  64                  0.00000     3.22281   
  1218. RY*(   8) O  64                  0.00001     5.21258   
  1219. RY*(   9) O  64                  0.00001     3.05679   
  1220. RY*(  10) O  64                  0.00001     2.47693   
  1221. RY*(  11) O  64                  0.00000     6.25136   
  1222. RY*(  12) O  64                  0.00000     2.72424   
  1223. RY*(  13) O  64                  0.00000     6.31516   
  1224. RY*(  14) O  64                  0.00000    42.07254   
  1225. RY*(  15) O  64                  0.00000     6.41508   
  1226. RY*(  16) O  64                  0.00000     2.20203   
  1227. RY*(  17) O  64                  0.00000     6.15634   
  1228. RY*(  18) O  64                  0.00000     2.38434   
  1229. RY*(  19) O  64                  0.00000     6.43008   
  1230. RY*(  20) O  64                  0.00000     5.25868   
  1231. RY*(  21) O  64                  0.00000     5.16469   
  1232. RY*(  22) O  64                  0.00000     5.51288   
  1233. RY*(  23) O  64                  0.00000     5.28133   
  1234. RY*(  24) O  64                  0.00000     5.43706   
  1235. RY*(  25) O  64                  0.00000     5.52372   
  1236. RY*(  26) O  64                  0.00000     5.22533   
  1237. RY*(   1) H  65                  0.00039     1.82308   
  1238. RY*(   2) H  65                  0.00038     1.19479   
  1239. RY*(   3) H  65                  0.00032     1.84924   
  1240. RY*(   4) H  65                  0.00008     1.85906   
  1241. RY*(   5) H  65                  0.00000     2.75883   
  1242. RY*(   1) H  66                  0.00044     1.90606   
  1243. RY*(   2) H  66                  0.00035     1.99273   
  1244. RY*(   3) H  66                  0.00019     1.88930   
  1245. RY*(   4) H  66                  0.00007     1.19185   
  1246. RY*(   5) H  66                  0.00000     2.91356   
  1518. BD*(   1) O  64 - H  65          0.00129     0.31702   
  1519. BD*(   1) O  64 - H  66          0.00086     0.49486   
       -------------------------------
              Total Lewis    4.89389  ( 99.8845%)
        Valence non-Lewis    0.00215  (  0.0439%)
        Rydberg non-Lewis    0.00351  (  0.0716%)
       -------------------------------
            Total unit  2    4.89955  (100.0000%)
           Charge unit  2    0.10045
 Unable to Open any file for archive entry.
 1\1\GINC-BGN1022\SP\UAPFD\def2TZVP\C34H36Fe1N6O1(1+,2)\BEBJONES\31-Mar
 -2024\0\\# apfd/def2TZVP scf=maxcycle=999 geom=check pop=nbo\\1bz6_III
 _D\\1,2\Fe,0,-0.5332829154,9.4782334547,15.4407824312\N,0,-1.903546445
 4,10.7506394522,16.1427569115\N,0,-1.9879662675,8.1381698314,15.056343
 7775\N,0,0.8377420286,8.1395565985,14.8123315415\N,0,0.9192583936,10.7
 494860769,15.9306970255\C,0,-1.6748432449,12.000095935,16.6249222451\C
 ,0,-2.921434715,12.6704304148,16.923282712\C,0,-3.9107187728,11.785027
 6514,16.6290028876\C,0,-3.2537999688,10.5911606646,16.1431701322\C,0,-
 3.3271640458,8.3186086922,15.2201682942\C,0,-4.0626629009,7.1650853569
 ,14.7680320215\C,0,-3.1298397709,6.2606059613,14.3358893206\C,0,-1.839
 7663972,6.896361726,14.5267344931\C,0,0.6104747662,6.8609369482,14.402
 4046729\C,0,1.8488588076,6.1527486136,14.2110834297\C,0,2.8478889571,7
 .0276246988,14.5502649045\C,0,2.1871445325,8.2652691419,14.9137927559\
 C,0,2.2574590233,10.5519950722,15.803867084\C,0,2.994531904,11.6794835
 197,16.3342004996\C,0,2.0650403507,12.5653340168,16.7798687615\C,0,0.7
 739370076,11.9675717153,16.5140821273\C,0,-0.4300903995,12.5671320617,
 16.8281762654\H,0,-0.3975501966,13.5545139226,17.2630745331\C,0,-3.926
 0411106,9.4566585106,15.7337127193\H,0,-5.0026018266,9.4614666606,15.8
 137835127\C,0,-0.6374588375,6.2907463142,14.2213709191\H,0,-0.66930156
 8,5.2744995078,13.8594200736\C,0,2.8584340298,9.3996522414,15.33487953
 62\H,0,3.9372659396,9.3667492684,15.3414440101\C,0,-5.3881499536,11.94
 3203583,16.7502397455\H,0,-5.640983555,12.9254720267,17.1418217858\H,0
 ,-5.8001818353,11.1902595037,17.4224589179\H,0,-5.869777017,11.8273896
 958,15.7786206199\C,0,-3.0238186695,14.0581954907,17.4572007043\H,0,-2
 .5435944564,14.7651134219,16.7804517338\H,0,-2.5321490815,14.132944915
 8,18.4275335798\H,0,-4.0638658948,14.3514655064,17.5779750208\C,0,-5.5
 47165652,7.0501924887,14.7349239815\H,0,-6.0038619962,8.0015922372,14.
 4652073902\H,0,-5.9368887987,6.7547456613,15.7105858433\H,0,-5.8468057
 359,6.3009240587,14.0049126434\C,0,-3.3241960007,4.9451718135,13.76738
 07635\H,0,-2.6016378408,4.6496955477,13.0152133712\C,0,-4.291885184,4.
 0954387569,14.0967062971\H,0,-5.0089607433,4.3138769011,14.8685923878\
 H,0,-4.3835445096,3.1340195644,13.6188439297\C,0,1.9701381542,4.760037
 1935,13.6988729363\H,0,1.2462014836,4.5785278547,12.9058588399\H,0,1.7
 888027721,4.0335584711,14.4928769053\H,0,2.9697364323,4.5937492023,13.
 3025883736\C,0,4.2802665936,6.8271562567,14.5435211953\H,0,4.874417714
 1,7.6948875427,14.2805669013\C,0,4.9006110237,5.689728043,14.839851744
 7\H,0,4.3652760683,4.8103694812,15.1531220908\H,0,5.9741181952,5.60608
 54128,14.8020250303\C,0,4.4816925471,11.7753044905,16.35800585\H,0,4.8
 885871809,11.6810618757,15.3509946423\H,0,4.9074779836,10.9794579997,1
 6.9700268984\H,0,4.8016090387,12.7298719277,16.7685893002\C,0,2.259498
 9707,13.8936616798,17.4271802781\H,0,1.770603512,14.677319456,16.84817
 85419\H,0,3.3166479528,14.1349021516,17.5060368717\H,0,1.8311830735,13
 .8976733669,18.4297517362\O,0,-0.286,8.505,17.477\H,0,0.261,7.73,17.34
 8\H,0,-0.61,8.797,18.252\C,0,0.5151413313,11.419123524,10.3305392996\H
 ,0,0.3039149747,12.4681186645,10.1251503044\H,0,0.1707573494,10.830054
 684,9.4808276942\H,0,1.5883533814,11.2934248497,10.4291185193\N,0,-1.5
 174401366,10.9834267705,11.7251345337\H,0,-2.1810100858,11.2684364751,
 11.023838833\C,0,-0.1546952702,10.9807060816,11.5811962116\C,0,-1.7993
 944012,10.5295018053,12.9675612284\H,0,-2.7902244602,10.4233586247,13.
 3587592274\N,0,-0.6985268414,10.2404318992,13.618292676\C,0,0.33284426
 16,10.5170084794,12.7692984134\H,0,1.3482220054,10.3636372181,13.06994
 44458\\Version=ES64L-G16RevC.02\State=2-A\HF=-2983.8353808\S2=0.80018\
 S2-1=0.\S2A=0.750881\RMSD=2.145e-09\Dipole=-0.4584314,0.9332562,-1.034
 9241\Quadrupole=5.5229999,0.8442887,-6.3672885,-0.8008727,3.1168439,0.
 5832503\PG=C01 [X(C34H36Fe1N6O1)]\\@
 The archive entry for this job was punched.


 Cherishing children is the mark of a civilized society.
 -- Joan Ganz Cooney
 Job cpu time:       5 days 13 hours 33 minutes 36.0 seconds.
 Elapsed time:       0 days  2 hours  2 minutes 25.5 seconds.
 File lengths (MBytes):  RWF=   2158 Int=      0 D2E=      0 Chk=    192 Scr=      1
 Normal termination of Gaussian 16 at Sun Mar 31 00:36:39 2024.
