 Entering Gaussian System, Link 0=g16
 Input=1c7501.com
 Output=1c7501.log
 Initial command:
 /sw/chem/gaussian/g16_C02/a100/g16/l1.exe "/local/bebjones_7775777/Gau-150675.inp" -scrdir="/local/bebjones_7775777/"
 Entering Link 1 = /sw/chem/gaussian/g16_C02/a100/g16/l1.exe PID=    150676.
  
 Copyright (c) 1988-2021, Gaussian, Inc.  All Rights Reserved.
  
 This is part of the Gaussian(R) 16 program.  It is based on
 the Gaussian(R) 09 system (copyright 2009, Gaussian, Inc.),
 the Gaussian(R) 03 system (copyright 2003, Gaussian, Inc.),
 the Gaussian(R) 98 system (copyright 1998, Gaussian, Inc.),
 the Gaussian(R) 94 system (copyright 1995, Gaussian, Inc.),
 the Gaussian 92(TM) system (copyright 1992, Gaussian, Inc.),
 the Gaussian 90(TM) system (copyright 1990, Gaussian, Inc.),
 the Gaussian 88(TM) system (copyright 1988, Gaussian, Inc.),
 the Gaussian 86(TM) system (copyright 1986, Carnegie Mellon
 University), and the Gaussian 82(TM) system (copyright 1983,
 Carnegie Mellon University). Gaussian is a federally registered
 trademark of Gaussian, Inc.
  
 This software contains proprietary and confidential information,
 including trade secrets, belonging to Gaussian, Inc.
  
 This software is provided under written license and may be
 used, copied, transmitted, or stored only in accord with that
 written license.
  
 The following legend is applicable only to US Government
 contracts under FAR:
  
                    RESTRICTED RIGHTS LEGEND
  
 Use, reproduction and disclosure by the US Government is
 subject to restrictions as set forth in subparagraphs (a)
 and (c) of the Commercial Computer Software - Restricted
 Rights clause in FAR 52.227-19.
  
 Gaussian, Inc.
 340 Quinnipiac St., Bldg. 40, Wallingford CT 06492
  
  
 ---------------------------------------------------------------
 Warning -- This program may not be used in any manner that
 competes with the business of Gaussian, Inc. or will provide
 assistance to any competitor of Gaussian, Inc.  The licensee
 of this program is prohibited from giving any competitor of
 Gaussian, Inc. access to this program.  By using this program,
 the user acknowledges that Gaussian, Inc. is engaged in the
 business of creating and licensing software in the field of
 computational chemistry and represents and warrants to the
 licensee that it is not a competitor of Gaussian, Inc. and that
 it will not use this program in any manner prohibited above.
 ---------------------------------------------------------------
  

 Cite this work as:
 Gaussian 16, Revision C.02,
 M. J. Frisch, G. W. Trucks, H. B. Schlegel, G. E. Scuseria, 
 M. A. Robb, J. R. Cheeseman, G. Scalmani, V. Barone, 
 G. A. Petersson, H. Nakatsuji, X. Li, M. Caricato, A. V. Marenich, 
 J. Bloino, B. G. Janesko, R. Gomperts, B. Mennucci, H. P. Hratchian, 
 J. V. Ortiz, A. F. Izmaylov, J. L. Sonnenberg, D. Williams-Young, 
 F. Ding, F. Lipparini, F. Egidi, J. Goings, B. Peng, A. Petrone, 
 T. Henderson, D. Ranasinghe, V. G. Zakrzewski, J. Gao, N. Rega, 
 G. Zheng, W. Liang, M. Hada, M. Ehara, K. Toyota, R. Fukuda, 
 J. Hasegawa, M. Ishida, T. Nakajima, Y. Honda, O. Kitao, H. Nakai, 
 T. Vreven, K. Throssell, J. A. Montgomery, Jr., J. E. Peralta, 
 F. Ogliaro, M. J. Bearpark, J. J. Heyd, E. N. Brothers, K. N. Kudin, 
 V. N. Staroverov, T. A. Keith, R. Kobayashi, J. Normand, 
 K. Raghavachari, A. P. Rendell, J. C. Burant, S. S. Iyengar, 
 J. Tomasi, M. Cossi, J. M. Millam, M. Klene, C. Adamo, R. Cammi, 
 J. W. Ochterski, R. L. Martin, K. Morokuma, O. Farkas, 
 J. B. Foresman, and D. J. Fox, Gaussian, Inc., Wallingford CT, 2019.
 
 ******************************************
 Gaussian 16:  ES64L-G16RevC.02  7-Dec-2021
                18-Mar-2024 
 ******************************************
 %mem=16GB
 %CPU=0-71
 SetSPE:  set environment variable "OMP_PROC_BIND" = "true"
 SetSPE:  set environment variable "OMP_PLACES" = "{0},{1},{2},{3},{4},{5},{6},{7},{8},{9},{10},{11},{12},{13},{14},{15},{16},{17},{18},{19},{20},{21},{22},{23},{24},{25},{26},{27},{28},{29},{30},{31},{32},{33},{34},{35},{36},{37},{38},{39},{40},{41},{42},{43},{44},{45},{46},{47},{48},{49},{50},{51},{52},{53},{54},{55},{56},{57},{58},{59},{60},{61},{62},{63},{64},{65},{66},{67},{68},{69},{70},{71}"
 Will use up to   72 processors via shared memory.
 %gpucpu=0,1,2,3=0,1,2,3
 Will use    4 GPUs:
 Thread  CPU   GPU
      0    0     0
      1    1     1
      2    2     2
      3    3     3
      4    4    -1
      5    5    -1
      6    6    -1
      7    7    -1
      8    8    -1
      9    9    -1
     10   10    -1
     11   11    -1
     12   12    -1
     13   13    -1
     14   14    -1
     15   15    -1
     16   16    -1
     17   17    -1
     18   18    -1
     19   19    -1
     20   20    -1
     21   21    -1
     22   22    -1
     23   23    -1
     24   24    -1
     25   25    -1
     26   26    -1
     27   27    -1
     28   28    -1
     29   29    -1
     30   30    -1
     31   31    -1
     32   32    -1
     33   33    -1
     34   34    -1
     35   35    -1
     36   36    -1
     37   37    -1
     38   38    -1
     39   39    -1
     40   40    -1
     41   41    -1
     42   42    -1
     43   43    -1
     44   44    -1
     45   45    -1
     46   46    -1
     47   47    -1
     48   48    -1
     49   49    -1
     50   50    -1
     51   51    -1
     52   52    -1
     53   53    -1
     54   54    -1
     55   55    -1
     56   56    -1
     57   57    -1
     58   58    -1
     59   59    -1
     60   60    -1
     61   61    -1
     62   62    -1
     63   63    -1
     64   64    -1
     65   65    -1
     66   66    -1
     67   67    -1
     68   68    -1
     69   69    -1
     70   70    -1
     71   71    -1
 SetGPE:  set environment variable "OMP_PROC_BIND" = "true"
 SetGPE:  set environment variable "OMP_PLACES" = "{0},{1},{2},{3},{4},{5},{6},{7},{8},{9},{10},{11},{12},{13},{14},{15},{16},{17},{18},{19},{20},{21},{22},{23},{24},{25},{26},{27},{28},{29},{30},{31},{32},{33},{34},{35},{36},{37},{38},{39},{40},{41},{42},{43},{44},{45},{46},{47},{48},{49},{50},{51},{52},{53},{54},{55},{56},{57},{58},{59},{60},{61},{62},{63},{64},{65},{66},{67},{68},{69},{70},{71}"
 %chk=1c75_II_S.chk
 Properties for Device   0
 Minimum vector length:                              32
 Maximum vector length:                            1024
 Number of SMPs:                                    108
 Maximum number of threads per SMP:                2048
 Number of ASync Engines:                             5
 Memory:                                           9192980480
 Properties for Device   1
 Minimum vector length:                              32
 Maximum vector length:                            1024
 Number of SMPs:                                    108
 Maximum number of threads per SMP:                2048
 Number of ASync Engines:                             5
 Memory:                                           9192980480
 Properties for Device   2
 Minimum vector length:                              32
 Maximum vector length:                            1024
 Number of SMPs:                                    108
 Maximum number of threads per SMP:                2048
 Number of ASync Engines:                             5
 Memory:                                           9192980480
 Properties for Device   3
 Minimum vector length:                              32
 Maximum vector length:                            1024
 Number of SMPs:                                    108
 Maximum number of threads per SMP:                2048
 Number of ASync Engines:                             5
 Memory:                                           9192980480
   8273682432 words of memory will be used on each GPU.
 ------------------------------------------
 # polar def2tzvp apfd int=(grid=ultrafine)
 ------------------------------------------
 1/38=1,172=1/1;
 2/12=2,17=6,18=5,40=1/2;
 3/5=44,7=101,11=2,25=1,30=1,74=-44,75=-5/1,2,3;
 4//1;
 5/5=2,38=5,98=1/2;
 8/6=4,10=90,11=11/1;
 10/6=1,13=10/2;
 6/7=2,8=2,9=2,10=2,28=1/1;
 99/5=1,9=1/99;
 ---------
 1c75_II_S
 ---------
 Symbolic Z-matrix:
 Charge =  0 Multiplicity = 1
 Fe                    11.12635   24.02002   1.90301 
 N                     11.59325   25.93997   2.16078 
 N                     12.36444   23.85276   0.39196 
 N                     10.63236   22.07102   1.7846 
 N                     9.85406   24.16458   3.5017 
 C                     11.16074   26.80061   3.11428 
 C                     11.72137   28.11898   2.9077 
 C                     12.48368   28.0351   1.78576 
 C                     12.40031   26.66105   1.33878 
 C                     13.08109   24.85402  -0.18087 
 C                     13.90629   24.33457  -1.24995 
 C                     13.65905   22.99765  -1.3105 
 C                     12.69646   22.71497  -0.26873 
 C                     11.22482   21.17052   0.95626 
 C                     10.68588   19.84307   1.17609 
 C                     9.76441   19.97097   2.1818 
 C                     9.75124   21.36556   2.54164 
 C                     9.03828   23.19981   4.00152 
 C                     8.27514   23.70087   5.12834 
 C                     8.68229   24.99557   5.30917 
 C                     9.65269   25.26233   4.27937 
 C                     10.26689   26.49187   4.11641 
 H                     10.00445   27.27498   4.81076 
 C                     13.08321   26.17228   0.23887 
 H                     13.69006   26.86975  -0.31778 
 C                     12.1664   21.46396  -0.01508 
 H                     12.52448   20.64548  -0.62093 
 C                     8.97744   21.89161   3.56188 
 H                     8.28321   21.22746   4.05338 
 C                     11.4456   29.29486   3.78051 
 H                     11.73134   29.08688   4.81218 
 H                     10.38249   29.5369   3.76766 
 H                     11.99837   30.16787   3.44172 
 C                     13.27027   29.09764   1.09751 
 H                     12.92725   29.21608   0.0693 
 H                     14.33046   28.842    1.0735 
 H                     13.16004   30.05142   1.6078 
 C                     8.2843    25.94837   6.38065 
 H                     7.54418   26.6634   6.01789 
 H                     9.14894   26.50847   6.73324 
 H                     7.85459   25.40445   7.21906 
 C                     7.32595   22.9261   5.89609 
 H                     7.5518    21.87018   5.99 
 C                     6.22726   23.39996   6.4741 
 H                     5.92632   24.42869   6.37949 
 H                     5.57149   22.76393   7.04491 
 C                     8.96804   18.90375   2.84792 
 H                     7.94738   18.88162   2.46145 
 H                     8.91538   19.07093   3.92306 
 H                     9.42319   17.93162   2.66856 
 C                     11.09651   18.65535   0.46018 
 H                     12.13975   18.61999   0.16668 
 C                     10.30202   17.64106   0.13436 
 H                     9.24886   17.64365   0.35557 
 H                     10.6751   16.77783  -0.39201 
 C                     14.23362   21.97134  -2.22576 
 H                     14.94685   22.41954  -2.9135 
 H                     13.44718   21.49416  -2.81112 
 H                     14.7464   21.19666  -1.65529 
 C                     14.81321   25.16609  -2.09086 
 H                     14.2535   25.95027  -2.60137 
 H                     15.31161   24.55742  -2.84144 
 H                     15.57617   25.64327  -1.47512 
 C                     14.24155   21.84553   5.98899 
 H                     15.05237   21.17422   5.7047 
 H                     13.42697   21.2535   6.39449 
 H                     14.60999   22.51364   6.76753 
 N                     14.56248   23.48009   4.11783 
 H                     15.52777   23.68033   4.32228 
 C                     13.75883   22.61655   4.81545 
 C                     13.82339   24.00929   3.11716 
 H                     14.19349   24.72186   2.40935 
 N                     12.60281   23.53303   3.13875 
 C                     12.54694   22.6656   4.18895 
 H                     11.64543   22.13959   4.42319 
 C                     10.13069   24.2902  -2.21822 
 H                     11.15671   24.50669  -1.93692 
 H                     9.641     25.22498  -2.48095 
 H                     10.13828   23.63956  -3.09048 
 C                     9.39985   23.61501  -1.07374 
 H                     9.8841    22.6818  -0.79098 
 H                     8.36015   23.42646  -1.34017 
 S                     9.37611   24.71239   0.40359 
 C                     7.8013    24.14521   1.11588 
 H                     7.85499   23.08276   1.33063 
 H                     6.99763   24.3644   0.41763 
 H                     7.65339   24.69816   2.03693 
 
 Stoichiometry    C37H42FeN6S
 Framework group  C1[X(C37H42FeN6S)]
 Deg. of freedom   255
 Full point group                 C1      NOp   1
 Largest Abelian subgroup         C1      NOp   1
 Largest concise Abelian subgroup C1      NOp   1
                         Standard orientation:                         
 ---------------------------------------------------------------------
 Center     Atomic      Atomic             Coordinates (Angstroms)
 Number     Number       Type             X           Y           Z
 ---------------------------------------------------------------------
      1         26           0       -0.126476   -0.208163   -0.133673
      2          7           0       -0.240385   -2.197149   -0.093312
      3          7           0       -2.075043   -0.027483   -0.013066
      4          7           0        0.115338    1.791194   -0.106739
      5          7           0        1.912993   -0.374870   -0.224173
      6          6           0        0.763856   -3.107298   -0.084620
      7          6           0        0.235073   -4.454655   -0.094267
      8          6           0       -1.117618   -4.330618   -0.136258
      9          6           0       -1.396738   -2.910519   -0.123663
     10          6           0       -2.983712   -1.036434   -0.037203
     11          6           0       -4.323941   -0.510488    0.107305
     12          6           0       -4.196984    0.840708    0.208824
     13          6           0       -2.780017    1.121968    0.138954
     14          6           0       -0.885150    2.690030    0.091201
     15          6           0       -0.358745    4.040023    0.127609
     16          6           0        0.996742    3.921664   -0.032241
     17          6           0        1.264446    2.513693   -0.175439
     18          6           0        2.822744    0.628932   -0.328336
     19          6           0        4.171786    0.099926   -0.386613
     20          6           0        4.044761   -1.259490   -0.283791
     21          6           0        2.632917   -1.528714   -0.196984
     22          6           0        2.108198   -2.806981   -0.117900
     23          1           0        2.804733   -3.631010   -0.109282
     24          6           0       -2.676085   -2.383027   -0.114917
     25          1           0       -3.499646   -3.079955   -0.140110
     26          6           0       -2.233528    2.390708    0.183158
     27          1           0       -2.916725    3.216919    0.308883
     28          6           0        2.534581    1.979852   -0.310185
     29          1           0        3.358435    2.671246   -0.398834
     30          6           0        1.074228   -5.686047   -0.088528
     31          1           0        1.727078   -5.705725    0.784770
     32          1           0        1.702010   -5.722489   -0.979324
     33          1           0        0.453475   -6.578720   -0.071871
     34          6           0       -2.161656   -5.393002   -0.188464
     35          1           0       -2.775395   -5.276539   -1.082146
     36          1           0       -2.816756   -5.336817    0.681950
     37          1           0       -1.706993   -6.380435   -0.210987
     38          6           0        5.120307   -2.284595   -0.202275
     39          1           0        5.265085   -2.781843   -1.162706
     40          1           0        4.867633   -3.044478    0.535541
     41          1           0        6.058216   -1.815195    0.086550
     42          6           0        5.371896    0.900408   -0.484804
     43          1           0        5.330467    1.866788    0.004262
     44          6           0        6.487268    0.549307   -1.116040
     45          1           0        6.574063   -0.376757   -1.657018
     46          1           0        7.350499    1.193392   -1.135599
     47          6           0        2.029160    4.994002    0.000641
     48          1           0        2.338825    5.266801   -1.009945
     49          1           0        2.913982    4.666023    0.544861
     50          1           0        1.629882    5.881542    0.487691
     51          6           0       -1.154251    5.232386    0.320652
     52          1           0       -2.017961    5.122237    0.966887
     53          6           0       -0.913930    6.415146   -0.235646
     54          1           0       -0.101170    6.570696   -0.923619
     55          1           0       -1.542039    7.268974   -0.041037
     56          6           0       -5.253450    1.878973    0.373178
     57          1           0       -6.240925    1.425439    0.415316
     58          1           0       -5.235010    2.582102   -0.459949
     59          1           0       -5.094235    2.442009    1.293039
     60          6           0       -5.557851   -1.346209    0.116198
     61          1           0       -5.641128   -1.919603   -0.807442
     62          1           0       -6.445168   -0.725575    0.214856
     63          1           0       -5.537900   -2.049979    0.948825
     64          6           0        1.286069    0.657263    5.193979
     65          1           0        0.582423    1.204808    5.821664
     66          1           0        2.112802    1.314991    4.944266
     67          1           0        1.670487   -0.185399    5.768777
     68          7           0       -0.429496   -0.680373    3.951563
     69          1           0       -0.854075   -1.085843    4.769496
     70          6           0        0.628486    0.190758    3.947115
     71          6           0       -0.789780   -0.893479    2.666087
     72          1           0       -1.590893   -1.536683    2.365699
     73          7           0       -0.025560   -0.210353    1.849750
     74          6           0        0.861232    0.469059    2.631079
     75          1           0        1.602870    1.106818    2.198059
     76          6           0       -2.811761    0.386933   -3.371571
     77          1           0       -3.212154   -0.058039   -2.465818
     78          1           0       -2.742943   -0.385802   -4.133654
     79          1           0       -3.498466    1.158636   -3.713828
     80          6           0       -1.445549    0.989089   -3.105628
     81          1           0       -1.495155    1.758033   -2.336477
     82          1           0       -1.025575    1.407078   -4.020184
     83         16           0       -0.275816   -0.311464   -2.533255
     84          6           0        1.254333    0.412242   -3.199564
     85          1           0        1.413328    1.396956   -2.771938
     86          1           0        1.179891    0.462088   -4.282821
     87          1           0        2.066593   -0.246872   -2.913636
 ---------------------------------------------------------------------
 Rotational constants (GHZ):           0.0832718           0.0809082           0.0579176
 Standard basis: def2TZVP (5D, 7F)
 There are  1894 symmetry adapted cartesian basis functions of A   symmetry.
 There are  1667 symmetry adapted basis functions of A   symmetry.
  1667 basis functions,  2700 primitive gaussians,  1894 cartesian basis functions
   174 alpha electrons      174 beta electrons
       nuclear repulsion energy      7147.7641398961 Hartrees.
 NAtoms=   87 NActive=   87 NUniq=   87 SFac= 1.00D+00 NAtFMM=   60 NAOKFM=T Big=T
 Integral buffers will be    131072 words long.
 Raffenetti 2 integral format.
 Two-electron integral symmetry is turned on.
 R6APFD:  NTU= -4 IXU= 1 FactS= 1.050
 Nuclear repulsion after empirical dispersion term =     7147.5800333134 Hartrees.
 One-electron integrals computed using PRISM.
   1 Symmetry operations used in ECPInt.
 ECPInt:  NShTT=  224115 NPrTT=  692067 LenC2=  178196 LenP2D=  362753.
 LDataN:  DoStor=T MaxTD1= 6 Len=  172
 Number of processors reduced to  21 by ecpmxn.
 NBasis=  1667 RedAO= T EigKep=  3.05D-06  NBF=  1667
 NBsUse=  1667 1.00D-06 EigRej= -1.00D+00 NBFU=  1667
 ExpMin= 4.20D-02 ExpMax= 3.01D+05 ExpMxC= 2.91D+03 IAcc=3 IRadAn=         5 AccDes= 0.00D+00
 Harris functional with IExCor= 3731 and IRadAn=       5 diagonalized for initial guess.
 HarFok:  IExCor= 3731 AccDes= 0.00D+00 IRadAn=         5 IDoV= 1 UseB2=F ITyADJ=14
 ICtDFT=  3500011 ScaDFX=  1.000000  1.000000  1.000000  1.000000
 FoFCou: FMM=F IPFlag=           0 FMFlag=      100000 FMFlg1=        2001
         NFxFlg=           0 DoJE=T BraDBF=F KetDBF=T FulRan=T
         wScrn=  0.000000 ICntrl=       500 IOpCl=  0 I1Cent=   200000004 NGrid=           0
         NMat0=    1 NMatS0=      1 NMatT0=    0 NMatD0=    1 NMtDS0=    0 NMtDT0=    0
 Petite list used in FoFCou.
 Requested convergence on RMS density matrix=1.00D-08 within 128 cycles.
 Requested convergence on MAX density matrix=1.00D-06.
 Requested convergence on             energy=1.00D-06.
 No special actions if energy rises.
 EnCoef did     2 forward-backward iterations
 EnCoef did   100 forward-backward iterations
 EnCoef did   100 forward-backward iterations
 EnCoef did   100 forward-backward iterations
 EnCoef did     7 forward-backward iterations
 EnCoef did     4 forward-backward iterations
 Restarting incremental Fock formation.
 SCF Done:  E(RAPFD) =  -3424.85360815     A.U. after   26 cycles
            NFock= 26  Conv=0.20D-08     -V/T= 2.0033
 DoSCS=F DFT=T ScalE2(SS,OS)=  1.000000  1.000000
 Range of M.O.s used for correlation:     1  1667
 NBasis=  1667 NAE=   174 NBE=   174 NFC=     0 NFV=     0
 NROrb=   1667 NOA=   174 NOB=   174 NVA=  1493 NVB=  1493

 **** Warning!!: The largest alpha MO coefficient is  0.43144400D+02

          Differentiating once with respect to electric field.
                with respect to dipole field.
          Electric field/nuclear overlap derivatives assumed to be zero.
          There are     3 degrees of freedom in the 1st order CPHF.  IDoFFX=0 NUNeed=     3.
      3 vectors produced by pass  0 Test12= 8.66D-12 3.33D-08 XBig12= 1.88D+03 2.09D+01.
 AX will form     3 AO Fock derivatives at one time.
      3 vectors produced by pass  1 Test12= 8.66D-12 3.33D-08 XBig12= 1.37D+03 7.01D+00.
      3 vectors produced by pass  2 Test12= 8.66D-12 3.33D-08 XBig12= 4.05D+02 2.61D+00.
      3 vectors produced by pass  3 Test12= 8.66D-12 3.33D-08 XBig12= 4.37D+02 5.20D+00.
      3 vectors produced by pass  4 Test12= 8.66D-12 3.33D-08 XBig12= 3.57D+02 4.13D+00.
      3 vectors produced by pass  5 Test12= 8.66D-12 3.33D-08 XBig12= 1.41D+02 3.18D+00.
      3 vectors produced by pass  6 Test12= 8.66D-12 3.33D-08 XBig12= 7.82D+01 2.44D+00.
      3 vectors produced by pass  7 Test12= 8.66D-12 3.33D-08 XBig12= 3.97D+01 1.53D+00.
      3 vectors produced by pass  8 Test12= 8.66D-12 3.33D-08 XBig12= 1.80D+01 6.35D-01.
      3 vectors produced by pass  9 Test12= 8.66D-12 3.33D-08 XBig12= 8.78D+00 5.20D-01.
      3 vectors produced by pass 10 Test12= 8.66D-12 3.33D-08 XBig12= 3.83D+00 3.99D-01.
      3 vectors produced by pass 11 Test12= 8.66D-12 3.33D-08 XBig12= 2.67D+00 3.16D-01.
      3 vectors produced by pass 12 Test12= 8.66D-12 3.33D-08 XBig12= 1.22D+00 1.66D-01.
      3 vectors produced by pass 13 Test12= 8.66D-12 3.33D-08 XBig12= 4.78D-01 9.08D-02.
      3 vectors produced by pass 14 Test12= 8.66D-12 3.33D-08 XBig12= 1.68D-01 5.91D-02.
      3 vectors produced by pass 15 Test12= 8.66D-12 3.33D-08 XBig12= 5.80D-02 4.57D-02.
      3 vectors produced by pass 16 Test12= 8.66D-12 3.33D-08 XBig12= 2.03D-02 3.51D-02.
      3 vectors produced by pass 17 Test12= 8.66D-12 3.33D-08 XBig12= 7.10D-03 1.76D-02.
      3 vectors produced by pass 18 Test12= 8.66D-12 3.33D-08 XBig12= 3.01D-03 1.21D-02.
      3 vectors produced by pass 19 Test12= 8.66D-12 3.33D-08 XBig12= 4.12D-04 3.64D-03.
      3 vectors produced by pass 20 Test12= 8.66D-12 3.33D-08 XBig12= 9.54D-05 1.74D-03.
      3 vectors produced by pass 21 Test12= 8.66D-12 3.33D-08 XBig12= 2.48D-05 9.72D-04.
      3 vectors produced by pass 22 Test12= 8.66D-12 3.33D-08 XBig12= 7.22D-06 4.73D-04.
      3 vectors produced by pass 23 Test12= 8.66D-12 3.33D-08 XBig12= 1.28D-06 1.65D-04.
      3 vectors produced by pass 24 Test12= 8.66D-12 3.33D-08 XBig12= 3.19D-07 8.33D-05.
      3 vectors produced by pass 25 Test12= 8.66D-12 3.33D-08 XBig12= 5.66D-08 2.43D-05.
      3 vectors produced by pass 26 Test12= 8.66D-12 3.33D-08 XBig12= 1.21D-08 1.51D-05.
      3 vectors produced by pass 27 Test12= 8.66D-12 3.33D-08 XBig12= 2.05D-09 3.53D-06.
      3 vectors produced by pass 28 Test12= 8.66D-12 3.33D-08 XBig12= 2.86D-10 1.64D-06.
      3 vectors produced by pass 29 Test12= 8.66D-12 3.33D-08 XBig12= 4.80D-11 6.77D-07.
      3 vectors produced by pass 30 Test12= 8.66D-12 3.33D-08 XBig12= 6.09D-12 2.90D-07.
      2 vectors produced by pass 31 Test12= 8.66D-12 3.33D-08 XBig12= 1.42D-12 1.75D-07.
      2 vectors produced by pass 32 Test12= 8.66D-12 3.33D-08 XBig12= 2.01D-13 9.54D-08.
      1 vectors produced by pass 33 Test12= 8.66D-12 3.33D-08 XBig12= 2.77D-14 3.43D-08.
 InvSVY:  IOpt=1 It=  1 EMax= 4.26D-14
 Solved reduced A of dimension    98 with     3 vectors.
 Isotropic polarizability for W=    0.000000      611.76 Bohr**3.
 End of Minotr F.D. properties file   721 does not exist.
 End of Minotr F.D. properties file   722 does not exist.
 End of Minotr F.D. properties file   788 does not exist.

 **********************************************************************

            Population analysis using the SCF Density.

 **********************************************************************

 Orbital symmetries:
       Occupied  (A) (A) (A) (A) (A) (A) (A) (A) (A) (A) (A) (A)
                 (A) (A) (A) (A) (A) (A) (A) (A) (A) (A) (A) (A)
                 (A) (A) (A) (A) (A) (A) (A) (A) (A) (A) (A) (A)
                 (A) (A) (A) (A) (A) (A) (A) (A) (A) (A) (A) (A)
                 (A) (A) (A) (A) (A) (A) (A) (A) (A) (A) (A) (A)
                 (A) (A) (A) (A) (A) (A) (A) (A) (A) (A) (A) (A)
                 (A) (A) (A) (A) (A) (A) (A) (A) (A) (A) (A) (A)
                 (A) (A) (A) (A) (A) (A) (A) (A) (A) (A) (A) (A)
                 (A) (A) (A) (A) (A) (A) (A) (A) (A) (A) (A) (A)
                 (A) (A) (A) (A) (A) (A) (A) (A) (A) (A) (A) (A)
                 (A) (A) (A) (A) (A) (A) (A) (A) (A) (A) (A) (A)
                 (A) (A) (A) (A) (A) (A) (A) (A) (A) (A) (A) (A)
                 (A) (A) (A) (A) (A) (A) (A) (A) (A) (A) (A) (A)
                 (A) (A) (A) (A) (A) (A) (A) (A) (A) (A) (A) (A)
                 (A) (A) (A) (A) (A) (A)
       Virtual   (A) (A) (A) (A) (A) (A) (A) (A) (A) (A) (A) (A)
                 (A) (A) (A) (A) (A) (A) (A) (A) (A) (A) (A) (A)
                 (A) (A) (A) (A) (A) (A) (A) (A) (A) (A) (A) (A)
                 (A) (A) (A) (A) (A) (A) (A) (A) (A) (A) (A) (A)
                 (A) (A) (A) (A) (A) (A) (A) (A) (A) (A) (A) (A)
                 (A) (A) (A) (A) (A) (A) (A) (A) (A) (A) (A) (A)
                 (A) (A) (A) (A) (A) (A) (A) (A) (A) (A) (A) (A)
                 (A) (A) (A) (A) (A) (A) (A) (A) (A) (A) (A) (A)
                 (A) (A) (A) (A) (A) (A) (A) (A) (A) (A) (A) (A)
                 (A) (A) (A) (A) (A) (A) (A) (A) (A) (A) (A) (A)
                 (A) (A) (A) (A) (A) (A) (A) (A) (A) (A) (A) (A)
                 (A) (A) (A) (A) (A) (A) (A) (A) (A) (A) (A) (A)
                 (A) (A) (A) (A) (A) (A) (A) (A) (A) (A) (A) (A)
                 (A) (A) (A) (A) (A) (A) (A) (A) (A) (A) (A) (A)
                 (A) (A) (A) (A) (A) (A) (A) (A) (A) (A) (A) (A)
                 (A) (A) (A) (A) (A) (A) (A) (A) (A) (A) (A) (A)
                 (A) (A) (A) (A) (A) (A) (A) (A) (A) (A) (A) (A)
                 (A) (A) (A) (A) (A) (A) (A) (A) (A) (A) (A) (A)
                 (A) (A) (A) (A) (A) (A) (A) (A) (A) (A) (A) (A)
                 (A) (A) (A) (A) (A) (A) (A) (A) (A) (A) (A) (A)
                 (A) (A) (A) (A) (A) (A) (A) (A) (A) (A) (A) (A)
                 (A) (A) (A) (A) (A) (A) (A) (A) (A) (A) (A) (A)
                 (A) (A) (A) (A) (A) (A) (A) (A) (A) (A) (A) (A)
                 (A) (A) (A) (A) (A) (A) (A) (A) (A) (A) (A) (A)
                 (A) (A) (A) (A) (A) (A) (A) (A) (A) (A) (A) (A)
                 (A) (A) (A) (A) (A) (A) (A) (A) (A) (A) (A) (A)
                 (A) (A) (A) (A) (A) (A) (A) (A) (A) (A) (A) (A)
                 (A) (A) (A) (A) (A) (A) (A) (A) (A) (A) (A) (A)
                 (A) (A) (A) (A) (A) (A) (A) (A) (A) (A) (A) (A)
                 (A) (A) (A) (A) (A) (A) (A) (A) (A) (A) (A) (A)
                 (A) (A) (A) (A) (A) (A) (A) (A) (A) (A) (A) (A)
                 (A) (A) (A) (A) (A) (A) (A) (A) (A) (A) (A) (A)
                 (A) (A) (A) (A) (A) (A) (A) (A) (A) (A) (A) (A)
                 (A) (A) (A) (A) (A) (A) (A) (A) (A) (A) (A) (A)
                 (A) (A) (A) (A) (A) (A) (A) (A) (A) (A) (A) (A)
                 (A) (A) (A) (A) (A) (A) (A) (A) (A) (A) (A) (A)
                 (A) (A) (A) (A) (A) (A) (A) (A) (A) (A) (A) (A)
                 (A) (A) (A) (A) (A) (A) (A) (A) (A) (A) (A) (A)
                 (A) (A) (A) (A) (A) (A) (A) (A) (A) (A) (A) (A)
                 (A) (A) (A) (A) (A) (A) (A) (A) (A) (A) (A) (A)
                 (A) (A) (A) (A) (A) (A) (A) (A) (A) (A) (A) (A)
                 (A) (A) (A) (A) (A) (A) (A) (A) (A) (A) (A) (A)
                 (A) (A) (A) (A) (A) (A) (A) (A) (A) (A) (A) (A)
                 (A) (A) (A) (A) (A) (A) (A) (A) (A) (A) (A) (A)
                 (A) (A) (A) (A) (A) (A) (A) (A) (A) (A) (A) (A)
                 (A) (A) (A) (A) (A) (A) (A) (A) (A) (A) (A) (A)
                 (A) (A) (A) (A) (A) (A) (A) (A) (A) (A) (A) (A)
                 (A) (A) (A) (A) (A) (A) (A) (A) (A) (A) (A) (A)
                 (A) (A) (A) (A) (A) (A) (A) (A) (A) (A) (A) (A)
                 (A) (A) (A) (A) (A) (A) (A) (A) (A) (A) (A) (A)
                 (A) (A) (A) (A) (A) (A) (A) (A) (A) (A) (A) (A)
                 (A) (A) (A) (A) (A) (A) (A) (A) (A) (A) (A) (A)
                 (A) (A) (A) (A) (A) (A) (A) (A) (A) (A) (A) (A)
                 (A) (A) (A) (A) (A) (A) (A) (A) (A) (A) (A) (A)
                 (A) (A) (A) (A) (A) (A) (A) (A) (A) (A) (A) (A)
                 (A) (A) (A) (A) (A) (A) (A) (A) (A) (A) (A) (A)
                 (A) (A) (A) (A) (A) (A) (A) (A) (A) (A) (A) (A)
                 (A) (A) (A) (A) (A) (A) (A) (A) (A) (A) (A) (A)
                 (A) (A) (A) (A) (A) (A) (A) (A) (A) (A) (A) (A)
                 (A) (A) (A) (A) (A) (A) (A) (A) (A) (A) (A) (A)
                 (A) (A) (A) (A) (A) (A) (A) (A) (A) (A) (A) (A)
                 (A) (A) (A) (A) (A) (A) (A) (A) (A) (A) (A) (A)
                 (A) (A) (A) (A) (A) (A) (A) (A) (A) (A) (A) (A)
                 (A) (A) (A) (A) (A) (A) (A) (A) (A) (A) (A) (A)
                 (A) (A) (A) (A) (A) (A) (A) (A) (A) (A) (A) (A)
                 (A) (A) (A) (A) (A) (A) (A) (A) (A) (A) (A) (A)
                 (A) (A) (A) (A) (A) (A) (A) (A) (A) (A) (A) (A)
                 (A) (A) (A) (A) (A) (A) (A) (A) (A) (A) (A) (A)
                 (A) (A) (A) (A) (A) (A) (A) (A) (A) (A) (A) (A)
                 (A) (A) (A) (A) (A) (A) (A) (A) (A) (A) (A) (A)
                 (A) (A) (A) (A) (A) (A) (A) (A) (A) (A) (A) (A)
                 (A) (A) (A) (A) (A) (A) (A) (A) (A) (A) (A) (A)
                 (A) (A) (A) (A) (A) (A) (A) (A) (A) (A) (A) (A)
                 (A) (A) (A) (A) (A) (A) (A) (A) (A) (A) (A) (A)
                 (A) (A) (A) (A) (A) (A) (A) (A) (A) (A) (A) (A)
                 (A) (A) (A) (A) (A) (A) (A) (A) (A) (A) (A) (A)
                 (A) (A) (A) (A) (A) (A) (A) (A) (A) (A) (A) (A)
                 (A) (A) (A) (A) (A) (A) (A) (A) (A) (A) (A) (A)
                 (A) (A) (A) (A) (A) (A) (A) (A) (A) (A) (A) (A)
                 (A) (A) (A) (A) (A) (A) (A) (A) (A) (A) (A) (A)
                 (A) (A) (A) (A) (A) (A) (A) (A) (A) (A) (A) (A)
                 (A) (A) (A) (A) (A) (A) (A) (A) (A) (A) (A) (A)
                 (A) (A) (A) (A) (A) (A) (A) (A) (A) (A) (A) (A)
                 (A) (A) (A) (A) (A) (A) (A) (A) (A) (A) (A) (A)
                 (A) (A) (A) (A) (A) (A) (A) (A) (A) (A) (A) (A)
                 (A) (A) (A) (A) (A) (A) (A) (A) (A) (A) (A) (A)
                 (A) (A) (A) (A) (A) (A) (A) (A) (A) (A) (A) (A)
                 (A) (A) (A) (A) (A) (A) (A) (A) (A) (A) (A) (A)
                 (A) (A) (A) (A) (A) (A) (A) (A) (A) (A) (A) (A)
                 (A) (A) (A) (A) (A) (A) (A) (A) (A) (A) (A) (A)
                 (A) (A) (A) (A) (A) (A) (A) (A) (A) (A) (A) (A)
                 (A) (A) (A) (A) (A) (A) (A) (A) (A) (A) (A) (A)
                 (A) (A) (A) (A) (A) (A) (A) (A) (A) (A) (A) (A)
                 (A) (A) (A) (A) (A) (A) (A) (A) (A) (A) (A) (A)
                 (A) (A) (A) (A) (A) (A) (A) (A) (A) (A) (A) (A)
                 (A) (A) (A) (A) (A) (A) (A) (A) (A) (A) (A) (A)
                 (A) (A) (A) (A) (A) (A) (A) (A) (A) (A) (A) (A)
                 (A) (A) (A) (A) (A) (A) (A) (A) (A) (A) (A) (A)
                 (A) (A) (A) (A) (A) (A) (A) (A) (A) (A) (A) (A)
                 (A) (A) (A) (A) (A) (A) (A) (A) (A) (A) (A) (A)
                 (A) (A) (A) (A) (A) (A) (A) (A) (A) (A) (A) (A)
                 (A) (A) (A) (A) (A) (A) (A) (A) (A) (A) (A) (A)
                 (A) (A) (A) (A) (A) (A) (A) (A) (A) (A) (A) (A)
                 (A) (A) (A) (A) (A) (A) (A) (A) (A) (A) (A) (A)
                 (A) (A) (A) (A) (A) (A) (A) (A) (A) (A) (A) (A)
                 (A) (A) (A) (A) (A) (A) (A) (A) (A) (A) (A) (A)
                 (A) (A) (A) (A) (A) (A) (A) (A) (A) (A) (A) (A)
                 (A) (A) (A) (A) (A) (A) (A) (A) (A) (A) (A) (A)
                 (A) (A) (A) (A) (A) (A) (A) (A) (A) (A) (A) (A)
                 (A) (A) (A) (A) (A) (A) (A) (A) (A) (A) (A) (A)
                 (A) (A) (A) (A) (A) (A) (A) (A) (A) (A) (A) (A)
                 (A) (A) (A) (A) (A) (A) (A) (A) (A) (A) (A) (A)
                 (A) (A) (A) (A) (A) (A) (A) (A) (A) (A) (A) (A)
                 (A) (A) (A) (A) (A) (A) (A) (A) (A) (A) (A) (A)
                 (A) (A) (A) (A) (A) (A) (A) (A) (A) (A) (A) (A)
                 (A) (A) (A) (A) (A) (A) (A) (A) (A) (A) (A) (A)
                 (A) (A) (A) (A) (A) (A) (A) (A) (A) (A) (A) (A)
                 (A) (A) (A) (A) (A) (A) (A) (A) (A) (A) (A) (A)
                 (A) (A) (A) (A) (A) (A) (A) (A) (A) (A) (A) (A)
                 (A) (A) (A) (A) (A) (A) (A) (A) (A) (A) (A) (A)
                 (A) (A) (A) (A) (A) (A) (A) (A) (A) (A) (A) (A)
                 (A) (A) (A) (A) (A) (A) (A) (A) (A) (A) (A) (A)
                 (A) (A) (A) (A) (A) (A) (A) (A) (A) (A) (A) (A)
                 (A) (A) (A) (A) (A) (A) (A) (A) (A) (A) (A) (A)
                 (A) (A) (A) (A) (A)
 The electronic state is 1-A.
 Alpha  occ. eigenvalues -- -256.17566 -88.94008 -30.02665 -25.86792 -25.86449
 Alpha  occ. eigenvalues --  -25.86398 -14.41500 -14.35953 -14.33264 -14.33240
 Alpha  occ. eigenvalues --  -14.33145 -14.32986 -10.25169 -10.23463 -10.20940
 Alpha  occ. eigenvalues --  -10.20920 -10.20896 -10.20841 -10.20808 -10.20774
 Alpha  occ. eigenvalues --  -10.20691 -10.20683 -10.20661 -10.20556 -10.20533
 Alpha  occ. eigenvalues --  -10.20108 -10.19576 -10.19562 -10.18943 -10.18903
 Alpha  occ. eigenvalues --  -10.18747 -10.18707 -10.18667 -10.18627 -10.18592
 Alpha  occ. eigenvalues --  -10.18534 -10.18476 -10.18467 -10.18449 -10.18401
 Alpha  occ. eigenvalues --  -10.18390 -10.18376 -10.18361 -10.18332 -10.18287
 Alpha  occ. eigenvalues --  -10.18167 -10.18151 -10.18128 -10.17399  -7.96668
 Alpha  occ. eigenvalues --   -5.91261  -5.90969  -5.90438  -3.40072  -2.16627
 Alpha  occ. eigenvalues --   -2.15979  -2.15895  -1.05101  -0.96936  -0.96022
 Alpha  occ. eigenvalues --   -0.95899  -0.94987  -0.90670  -0.82220  -0.81887
 Alpha  occ. eigenvalues --   -0.81518  -0.81415  -0.80679  -0.80336  -0.80045
 Alpha  occ. eigenvalues --   -0.79562  -0.79475  -0.76700  -0.75671  -0.74590
 Alpha  occ. eigenvalues --   -0.74248  -0.73905  -0.73131  -0.71631  -0.70941
 Alpha  occ. eigenvalues --   -0.70055  -0.68207  -0.67858  -0.67778  -0.64915
 Alpha  occ. eigenvalues --   -0.64354  -0.64106  -0.64046  -0.61102  -0.60563
 Alpha  occ. eigenvalues --   -0.59976  -0.58689  -0.57785  -0.56617  -0.55779
 Alpha  occ. eigenvalues --   -0.54428  -0.53629  -0.53287  -0.52542  -0.51065
 Alpha  occ. eigenvalues --   -0.50984  -0.50542  -0.48666  -0.47890  -0.47716
 Alpha  occ. eigenvalues --   -0.47444  -0.47252  -0.46850  -0.44894  -0.44851
 Alpha  occ. eigenvalues --   -0.44540  -0.44467  -0.44262  -0.43675  -0.43656
 Alpha  occ. eigenvalues --   -0.43457  -0.43320  -0.43063  -0.43023  -0.42987
 Alpha  occ. eigenvalues --   -0.42481  -0.42408  -0.42313  -0.42210  -0.41941
 Alpha  occ. eigenvalues --   -0.41688  -0.41559  -0.41441  -0.41276  -0.40157
 Alpha  occ. eigenvalues --   -0.40114  -0.40025  -0.39534  -0.39394  -0.39098
 Alpha  occ. eigenvalues --   -0.38939  -0.38510  -0.38256  -0.38037  -0.37768
 Alpha  occ. eigenvalues --   -0.37474  -0.37095  -0.36868  -0.36409  -0.36056
 Alpha  occ. eigenvalues --   -0.35919  -0.35560  -0.35310  -0.34475  -0.34068
 Alpha  occ. eigenvalues --   -0.33992  -0.33672  -0.33218  -0.32051  -0.31705
 Alpha  occ. eigenvalues --   -0.31455  -0.30740  -0.30321  -0.29254  -0.29065
 Alpha  occ. eigenvalues --   -0.28618  -0.26822  -0.26636  -0.24888  -0.24255
 Alpha  occ. eigenvalues --   -0.23861  -0.22915  -0.22274  -0.21980  -0.19167
 Alpha  occ. eigenvalues --   -0.18077  -0.17912  -0.17679  -0.17602
 Alpha virt. eigenvalues --   -0.06533  -0.06412  -0.01927   0.00538   0.01703
 Alpha virt. eigenvalues --    0.01988   0.02183   0.03196   0.03522   0.04064
 Alpha virt. eigenvalues --    0.04805   0.04985   0.05226   0.05676   0.05759
 Alpha virt. eigenvalues --    0.05942   0.06573   0.06721   0.07026   0.07889
 Alpha virt. eigenvalues --    0.07933   0.08070   0.08300   0.08666   0.09007
 Alpha virt. eigenvalues --    0.09245   0.09687   0.09723   0.09919   0.10238
 Alpha virt. eigenvalues --    0.10806   0.11125   0.11391   0.11536   0.11588
 Alpha virt. eigenvalues --    0.11946   0.12172   0.12268   0.12493   0.12792
 Alpha virt. eigenvalues --    0.12973   0.13243   0.13344   0.13591   0.13757
 Alpha virt. eigenvalues --    0.13999   0.14164   0.14506   0.14607   0.14723
 Alpha virt. eigenvalues --    0.14902   0.15147   0.15204   0.15371   0.15558
 Alpha virt. eigenvalues --    0.15740   0.15830   0.16102   0.16272   0.16387
 Alpha virt. eigenvalues --    0.16656   0.17124   0.17254   0.17371   0.17498
 Alpha virt. eigenvalues --    0.17774   0.17929   0.18232   0.18373   0.18632
 Alpha virt. eigenvalues --    0.18883   0.19317   0.19664   0.20058   0.20247
 Alpha virt. eigenvalues --    0.20481   0.20733   0.20762   0.21043   0.21219
 Alpha virt. eigenvalues --    0.21720   0.21938   0.22238   0.22286   0.22557
 Alpha virt. eigenvalues --    0.22877   0.23336   0.23518   0.23682   0.24095
 Alpha virt. eigenvalues --    0.24404   0.24890   0.25043   0.25474   0.25590
 Alpha virt. eigenvalues --    0.25772   0.25917   0.26092   0.26268   0.26851
 Alpha virt. eigenvalues --    0.26956   0.27094   0.27440   0.27741   0.28055
 Alpha virt. eigenvalues --    0.28510   0.28573   0.28808   0.29035   0.29275
 Alpha virt. eigenvalues --    0.29479   0.29725   0.29995   0.30105   0.30464
 Alpha virt. eigenvalues --    0.30682   0.30816   0.30997   0.31082   0.31613
 Alpha virt. eigenvalues --    0.31767   0.32116   0.32450   0.32493   0.32872
 Alpha virt. eigenvalues --    0.33041   0.33235   0.33297   0.34127   0.34239
 Alpha virt. eigenvalues --    0.34407   0.34589   0.35009   0.35217   0.35671
 Alpha virt. eigenvalues --    0.36190   0.36372   0.36471   0.36712   0.37071
 Alpha virt. eigenvalues --    0.37511   0.37719   0.37910   0.38073   0.38204
 Alpha virt. eigenvalues --    0.38431   0.38617   0.38873   0.39012   0.39272
 Alpha virt. eigenvalues --    0.39717   0.39924   0.40153   0.40232   0.40322
 Alpha virt. eigenvalues --    0.40485   0.40628   0.41075   0.41277   0.41366
 Alpha virt. eigenvalues --    0.41502   0.41717   0.41947   0.42000   0.42137
 Alpha virt. eigenvalues --    0.42392   0.42810   0.43102   0.43290   0.43478
 Alpha virt. eigenvalues --    0.43685   0.43837   0.44021   0.44132   0.44365
 Alpha virt. eigenvalues --    0.44430   0.44782   0.44906   0.45176   0.45246
 Alpha virt. eigenvalues --    0.45536   0.45810   0.45981   0.46099   0.46252
 Alpha virt. eigenvalues --    0.46600   0.46847   0.47020   0.47206   0.47335
 Alpha virt. eigenvalues --    0.47518   0.47582   0.47778   0.47894   0.48213
 Alpha virt. eigenvalues --    0.48425   0.48555   0.48732   0.48835   0.49351
 Alpha virt. eigenvalues --    0.49420   0.49501   0.49779   0.49888   0.49913
 Alpha virt. eigenvalues --    0.50142   0.50357   0.50529   0.50739   0.50910
 Alpha virt. eigenvalues --    0.51120   0.51359   0.51502   0.51663   0.51841
 Alpha virt. eigenvalues --    0.52212   0.52279   0.52577   0.52808   0.53031
 Alpha virt. eigenvalues --    0.53270   0.53400   0.53877   0.53967   0.54100
 Alpha virt. eigenvalues --    0.54448   0.54613   0.55077   0.55308   0.55415
 Alpha virt. eigenvalues --    0.55864   0.56014   0.56193   0.56249   0.56671
 Alpha virt. eigenvalues --    0.56743   0.56911   0.57388   0.57554   0.57732
 Alpha virt. eigenvalues --    0.57953   0.58125   0.58559   0.58834   0.59428
 Alpha virt. eigenvalues --    0.59636   0.59978   0.60232   0.60362   0.60529
 Alpha virt. eigenvalues --    0.60693   0.60839   0.61484   0.61624   0.62274
 Alpha virt. eigenvalues --    0.62680   0.63072   0.63125   0.63203   0.63469
 Alpha virt. eigenvalues --    0.63739   0.63895   0.64161   0.64454   0.65047
 Alpha virt. eigenvalues --    0.65130   0.65226   0.65329   0.65495   0.65945
 Alpha virt. eigenvalues --    0.66147   0.66653   0.67029   0.67243   0.67612
 Alpha virt. eigenvalues --    0.67915   0.68222   0.68768   0.69067   0.69304
 Alpha virt. eigenvalues --    0.69359   0.69582   0.69789   0.70565   0.70839
 Alpha virt. eigenvalues --    0.71300   0.71950   0.72126   0.72374   0.72494
 Alpha virt. eigenvalues --    0.72788   0.73109   0.73516   0.74015   0.74143
 Alpha virt. eigenvalues --    0.74450   0.74734   0.75072   0.75592   0.75947
 Alpha virt. eigenvalues --    0.75996   0.76296   0.76564   0.76978   0.77410
 Alpha virt. eigenvalues --    0.77573   0.78025   0.78471   0.78548   0.78610
 Alpha virt. eigenvalues --    0.78942   0.79278   0.79670   0.79784   0.80203
 Alpha virt. eigenvalues --    0.80497   0.80859   0.81035   0.81456   0.81966
 Alpha virt. eigenvalues --    0.82141   0.82365   0.82555   0.83153   0.83641
 Alpha virt. eigenvalues --    0.84177   0.84333   0.84442   0.84983   0.85196
 Alpha virt. eigenvalues --    0.85897   0.86154   0.86498   0.86958   0.87394
 Alpha virt. eigenvalues --    0.87922   0.88058   0.88269   0.88334   0.88821
 Alpha virt. eigenvalues --    0.89284   0.89840   0.90030   0.90404   0.90584
 Alpha virt. eigenvalues --    0.91101   0.91458   0.91701   0.91872   0.91938
 Alpha virt. eigenvalues --    0.92445   0.92886   0.93195   0.93410   0.93678
 Alpha virt. eigenvalues --    0.93959   0.94373   0.94678   0.95204   0.95433
 Alpha virt. eigenvalues --    0.95691   0.96099   0.96186   0.96627   0.96820
 Alpha virt. eigenvalues --    0.96967   0.97249   0.97646   0.98061   0.98439
 Alpha virt. eigenvalues --    0.98698   0.98971   0.99091   0.99622   0.99935
 Alpha virt. eigenvalues --    1.00257   1.00887   1.01094   1.01345   1.01589
 Alpha virt. eigenvalues --    1.02057   1.02330   1.02635   1.02836   1.03022
 Alpha virt. eigenvalues --    1.03516   1.03715   1.03829   1.04091   1.04383
 Alpha virt. eigenvalues --    1.04831   1.05253   1.05777   1.05997   1.06168
 Alpha virt. eigenvalues --    1.06406   1.06623   1.07134   1.07288   1.08152
 Alpha virt. eigenvalues --    1.08224   1.08265   1.08820   1.09510   1.09736
 Alpha virt. eigenvalues --    1.10277   1.10665   1.10925   1.11148   1.11333
 Alpha virt. eigenvalues --    1.11947   1.12194   1.12319   1.12871   1.13613
 Alpha virt. eigenvalues --    1.13720   1.13945   1.14477   1.14512   1.14983
 Alpha virt. eigenvalues --    1.15327   1.15750   1.16223   1.16735   1.16925
 Alpha virt. eigenvalues --    1.17205   1.17682   1.18419   1.18550   1.18942
 Alpha virt. eigenvalues --    1.19409   1.19700   1.20010   1.20281   1.20833
 Alpha virt. eigenvalues --    1.20923   1.21097   1.21448   1.21513   1.22455
 Alpha virt. eigenvalues --    1.22783   1.23286   1.23389   1.23579   1.24096
 Alpha virt. eigenvalues --    1.24418   1.25207   1.25473   1.26173   1.26487
 Alpha virt. eigenvalues --    1.26605   1.26767   1.27249   1.27557   1.28096
 Alpha virt. eigenvalues --    1.28660   1.28827   1.28965   1.29217   1.29615
 Alpha virt. eigenvalues --    1.29737   1.30143   1.30955   1.31112   1.31352
 Alpha virt. eigenvalues --    1.31658   1.32254   1.32567   1.33056   1.33386
 Alpha virt. eigenvalues --    1.34002   1.34228   1.35073   1.35275   1.36239
 Alpha virt. eigenvalues --    1.36284   1.36812   1.37279   1.37714   1.37814
 Alpha virt. eigenvalues --    1.39038   1.39519   1.40051   1.40528   1.41005
 Alpha virt. eigenvalues --    1.41777   1.41993   1.42323   1.42899   1.43245
 Alpha virt. eigenvalues --    1.43571   1.44644   1.45061   1.45384   1.46454
 Alpha virt. eigenvalues --    1.46664   1.47078   1.47528   1.47715   1.48014
 Alpha virt. eigenvalues --    1.48527   1.48759   1.48927   1.49158   1.49230
 Alpha virt. eigenvalues --    1.49374   1.50016   1.50234   1.50598   1.50814
 Alpha virt. eigenvalues --    1.51626   1.51741   1.52067   1.52268   1.52369
 Alpha virt. eigenvalues --    1.52697   1.52930   1.53009   1.53363   1.53539
 Alpha virt. eigenvalues --    1.53970   1.54201   1.54467   1.54661   1.54806
 Alpha virt. eigenvalues --    1.54983   1.55489   1.55652   1.55790   1.56021
 Alpha virt. eigenvalues --    1.56129   1.56678   1.56814   1.57178   1.57242
 Alpha virt. eigenvalues --    1.57562   1.57956   1.58132   1.58412   1.58741
 Alpha virt. eigenvalues --    1.58888   1.59210   1.59504   1.59681   1.60077
 Alpha virt. eigenvalues --    1.60369   1.60709   1.60871   1.61369   1.61688
 Alpha virt. eigenvalues --    1.61904   1.62031   1.62290   1.62430   1.62833
 Alpha virt. eigenvalues --    1.63037   1.63652   1.63842   1.64213   1.64647
 Alpha virt. eigenvalues --    1.64792   1.64954   1.65141   1.65380   1.65598
 Alpha virt. eigenvalues --    1.65872   1.66343   1.66879   1.67052   1.67117
 Alpha virt. eigenvalues --    1.67572   1.67889   1.68131   1.68425   1.68972
 Alpha virt. eigenvalues --    1.69174   1.69466   1.69500   1.70380   1.70396
 Alpha virt. eigenvalues --    1.70988   1.71101   1.71392   1.71446   1.71882
 Alpha virt. eigenvalues --    1.71993   1.72775   1.72947   1.73263   1.73551
 Alpha virt. eigenvalues --    1.73698   1.74049   1.74578   1.74837   1.74950
 Alpha virt. eigenvalues --    1.75189   1.76150   1.76237   1.76699   1.77178
 Alpha virt. eigenvalues --    1.77686   1.77811   1.78133   1.78836   1.79361
 Alpha virt. eigenvalues --    1.79644   1.80248   1.80793   1.80949   1.81567
 Alpha virt. eigenvalues --    1.81892   1.82671   1.82703   1.83329   1.83668
 Alpha virt. eigenvalues --    1.83784   1.84346   1.84871   1.85381   1.85924
 Alpha virt. eigenvalues --    1.86193   1.86750   1.86878   1.87068   1.87525
 Alpha virt. eigenvalues --    1.87813   1.88013   1.88581   1.88889   1.88992
 Alpha virt. eigenvalues --    1.89562   1.89620   1.90204   1.90427   1.90807
 Alpha virt. eigenvalues --    1.91293   1.91934   1.92273   1.92586   1.92947
 Alpha virt. eigenvalues --    1.93928   1.94357   1.94907   1.95141   1.95867
 Alpha virt. eigenvalues --    1.96529   1.96729   1.97119   1.97756   1.98026
 Alpha virt. eigenvalues --    1.98060   1.98477   1.98740   1.99179   1.99711
 Alpha virt. eigenvalues --    1.99796   2.00087   2.00559   2.01041   2.01310
 Alpha virt. eigenvalues --    2.01574   2.02021   2.02592   2.02898   2.03440
 Alpha virt. eigenvalues --    2.04065   2.04311   2.04629   2.05238   2.05493
 Alpha virt. eigenvalues --    2.06378   2.07187   2.07532   2.08076   2.08617
 Alpha virt. eigenvalues --    2.08718   2.09283   2.09572   2.10111   2.10524
 Alpha virt. eigenvalues --    2.11052   2.11164   2.11435   2.11829   2.11984
 Alpha virt. eigenvalues --    2.12458   2.12536   2.13387   2.13815   2.14510
 Alpha virt. eigenvalues --    2.14705   2.15249   2.15676   2.15888   2.16135
 Alpha virt. eigenvalues --    2.16481   2.16526   2.17031   2.17759   2.18172
 Alpha virt. eigenvalues --    2.18604   2.18781   2.19163   2.19615   2.20226
 Alpha virt. eigenvalues --    2.20722   2.21140   2.21300   2.21399   2.21707
 Alpha virt. eigenvalues --    2.22042   2.22569   2.23319   2.23570   2.23853
 Alpha virt. eigenvalues --    2.24411   2.25054   2.25249   2.25758   2.26039
 Alpha virt. eigenvalues --    2.26388   2.27196   2.27556   2.28170   2.28546
 Alpha virt. eigenvalues --    2.28710   2.29108   2.29343   2.29744   2.30563
 Alpha virt. eigenvalues --    2.31031   2.31338   2.31463   2.31913   2.32094
 Alpha virt. eigenvalues --    2.32653   2.32834   2.33366   2.33776   2.34398
 Alpha virt. eigenvalues --    2.35030   2.35095   2.35415   2.35631   2.36217
 Alpha virt. eigenvalues --    2.36567   2.36727   2.37357   2.37450   2.37844
 Alpha virt. eigenvalues --    2.38015   2.38168   2.38277   2.38860   2.39452
 Alpha virt. eigenvalues --    2.40023   2.40121   2.41176   2.41409   2.41954
 Alpha virt. eigenvalues --    2.42684   2.43146   2.43358   2.43706   2.43981
 Alpha virt. eigenvalues --    2.44889   2.45048   2.45424   2.45722   2.46012
 Alpha virt. eigenvalues --    2.46461   2.46551   2.46886   2.47613   2.47773
 Alpha virt. eigenvalues --    2.48243   2.48456   2.48717   2.48883   2.49574
 Alpha virt. eigenvalues --    2.49889   2.50101   2.50772   2.51374   2.51595
 Alpha virt. eigenvalues --    2.51789   2.52113   2.52291   2.52573   2.52894
 Alpha virt. eigenvalues --    2.53675   2.53850   2.54406   2.54890   2.55038
 Alpha virt. eigenvalues --    2.55650   2.55939   2.56178   2.56701   2.56764
 Alpha virt. eigenvalues --    2.57273   2.57717   2.57790   2.57942   2.58271
 Alpha virt. eigenvalues --    2.58443   2.58980   2.59845   2.59932   2.60120
 Alpha virt. eigenvalues --    2.60407   2.60748   2.60896   2.61271   2.61524
 Alpha virt. eigenvalues --    2.61995   2.62393   2.62859   2.63224   2.63578
 Alpha virt. eigenvalues --    2.64108   2.64267   2.64636   2.64713   2.65187
 Alpha virt. eigenvalues --    2.65336   2.65685   2.66150   2.66304   2.67093
 Alpha virt. eigenvalues --    2.67291   2.67721   2.68215   2.68563   2.68772
 Alpha virt. eigenvalues --    2.69304   2.69537   2.69769   2.70246   2.70723
 Alpha virt. eigenvalues --    2.70912   2.71496   2.71651   2.71832   2.72370
 Alpha virt. eigenvalues --    2.72580   2.72993   2.73251   2.73787   2.74065
 Alpha virt. eigenvalues --    2.74428   2.74734   2.75107   2.75516   2.76061
 Alpha virt. eigenvalues --    2.76363   2.76803   2.77238   2.77642   2.77955
 Alpha virt. eigenvalues --    2.78391   2.78795   2.79061   2.79227   2.79765
 Alpha virt. eigenvalues --    2.80397   2.80998   2.81060   2.81546   2.81812
 Alpha virt. eigenvalues --    2.82337   2.82572   2.83024   2.83214   2.83880
 Alpha virt. eigenvalues --    2.84049   2.84330   2.84833   2.85330   2.85708
 Alpha virt. eigenvalues --    2.85849   2.86248   2.86948   2.87316   2.87610
 Alpha virt. eigenvalues --    2.88253   2.88442   2.88676   2.88889   2.89463
 Alpha virt. eigenvalues --    2.89813   2.90493   2.91095   2.91178   2.91357
 Alpha virt. eigenvalues --    2.91430   2.92183   2.92368   2.93298   2.93514
 Alpha virt. eigenvalues --    2.93865   2.94096   2.94518   2.94647   2.95218
 Alpha virt. eigenvalues --    2.95256   2.95733   2.95956   2.96749   2.96772
 Alpha virt. eigenvalues --    2.97123   2.97290   2.97480   2.97954   2.98239
 Alpha virt. eigenvalues --    2.98644   2.98827   2.99149   2.99632   2.99885
 Alpha virt. eigenvalues --    3.00407   3.00519   3.00785   3.01157   3.01485
 Alpha virt. eigenvalues --    3.01954   3.02119   3.02509   3.02970   3.03044
 Alpha virt. eigenvalues --    3.03283   3.04107   3.04609   3.04956   3.05301
 Alpha virt. eigenvalues --    3.06112   3.06280   3.06875   3.07159   3.07518
 Alpha virt. eigenvalues --    3.07981   3.08008   3.08156   3.08950   3.09094
 Alpha virt. eigenvalues --    3.09314   3.09468   3.10006   3.10375   3.10428
 Alpha virt. eigenvalues --    3.10964   3.11375   3.11845   3.12022   3.12309
 Alpha virt. eigenvalues --    3.12577   3.12887   3.13282   3.13463   3.13821
 Alpha virt. eigenvalues --    3.14005   3.14316   3.14575   3.14902   3.15153
 Alpha virt. eigenvalues --    3.15966   3.16179   3.16466   3.17210   3.17355
 Alpha virt. eigenvalues --    3.17575   3.17740   3.17933   3.18158   3.18268
 Alpha virt. eigenvalues --    3.18604   3.18809   3.19026   3.19215   3.19523
 Alpha virt. eigenvalues --    3.19871   3.20149   3.20387   3.20994   3.21419
 Alpha virt. eigenvalues --    3.22087   3.22191   3.22302   3.22543   3.22959
 Alpha virt. eigenvalues --    3.23355   3.23672   3.23886   3.24228   3.24482
 Alpha virt. eigenvalues --    3.24736   3.25065   3.25097   3.25593   3.25924
 Alpha virt. eigenvalues --    3.26235   3.26392   3.26669   3.26805   3.26909
 Alpha virt. eigenvalues --    3.27365   3.27482   3.28067   3.28210   3.28276
 Alpha virt. eigenvalues --    3.28570   3.28919   3.29380   3.29527   3.29786
 Alpha virt. eigenvalues --    3.30069   3.30080   3.30528   3.30594   3.31044
 Alpha virt. eigenvalues --    3.31131   3.31219   3.31308   3.31872   3.32019
 Alpha virt. eigenvalues --    3.32205   3.32669   3.33013   3.33488   3.33728
 Alpha virt. eigenvalues --    3.33945   3.34094   3.34632   3.35027   3.35204
 Alpha virt. eigenvalues --    3.35504   3.35595   3.35757   3.36163   3.36585
 Alpha virt. eigenvalues --    3.36636   3.37118   3.37241   3.37256   3.37509
 Alpha virt. eigenvalues --    3.37710   3.38261   3.38632   3.38791   3.39069
 Alpha virt. eigenvalues --    3.39275   3.39439   3.39716   3.40027   3.40161
 Alpha virt. eigenvalues --    3.40539   3.40878   3.41104   3.41655   3.42006
 Alpha virt. eigenvalues --    3.42270   3.42744   3.42880   3.43428   3.44030
 Alpha virt. eigenvalues --    3.44076   3.44339   3.44548   3.44991   3.45113
 Alpha virt. eigenvalues --    3.45243   3.45801   3.46151   3.46845   3.46936
 Alpha virt. eigenvalues --    3.47472   3.47610   3.48550   3.48815   3.48877
 Alpha virt. eigenvalues --    3.49117   3.49863   3.50235   3.50627   3.51226
 Alpha virt. eigenvalues --    3.51474   3.51802   3.51887   3.52637   3.53284
 Alpha virt. eigenvalues --    3.53789   3.54111   3.54877   3.55014   3.55205
 Alpha virt. eigenvalues --    3.55742   3.56411   3.56607   3.57079   3.57121
 Alpha virt. eigenvalues --    3.57475   3.58436   3.58704   3.58887   3.59127
 Alpha virt. eigenvalues --    3.59612   3.59731   3.59925   3.60099   3.60428
 Alpha virt. eigenvalues --    3.61163   3.61405   3.61862   3.62331   3.62922
 Alpha virt. eigenvalues --    3.63418   3.63968   3.64135   3.64576   3.64847
 Alpha virt. eigenvalues --    3.65486   3.66314   3.66606   3.67154   3.67616
 Alpha virt. eigenvalues --    3.68085   3.68611   3.68679   3.69216   3.69473
 Alpha virt. eigenvalues --    3.69559   3.69719   3.70188   3.70595   3.71552
 Alpha virt. eigenvalues --    3.71636   3.71793   3.72025   3.72632   3.72779
 Alpha virt. eigenvalues --    3.73363   3.73560   3.74190   3.74465   3.74732
 Alpha virt. eigenvalues --    3.75049   3.75325   3.75624   3.76162   3.76426
 Alpha virt. eigenvalues --    3.76552   3.77121   3.78023   3.78193   3.78586
 Alpha virt. eigenvalues --    3.79097   3.79684   3.80546   3.81180   3.81507
 Alpha virt. eigenvalues --    3.81874   3.82516   3.82674   3.83104   3.83268
 Alpha virt. eigenvalues --    3.84411   3.85435   3.85518   3.85809   3.86277
 Alpha virt. eigenvalues --    3.87268   3.87833   3.88076   3.88694   3.89642
 Alpha virt. eigenvalues --    3.90250   3.90587   3.91194   3.91888   3.91929
 Alpha virt. eigenvalues --    3.92404   3.92462   3.93152   3.93570   3.94394
 Alpha virt. eigenvalues --    3.94931   3.95444   3.96144   3.97434   3.98235
 Alpha virt. eigenvalues --    3.98649   3.98900   3.99896   4.00078   4.00422
 Alpha virt. eigenvalues --    4.00935   4.01547   4.01803   4.02071   4.02402
 Alpha virt. eigenvalues --    4.02894   4.03491   4.04018   4.04584   4.05463
 Alpha virt. eigenvalues --    4.05556   4.05658   4.06186   4.07116   4.07498
 Alpha virt. eigenvalues --    4.08276   4.08722   4.10289   4.11024   4.11243
 Alpha virt. eigenvalues --    4.12500   4.12915   4.13778   4.14507   4.15769
 Alpha virt. eigenvalues --    4.16700   4.16767   4.16923   4.17137   4.17748
 Alpha virt. eigenvalues --    4.18213   4.19035   4.19260   4.19893   4.20275
 Alpha virt. eigenvalues --    4.20370   4.20734   4.21531   4.22218   4.22663
 Alpha virt. eigenvalues --    4.23514   4.23982   4.24295   4.24395   4.25078
 Alpha virt. eigenvalues --    4.26244   4.26718   4.27349   4.27703   4.28360
 Alpha virt. eigenvalues --    4.29055   4.29829   4.30075   4.30367   4.31141
 Alpha virt. eigenvalues --    4.31600   4.32216   4.33203   4.33536   4.34164
 Alpha virt. eigenvalues --    4.34519   4.35162   4.35599   4.35875   4.36559
 Alpha virt. eigenvalues --    4.36974   4.37380   4.37702   4.37929   4.39196
 Alpha virt. eigenvalues --    4.39415   4.40520   4.40719   4.41142   4.41220
 Alpha virt. eigenvalues --    4.41565   4.41919   4.42080   4.42907   4.43074
 Alpha virt. eigenvalues --    4.43745   4.44446   4.44991   4.45344   4.45611
 Alpha virt. eigenvalues --    4.45829   4.46594   4.46928   4.47450   4.47642
 Alpha virt. eigenvalues --    4.47868   4.48495   4.49284   4.50154   4.51127
 Alpha virt. eigenvalues --    4.51737   4.52016   4.53028   4.54078   4.54527
 Alpha virt. eigenvalues --    4.54863   4.55268   4.56332   4.56392   4.56709
 Alpha virt. eigenvalues --    4.57689   4.58273   4.59444   4.60019   4.60491
 Alpha virt. eigenvalues --    4.61513   4.62612   4.64684   4.65732   4.66493
 Alpha virt. eigenvalues --    4.66859   4.68639   4.69176   4.70203   4.70963
 Alpha virt. eigenvalues --    4.71080   4.71520   4.71887   4.72474   4.73434
 Alpha virt. eigenvalues --    4.73894   4.74290   4.74454   4.74885   4.75914
 Alpha virt. eigenvalues --    4.76807   4.77005   4.78456   4.80306   4.81866
 Alpha virt. eigenvalues --    4.82492   4.83818   4.84306   4.84513   4.85077
 Alpha virt. eigenvalues --    4.85876   4.86412   4.86667   4.87646   4.87842
 Alpha virt. eigenvalues --    4.88147   4.88475   4.89210   4.90265   4.90924
 Alpha virt. eigenvalues --    4.92414   4.93391   4.94522   4.95637   4.95992
 Alpha virt. eigenvalues --    4.96353   4.97128   4.98304   4.98872   4.99656
 Alpha virt. eigenvalues --    5.00012   5.00682   5.02033   5.02828   5.03409
 Alpha virt. eigenvalues --    5.04957   5.06109   5.06367   5.07279   5.07776
 Alpha virt. eigenvalues --    5.09286   5.09549   5.09777   5.11823   5.12544
 Alpha virt. eigenvalues --    5.13435   5.14940   5.15833   5.16528   5.20005
 Alpha virt. eigenvalues --    5.21240   5.21944   5.22503   5.23015   5.23421
 Alpha virt. eigenvalues --    5.24910   5.25112   5.26982   5.28464   5.29363
 Alpha virt. eigenvalues --    5.31109   5.31610   5.32261   5.33921   5.36898
 Alpha virt. eigenvalues --    5.36953   5.39351   5.39820   5.40446   5.40525
 Alpha virt. eigenvalues --    5.40986   5.41411   5.42605   5.43552   5.44941
 Alpha virt. eigenvalues --    5.47771   5.48936   5.50326   5.50914   5.51815
 Alpha virt. eigenvalues --    5.52951   5.54151   5.54973   5.58332   5.62074
 Alpha virt. eigenvalues --    5.62357   5.63262   5.64799   5.65276   5.66220
 Alpha virt. eigenvalues --    5.67563   5.68525   5.69008   5.69874   5.70793
 Alpha virt. eigenvalues --    5.74288   5.75862   5.79252   5.79731   5.83709
 Alpha virt. eigenvalues --    5.88638   5.89608   5.95467   5.96082   5.99181
 Alpha virt. eigenvalues --    6.01961   6.03484   6.03759   6.03886   6.05473
 Alpha virt. eigenvalues --    6.10442   6.15161   6.16505   6.17377   6.17790
 Alpha virt. eigenvalues --    6.20071   6.23703   6.29655   6.35869   6.37168
 Alpha virt. eigenvalues --    6.43027   9.29642   9.45892   9.57820  20.01783
 Alpha virt. eigenvalues --   22.36361  22.37187  22.42426  22.44306  22.46187
 Alpha virt. eigenvalues --   22.47141  22.48407  22.53422  22.53568  22.54487
 Alpha virt. eigenvalues --   22.63058  22.63381  22.82673  22.87686  22.88415
 Alpha virt. eigenvalues --   22.94970  22.97692  22.97900  22.99548  23.01555
 Alpha virt. eigenvalues --   23.05937  23.06635  23.12639  23.17029  23.29723
 Alpha virt. eigenvalues --   23.29820  23.32591  23.34034  23.42908  23.44570
 Alpha virt. eigenvalues --   23.52341  23.52650  23.57022  23.75503  23.80930
 Alpha virt. eigenvalues --   23.81420  23.91794  32.42555  32.84978  32.97572
 Alpha virt. eigenvalues --   33.04513  33.09372  33.14837
          Condensed to atoms (all electrons):
 Mulliken charges:
               1
     1  Fe  -0.469702
     2  N    0.031136
     3  N    0.060744
     4  N    0.020461
     5  N   -0.018304
     6  C    0.228232
     7  C   -0.042279
     8  C   -0.047305
     9  C    0.222023
    10  C    0.121746
    11  C    0.026040
    12  C   -0.053646
    13  C    0.258257
    14  C    0.225776
    15  C    0.070238
    16  C   -0.057690
    17  C    0.229276
    18  C    0.245679
    19  C    0.070370
    20  C   -0.044369
    21  C    0.268931
    22  C   -0.478464
    23  H    0.131937
    24  C   -0.479483
    25  H    0.136819
    26  C   -0.512918
    27  H    0.114322
    28  C   -0.573160
    29  H    0.106771
    30  C   -0.415842
    31  H    0.132516
    32  H    0.137897
    33  H    0.119193
    34  C   -0.414959
    35  H    0.137902
    36  H    0.129415
    37  H    0.119940
    38  C   -0.450262
    39  H    0.142218
    40  H    0.128074
    41  H    0.156019
    42  C   -0.207605
    43  H    0.105704
    44  C   -0.288523
    45  H    0.138842
    46  H    0.121668
    47  C   -0.452946
    48  H    0.141257
    49  H    0.126837
    50  H    0.156968
    51  C   -0.216373
    52  H    0.109754
    53  C   -0.286661
    54  H    0.138796
    55  H    0.121496
    56  C   -0.421343
    57  H    0.119041
    58  H    0.138507
    59  H    0.133625
    60  C   -0.410366
    61  H    0.136395
    62  H    0.120634
    63  H    0.131578
    64  C   -0.395098
    65  H    0.135280
    66  H    0.146219
    67  H    0.133668
    68  N   -0.231140
    69  H    0.233735
    70  C    0.171489
    71  C    0.005698
    72  H    0.181167
    73  N    0.078832
    74  C   -0.219654
    75  H    0.160339
    76  C   -0.354651
    77  H    0.148554
    78  H    0.115087
    79  H    0.111170
    80  C   -0.159801
    81  H    0.146542
    82  H    0.116346
    83  S    0.020550
    84  C   -0.366420
    85  H    0.146375
    86  H    0.149179
    87  H    0.155700
 Sum of Mulliken charges =  -0.00000
 Mulliken charges with hydrogens summed into heavy atoms:
               1
     1  Fe  -0.469702
     2  N    0.031136
     3  N    0.060744
     4  N    0.020461
     5  N   -0.018304
     6  C    0.228232
     7  C   -0.042279
     8  C   -0.047305
     9  C    0.222023
    10  C    0.121746
    11  C    0.026040
    12  C   -0.053646
    13  C    0.258257
    14  C    0.225776
    15  C    0.070238
    16  C   -0.057690
    17  C    0.229276
    18  C    0.245679
    19  C    0.070370
    20  C   -0.044369
    21  C    0.268931
    22  C   -0.346527
    24  C   -0.342664
    26  C   -0.398596
    28  C   -0.466389
    30  C   -0.026235
    34  C   -0.027702
    38  C   -0.023951
    42  C   -0.101901
    44  C   -0.028014
    47  C   -0.027884
    51  C   -0.106619
    53  C   -0.026369
    56  C   -0.030170
    60  C   -0.021759
    64  C    0.020069
    68  N    0.002595
    70  C    0.171489
    71  C    0.186864
    73  N    0.078832
    74  C   -0.059315
    76  C    0.020160
    80  C    0.103087
    83  S    0.020550
    84  C    0.084834
 Electronic spatial extent (au):  <R**2>=          21681.0507
 Charge=             -0.0000 electrons
 Dipole moment (field-independent basis, Debye):
    X=             -1.1435    Y=             -0.9319    Z=              3.8860  Tot=              4.1566
 Quadrupole moment (field-independent basis, Debye-Ang):
   XX=           -268.0229   YY=           -269.8788   ZZ=           -251.7687
   XY=              2.3943   XZ=             -4.2275   YZ=             -6.3301
 Traceless Quadrupole moment (field-independent basis, Debye-Ang):
   XX=             -4.7994   YY=             -6.6553   ZZ=             11.4547
   XY=              2.3943   XZ=             -4.2275   YZ=             -6.3301
 Octapole moment (field-independent basis, Debye-Ang**2):
  XXX=            -45.6378  YYY=            -49.9115  ZZZ=            128.0080  XYY=              2.3045
  XXY=             -6.3824  XXZ=              2.5550  XZZ=            -14.1195  YZZ=            -16.5591
  YYZ=              2.5102  XYZ=             12.1054
 Hexadecapole moment (field-independent basis, Debye-Ang**3):
 XXXX=         -12516.0397 YYYY=         -11932.8694 ZZZZ=          -4341.4296 XXXY=             12.7480
 XXXZ=            -79.1445 YYYX=             -2.4560 YYYZ=            -44.8828 ZZZX=            -32.3935
 ZZZY=           -151.7527 XXYY=          -4000.0836 XXZZ=          -3006.1716 YYZZ=          -2941.5760
 XXYZ=             47.1930 YYXZ=            -45.5195 ZZXY=             28.2565
 N-N= 7.147580033313D+03 E-N=-2.235133146575D+04  KE= 3.413631381102D+03
  Exact polarizability:     735.000       0.038     720.581     -20.695      -2.413     379.711
 Approx polarizability:    1391.308      13.217    1371.119     -60.471      -3.431     590.151

 ----------------------------------------------------------------------

 Electric dipole moment (input orientation):
 (Debye = 10**-18 statcoulomb cm , SI units = C m)
                  (au)            (Debye)         (10**-30 SI)
   Tot        0.163531D+01      0.415655D+01      0.138648D+02
   x          0.152437D+01      0.387456D+01      0.129241D+02
   y         -0.115236D-01     -0.292901D-01     -0.977012D-01
   z          0.591960D+00      0.150461D+01      0.501885D+01

 Dipole polarizability, Alpha (input orientation).
 (esu units = cm**3 , SI units = C**2 m**2 J**-1)
 Alpha(0;0):
               (au)            (10**-24 esu)      (10**-40 SI)
   iso        0.611764D+03      0.906541D+02      0.100866D+03
   aniso      0.350168D+03      0.518896D+02      0.577349D+02
   xx         0.541227D+03      0.802016D+02      0.892363D+02
   yx         0.640112D+02      0.948548D+01      0.105540D+02
   yy         0.698679D+03      0.103534D+03      0.115197D+03
   zx        -0.165695D+03     -0.245534D+02     -0.273194D+02
   zy         0.540500D+02      0.800938D+01      0.891164D+01
   zz         0.595386D+03      0.882270D+02      0.981658D+02

 First dipole hyperpolarizability, Beta (input orientation).
 ||, _|_  parallel and perpendicular components, (z) with respect to z axis,
 vector components x,y,z.  Values do not include the 1/n! factor of 1/2.
 (esu units = statvolt**-1 cm**4 , SI units = C**3 m**3 J**-2)
 Beta(0;0,0):
               (au)            (10**-30 esu)      (10**-50 SI)
   || (z)     0.542449D+03      0.468634D+01      0.173929D+01
   _|_(z)     0.180816D+03      0.156211D+01      0.579763D+00
   x         -0.262756D+04     -0.227001D+02     -0.842490D+01
   y         -0.392058D+04     -0.338708D+02     -0.125708D+02
   z          0.271224D+04      0.234317D+02      0.869644D+01
   ||         0.108869D+04      0.940546D+01      0.349074D+01
   xxx       -0.386298D+03     -0.333731D+01     -0.123861D+01
   xxy        0.246947D+02      0.213343D+00      0.791801D-01
   yxy       -0.370475D+02     -0.320062D+00     -0.118788D+00
   yyy       -0.130187D+04     -0.112471D+02     -0.417425D+01
   xxz        0.637916D+03      0.551109D+01      0.204539D+01
   yxz       -0.136525D+03     -0.117947D+01     -0.437749D+00
   yyz       -0.356426D+03     -0.307924D+01     -0.114283D+01
   zxz       -0.452508D+03     -0.390932D+01     -0.145090D+01
   zyz       -0.296893D+02     -0.256492D+00     -0.951946D-01
   zzz        0.622592D+03      0.537871D+01      0.199625D+01

 ----------------------------------------------------------------------

 Dipole orientation:
    26          4.47851534         45.51634150         20.58120091
     7          4.36137302         49.15208674         21.55442405
     7          7.98573858         45.19145457         21.73071507
     7          4.33139348         41.82732980         19.65598418
     7          0.79331059         45.79921562         19.43170098
     6          2.39370221         50.78716043         21.43332723
     6          3.15315168         53.28078045         22.26203005
     6          5.65023618         53.11428181         22.83850380
     6          6.36802871         50.51108791         22.40418810
     6          9.49419909         47.08239351         22.58793072
     6         11.93721458         46.09409961         23.31713608
     6         11.86254748         43.56471245         22.85801277
     6          9.36633462         43.03563531         21.87878022
     6          6.18764133         40.12005833         20.14498309
     6          5.41959058         37.60965049         19.36368062
     6          3.01878629         37.85632973         18.42674931
     6          2.38860990         40.49630580         18.63112243
     6         -0.65402462         43.97534124         18.34943694
     6         -3.15645027         44.93022925         17.76929215
     6         -3.18465023         47.38289093         18.59294516
     6         -0.70433572         47.88211081         19.59433895
     6          0.01411234         50.20893603         20.54842021
     1         -1.38139745         51.69560754         20.55066964
     6          8.76827752         49.57905323         22.86123546
     1         10.17034723         50.89516033         23.54014047
     6          8.54550107         40.67021696         21.13523379
     1          9.85023077         39.11876215         21.36247161
     6          0.06685597         41.49689325         17.95894886
     1         -1.27991236         40.24208454         17.08110817
     6          1.43774458         55.51190583         22.35764295
     1         -0.18598563         55.13522916         23.56946288
     1          0.73528363         55.95941595         20.47293613
     1          2.42065145         57.16211490         23.08798795
     6          7.41040988         55.12012672         23.73914048
     1          8.98803200         55.32711589         22.42996963
     1          8.17565890         54.64639544         25.59367480
     1          6.44480258         56.92823904         23.88134321
     6         -5.33567426         49.19399001         18.61214547
     1         -5.19648846         50.53358615         17.05074334
     1         -5.36014927         50.26496163         20.36896383
     1         -7.11148757         48.17342925         18.43595864
     6         -5.16528046         43.46774399         16.63277460
     1         -5.18582712         41.47572802         17.10891709
     6         -6.93078428         44.36087217         15.08647215
     1         -6.96064028         46.30080531         14.47795093
     1         -8.39071153         43.16061510         14.33026808
     6          1.29086419         35.84126206         17.49379738
     1          1.27317788         35.78499876         15.43181150
     1         -0.63752906         36.17100971         18.13425476
     1          1.90931981         34.00602881         18.18581254
     6          6.95077528         35.35947179         19.61310331
     1          8.18116691         35.29825336         21.25049796
     6          6.97194507         33.43123468         18.00423158
     1          5.86182661         33.42947634         16.30034950
     1          8.14652896         31.79642369         18.31282991
     6         13.85850948         41.61839256         23.25770212
     1         15.56201160         42.46267620         24.03765325
     1         14.34726131         40.70172483         21.47831005
     1         13.19736252         40.16678511         24.56152060
     6         14.04651885         47.66243841         24.32839071
     1         14.57002162         49.13237898         22.98280515
     1         15.70409862         46.50681354         24.70102106
     1         13.48818132         48.57930625         26.08721212
     6         -0.60766889         41.49010221         28.89267870
     1          0.44170740         40.22517342         30.13543780
     1         -1.88462287         40.36935755         27.74305195
     1         -1.72093761         42.76632955         30.06536265
     7          2.92286998         44.55687762         28.15626750
     1          3.22494282         44.94678168         29.99383901
     6          1.13634543         42.92705195         27.22932078
     6          4.18477779         45.53682947         26.16277832
     1          5.69129002         46.87728765         26.32105898
     7          3.30737023         44.62602144         24.03382191
     6          1.41130267         43.00033874         24.66534630
     1          0.37714025         42.00126526         23.24456546
     6         11.05946132         45.96295139         16.00458624
     1         11.26784010         46.38513634         18.00147583
     1         11.19577827         47.72139039         14.94981699
     1         12.59522965         44.72191415         15.42994889
     6          8.53729697         44.69564227         15.50906974
     1          8.36198509         42.94038295         16.56794410
     1          8.29360860         44.32631996         13.49788079
    16          5.92869924         46.78876781         16.46321390
     6          3.59145450         45.71213549         14.18394429
     1          3.24021898         43.70781380         14.43957881
     1          4.27362348         46.10970672         12.28771149
     1          1.87286275         46.76792710         14.54609100

 Electric dipole moment (dipole orientation):
 (Debye = 10**-18 statcoulomb cm , SI units = C m)
                  (au)            (Debye)         (10**-30 SI)
   Tot        0.163531D+01      0.415655D+01      0.138648D+02
   x          0.000000D+00      0.000000D+00      0.000000D+00
   y          0.000000D+00      0.000000D+00      0.000000D+00
   z          0.163531D+01      0.415655D+01      0.138648D+02

 Dipole polarizability, Alpha (dipole orientation).
 (esu units = cm**3 , SI units = C**2 m**2 J**-1)
 Alpha(0;0):
               (au)            (10**-24 esu)      (10**-40 SI)
   iso        0.611764D+03      0.906541D+02      0.100866D+03
   aniso      0.350168D+03      0.518896D+02      0.577349D+02
   xx         0.699859D+03      0.103708D+03      0.115391D+03
   yx        -0.264795D+02     -0.392385D+01     -0.436588D+01
   yy         0.700038D+03      0.103735D+03      0.115421D+03
   zx         0.104555D+03      0.154935D+02      0.172388D+02
   zy         0.768770D+02      0.113920D+02      0.126753D+02
   zz         0.435395D+03      0.645189D+02      0.717869D+02

 First dipole hyperpolarizability, Beta (dipole orientation).
 ||, _|_  parallel and perpendicular components, (z) with respect to z axis,
 vector components x,y,z.  Values do not include the 1/n! factor of 1/2.
 (esu units = statvolt**-1 cm**4 , SI units = C**3 m**3 J**-2)
 Beta(0;0,0):
               (au)            (10**-30 esu)      (10**-50 SI)
   || (z)    -0.287975D+03     -0.248788D+01     -0.923352D+00
   _|_(z)    -0.959917D+02     -0.829293D+00     -0.307784D+00
   x         -0.349838D+04     -0.302233D+02     -0.112171D+02
   y         -0.391400D+04     -0.338139D+02     -0.125497D+02
   z         -0.143988D+04     -0.124394D+02     -0.461676D+01
   ||         0.108869D+04      0.940546D+01      0.349074D+01
   xxx       -0.118241D+04     -0.102151D+02     -0.379124D+01
   xxy        0.749668D+02      0.647654D+00      0.240371D+00
   yxy        0.313503D+03      0.270842D+01      0.100520D+01
   yyy       -0.130982D+04     -0.113159D+02     -0.419977D+01
   xxz       -0.477767D+03     -0.412753D+01     -0.153189D+01
   yxz        0.116312D+03      0.100485D+01      0.372939D+00
   yyz       -0.156515D+03     -0.135217D+01     -0.501844D+00
   zxz       -0.297219D+03     -0.256774D+01     -0.952992D+00
   zyz       -0.698087D+02     -0.603093D+00     -0.223832D+00
   zzz        0.154323D+03      0.133323D+01      0.494816D+00

 ----------------------------------------------------------------------
 Unable to Open any file for archive entry.
 1\1\GINC-BGN1030\SP\RAPFD\def2TZVP\C37H42Fe1N6S1\BEBJONES\18-Mar-2024\
 0\\# polar def2tzvp apfd int=(grid=ultrafine)\\1c75_II_S\\0,1\Fe,0,11.
 1263480038,24.0200156557,1.9030094131\N,0,11.5932533507,25.9399709521,
 2.1607759636\N,0,12.3644395439,23.8527636006,0.391962962\N,0,10.632360
 9934,22.0710205332,1.7845953144\N,0,9.8540596359,24.1645820137,3.50169
 59687\C,0,11.1607375852,26.8006129288,3.1142816339\C,0,11.7213718045,2
 8.1189797259,2.9077038174\C,0,12.4836840715,28.035098915,1.7857568255\
 C,0,12.4003131201,26.6610497129,1.338784413\C,0,13.0810913592,24.85402
 21883,-0.1808697942\C,0,13.9062869416,24.334574391,-1.2499538294\C,0,1
 3.6590527042,22.9976506438,-1.3105015475\C,0,12.696460872,22.714966118
 1,-0.2687286283\C,0,11.2248241071,21.1705182649,0.956256088\C,0,10.685
 8807259,19.8430693601,1.1760938687\C,0,9.7644127317,19.9709682202,2.18
 17997789\C,0,9.7512373297,21.3655620595,2.5416438179\C,0,9.0382779787,
 23.1998063623,4.0015180731\C,0,8.2751437287,23.700869708,5.1283364028\
 C,0,8.6822893289,24.9955717065,5.3091672641\C,0,9.6526908611,25.262333
 8117,4.2793703787\C,0,10.2668907946,26.4918676433,4.1164124392\H,0,10.
 0044512205,27.2749817155,4.8107588522\C,0,13.0832102338,26.1722776494,
 0.2388728109\H,0,13.6900568942,26.869752808,-0.3177796606\C,0,12.16639
 98748,21.4639640436,-0.0150813432\H,0,12.5244836087,20.6454819464,-0.6
 209303189\C,0,8.9774361041,21.8916118957,3.5618829553\H,0,8.2832099576
 ,21.2274562248,4.0533780912\C,0,11.4456021659,29.2948628809,3.78050822
 27\H,0,11.7313383112,29.0868786095,4.8121808774\H,0,10.3824900003,29.5
 369016351,3.7676598273\H,0,11.9983749262,30.167869162,3.4417182329\C,0
 ,13.270269407,29.0976414055,1.0975059249\H,0,12.9272461828,29.21607953
 64,0.0692965117\H,0,14.3304598341,28.8420002735,1.0735049966\H,0,13.16
 00439604,30.0514237169,1.6077990258\C,0,8.2843023392,25.9483678064,6.3
 80647685\H,0,7.5441830372,26.6634033482,6.0178920578\H,0,9.1489435362,
 26.5084673337,6.7332410354\H,0,7.8545893295,25.4044548607,7.2190590914
 \C,0,7.3259545956,22.9260952636,5.8960857222\H,0,7.5518042408,21.87017
 62846,5.990000059\C,0,6.227255188,23.3999614051,6.4740957173\H,0,5.926
 3175024,24.4286853491,6.3794918327\H,0,5.5714904112,22.7639297927,7.04
 4912945\C,0,8.9680420897,18.9037482494,2.8479172054\H,0,7.9473816819,1
 8.8816200216,2.461448581\H,0,8.915376074,19.0709270494,3.9230599442\H,
[...]
                                                    1384(v),171(r),1652(v)
                                                    1562(r),1561(r),1563(r)
                                                    181(r),185(r),180(r),188(r)
   158. CR (   1) C  74                  1.99896   -10.05640  1301(v),1646(v),1650(g)
                                                    1359(v),1304(v),1411(v)
                                                    170(r),172(r),1563(r)
   175. LP (   1) N  68                  1.57970    -0.28236  1654(v),1651(v),1330(v)
                                                    1302(v),1296(v),1328(v)
                                                    182(r)
   176. LP (   1) N  73                  1.60786    -0.35431  170(r),172(r),1649(v)
                                                    1650(v),171(r),1652(v)
                                                    1327(v),1656(v),1653(g)
                                                    1361(g),1562(r),1384(v)
                                                    1655(g),1563(r),1561(r)
                                                    183(r),1567(r),1568(r)
                                                    1564(r),1566(r),1571(r)
                                                    234(r),286(r),205(r),208(r)
                                                    1572(r),192(r),260(r)
                                                    1569(r),1574(r),257(r)
                                                    190(r),284(r),231(r),202(r)
                                                    199(r),195(r),787(r),9(r)
                                                    285(r),233(r),1498(r),189(r)
  1229. RY*(   1) C  64                  0.00116     1.16298   
  1230. RY*(   2) C  64                  0.00079     2.00934   
  1231. RY*(   3) C  64                  0.00051     1.33446   
  1232. RY*(   4) C  64                  0.00012     1.27209   
  1233. RY*(   5) C  64                  0.00008     2.15604   
  1234. RY*(   6) C  64                  0.00007     1.39809   
  1235. RY*(   7) C  64                  0.00001     1.96042   
  1236. RY*(   8) C  64                  0.00001     1.87841   
  1237. RY*(   9) C  64                  0.00001     1.41422   
  1238. RY*(  10) C  64                  0.00000     3.23837   
  1239. RY*(  11) C  64                  0.00000     2.56384   
  1240. RY*(  12) C  64                  0.00001     1.45587   
  1241. RY*(  13) C  64                  0.00000     2.43721   
  1242. RY*(  14) C  64                  0.00001     2.82347   
  1243. RY*(  15) C  64                  0.00000     2.46086   
  1244. RY*(  16) C  64                  0.00000     2.41026   
  1245. RY*(  17) C  64                  0.00001     2.58367   
  1246. RY*(  18) C  64                  0.00000    21.59590   
  1247. RY*(  19) C  64                  0.00000     2.71897   
  1248. RY*(  20) C  64                  0.00000     3.68835   
  1249. RY*(  21) C  64                  0.00001     3.42798   
  1250. RY*(  22) C  64                  0.00001     3.36213   
  1251. RY*(  23) C  64                  0.00000     3.35507   
  1252. RY*(  24) C  64                  0.00000     3.73509   
  1253. RY*(  25) C  64                  0.00000     3.28146   
  1254. RY*(  26) C  64                  0.00000     3.34766   
  1255. RY*(   1) H  65                  0.00075     1.00652   
  1256. RY*(   2) H  65                  0.00015     1.68937   
  1257. RY*(   3) H  65                  0.00008     1.96226   
  1258. RY*(   4) H  65                  0.00006     2.01545   
  1259. RY*(   5) H  65                  0.00000     2.88392   
  1260. RY*(   1) H  66                  0.00024     1.39100   
  1261. RY*(   2) H  66                  0.00012     1.73848   
  1262. RY*(   3) H  66                  0.00008     2.05844   
  1263. RY*(   4) H  66                  0.00002     1.60486   
  1264. RY*(   5) H  66                  0.00001     2.86615   
  1265. RY*(   1) H  67                  0.00073     0.99706   
  1266. RY*(   2) H  67                  0.00015     1.69197   
  1267. RY*(   3) H  67                  0.00008     1.97503   
  1268. RY*(   4) H  67                  0.00006     2.01130   
  1269. RY*(   5) H  67                  0.00000     2.88318   
  1270. RY*(   1) N  68                  0.00279     0.67772   
  1271. RY*(   2) N  68                  0.00219     1.78428   
  1272. RY*(   3) N  68                  0.00098     2.08517   
  1273. RY*(   4) N  68                  0.00079     2.13894   
  1274. RY*(   5) N  68                  0.00051     1.23790   
  1275. RY*(   6) N  68                  0.00026     2.25836   
  1276. RY*(   7) N  68                  0.00020     1.79399   
  1277. RY*(   8) N  68                  0.00007     2.42743   
  1278. RY*(   9) N  68                  0.00007     2.17898   
  1279. RY*(  10) N  68                  0.00006     3.71188   
  1280. RY*(  11) N  68                  0.00004     3.08605   
  1281. RY*(  12) N  68                  0.00000     2.30698   
  1282. RY*(  13) N  68                  0.00001     3.77725   
  1283. RY*(  14) N  68                  0.00001     3.45894   
  1284. RY*(  15) N  68                  0.00001     3.84003   
  1285. RY*(  16) N  68                  0.00001     2.32908   
  1286. RY*(  17) N  68                  0.00000     4.09657   
  1287. RY*(  18) N  68                  0.00000    30.74047   
  1288. RY*(  19) N  68                  0.00000     4.53952   
  1289. RY*(  20) N  68                  0.00000     4.67862   
  1290. RY*(  21) N  68                  0.00000     4.63416   
  1291. RY*(  22) N  68                  0.00000     4.52382   
  1292. RY*(  23) N  68                  0.00000     4.29265   
  1293. RY*(  24) N  68                  0.00000     4.56332   
  1294. RY*(  25) N  68                  0.00000     4.41635   
  1295. RY*(  26) N  68                  0.00000     4.42980   
  1296. RY*(   1) H  69                  0.00058     2.15410   
  1297. RY*(   2) H  69                  0.00040     2.13877   
  1298. RY*(   3) H  69                  0.00031     1.00690   
  1299. RY*(   4) H  69                  0.00021     2.56622   
  1300. RY*(   5) H  69                  0.00001     3.09199   
  1301. RY*(   1) C  70                  0.00399     1.69495   
  1302. RY*(   2) C  70                  0.00261     0.99393   
  1303. RY*(   3) C  70                  0.00191     1.52357   
  1304. RY*(   4) C  70                  0.00162     2.06121   
  1305. RY*(   5) C  70                  0.00123     1.77970   
  1306. RY*(   6) C  70                  0.00113     1.75335   
  1307. RY*(   7) C  70                  0.00037     2.85503   
  1308. RY*(   8) C  70                  0.00019     2.73873   
  1309. RY*(   9) C  70                  0.00017     2.56467   
  1310. RY*(  10) C  70                  0.00007     3.58184   
  1311. RY*(  11) C  70                  0.00003     2.58287   
  1312. RY*(  12) C  70                  0.00001     1.86477   
  1313. RY*(  13) C  70                  0.00001     2.73510   
  1314. RY*(  14) C  70                  0.00001     1.78918   
  1315. RY*(  15) C  70                  0.00001     1.63910   
  1316. RY*(  16) C  70                  0.00001     1.11104   
  1317. RY*(  17) C  70                  0.00001     1.96976   
  1318. RY*(  18) C  70                  0.00000    21.20375   
  1319. RY*(  19) C  70                  0.00000     3.53439   
  1320. RY*(  20) C  70                  0.00000     4.08693   
  1321. RY*(  21) C  70                  0.00000     3.62899   
  1322. RY*(  22) C  70                  0.00000     3.56269   
  1323. RY*(  23) C  70                  0.00000     3.37446   
  1324. RY*(  24) C  70                  0.00000     3.79856   
  1325. RY*(  25) C  70                  0.00000     3.51860   
  1326. RY*(  26) C  70                  0.00000     3.53878   
  1327. RY*(   1) C  71                  0.00408     1.58080   
  1328. RY*(   2) C  71                  0.00345     0.64493   
  1329. RY*(   3) C  71                  0.00204     1.31817   
  1330. RY*(   4) C  71                  0.00127     2.60590   
  1331. RY*(   5) C  71                  0.00113     1.20031   
  1332. RY*(   6) C  71                  0.00043     1.72954   
  1333. RY*(   7) C  71                  0.00026     1.74821   
  1334. RY*(   8) C  71                  0.00013     2.44161   
  1335. RY*(   9) C  71                  0.00008     3.13776   
  1336. RY*(  10) C  71                  0.00006     2.13744   
  1337. RY*(  11) C  71                  0.00004     1.81161   
  1338. RY*(  12) C  71                  0.00004     3.19583   
  1339. RY*(  13) C  71                  0.00003     2.51956   
  1340. RY*(  14) C  71                  0.00002     2.57571   
  1341. RY*(  15) C  71                  0.00002     2.97254   
  1342. RY*(  16) C  71                  0.00000     3.16955   
  1343. RY*(  17) C  71                  0.00000     3.55808   
  1344. RY*(  18) C  71                  0.00000     2.88216   
  1345. RY*(  19) C  71                  0.00000    21.48653   
  1346. RY*(  20) C  71                  0.00001     3.98495   
  1347. RY*(  21) C  71                  0.00001     3.82412   
  1348. RY*(  22) C  71                  0.00000     3.83569   
  1349. RY*(  23) C  71                  0.00000     3.63032   
  1350. RY*(  24) C  71                  0.00000     3.78504   
  1351. RY*(  25) C  71                  0.00000     3.37379   
  1352. RY*(  26) C  71                  0.00000     3.52911   
  1353. RY*(   1) H  72                  0.00065     0.62390   
  1354. RY*(   2) H  72                  0.00035     2.48538   
  1355. RY*(   3) H  72                  0.00021     2.13482   
  1356. RY*(   4) H  72                  0.00012     2.44404   
  1357. RY*(   5) H  72                  0.00002     3.16027   
  1358. RY*(   1) N  73                  0.01127     0.82391   
  1359. RY*(   2) N  73                  0.00993     1.27668   
  1360. RY*(   3) N  73                  0.00656     1.37114   
  1361. RY*(   4) N  73                  0.00109     1.68429   
  1362. RY*(   5) N  73                  0.00075     1.72708   
  1363. RY*(   6) N  73                  0.00058     2.00759   
  1364. RY*(   7) N  73                  0.00037     3.37779   
  1365. RY*(   8) N  73                  0.00037     3.12715   
  1366. RY*(   9) N  73                  0.00014     2.89256   
  1367. RY*(  10) N  73                  0.00009     2.48627   
  1368. RY*(  11) N  73                  0.00009     3.31321   
  1369. RY*(  12) N  73                  0.00009     3.60488   
  1370. RY*(  13) N  73                  0.00004     3.77169   
  1371. RY*(  14) N  73                  0.00005     3.36611   
  1372. RY*(  15) N  73                  0.00002     4.71716   
  1373. RY*(  16) N  73                  0.00002     4.68399   
  1374. RY*(  17) N  73                  0.00000    31.70254   
  1375. RY*(  18) N  73                  0.00001     4.11906   
  1376. RY*(  19) N  73                  0.00000     4.84685   
  1377. RY*(  20) N  73                  0.00000     4.43865   
  1378. RY*(  21) N  73                  0.00001     4.57295   
  1379. RY*(  22) N  73                  0.00000     3.92519   
  1380. RY*(  23) N  73                  0.00000     4.66354   
  1381. RY*(  24) N  73                  0.00000     4.78251   
  1382. RY*(  25) N  73                  0.00000     4.56388   
  1383. RY*(  26) N  73                  0.00000     4.65912   
  1384. RY*(   1) C  74                  0.00407     1.48359   
  1385. RY*(   2) C  74                  0.00273     0.70551   
  1386. RY*(   3) C  74                  0.00174     1.81303   
  1387. RY*(   4) C  74                  0.00065     2.03402   
  1388. RY*(   5) C  74                  0.00061     1.46579   
  1389. RY*(   6) C  74                  0.00050     1.88776   
  1390. RY*(   7) C  74                  0.00044     2.41086   
  1391. RY*(   8) C  74                  0.00026     1.41037   
  1392. RY*(   9) C  74                  0.00026     1.61667   
  1393. RY*(  10) C  74                  0.00016     2.03051   
  1394. RY*(  11) C  74                  0.00011     1.10623   
  1395. RY*(  12) C  74                  0.00006     2.24711   
  1396. RY*(  13) C  74                  0.00007     1.99310   
  1397. RY*(  14) C  74                  0.00005     3.24437   
  1398. RY*(  15) C  74                  0.00003     1.34395   
  1399. RY*(  16) C  74                  0.00002     3.31039   
  1400. RY*(  17) C  74                  0.00000     3.26806   
  1401. RY*(  18) C  74                  0.00001     3.62276   
  1402. RY*(  19) C  74                  0.00000    21.74522   
  1403. RY*(  20) C  74                  0.00001     4.01581   
  1404. RY*(  21) C  74                  0.00001     3.81216   
  1405. RY*(  22) C  74                  0.00000     3.69379   
  1406. RY*(  23) C  74                  0.00001     3.37571   
  1407. RY*(  24) C  74                  0.00000     3.79954   
  1408. RY*(  25) C  74                  0.00000     3.50773   
  1409. RY*(  26) C  74                  0.00000     3.63982   
  1410. RY*(   1) H  75                  0.00057     0.74743   
  1411. RY*(   2) H  75                  0.00035     2.33827   
  1412. RY*(   3) H  75                  0.00025     2.32921   
  1413. RY*(   4) H  75                  0.00008     2.75158   
  1414. RY*(   5) H  75                  0.00001     3.16444   
  1643. BD*(   1) C  64 - H  65          0.01221     0.35987   
  1644. BD*(   1) C  64 - H  66          0.00346     0.37380   
  1645. BD*(   1) C  64 - H  67          0.01172     0.36002   
  1646. BD*(   1) C  64 - C  70          0.01383     0.39057   
  1647. BD*(   1) N  68 - H  69          0.01443     0.36788   
  1648. BD*(   1) N  68 - C  70          0.02721     0.43123   
  1649. BD*(   1) N  68 - C  71          0.02252     0.44950   
  1650. BD*(   1) C  70 - C  74          0.02122     0.56881   
  1651. BD*(   2) C  70 - C  74          0.30001     0.03698  1654(v),1643(v),1645(v)
                                                    1390(g),1305(g),1601(r)
  1652. BD*(   1) C  71 - H  72          0.01827     0.39422   
  1653. BD*(   1) C  71 - N  73          0.01716     0.53637   
  1654. BD*(   2) C  71 - N  73          0.41740    -0.00328  1651(v),1328(g),1358(g)
                                                    1385(v),171(r),1573(r)
                                                    1570(r),9(r)
  1655. BD*(   1) N  73 - C  74          0.01716     0.48219   
  1656. BD*(   1) C  74 - H  75          0.01471     0.43607   
       -------------------------------
              Total Lewis   42.67879  ( 97.7137%)
        Valence non-Lewis    0.91131  (  2.0865%)
        Rydberg non-Lewis    0.08728  (  0.1998%)
       -------------------------------
            Total unit  2   43.67738  (100.0000%)
           Charge unit  2    0.32262
 Unable to Open any file for archive entry.
 1\1\GINC-BGN1030\SP\RAPFD\def2TZVP\C37H42Fe1N6S1\BEBJONES\18-Mar-2024\
 0\\# apfd/def2TZVP int=(grid=ultrafine) geom=check guess=read pop=nbo 
 scf=qc\\1c75_II_S_nbo\\0,1\Fe,0,11.1263480038,24.0200156557,1.90300941
 31\N,0,11.5932533507,25.9399709521,2.1607759636\N,0,12.3644395439,23.8
 527636006,0.391962962\N,0,10.6323609934,22.0710205332,1.7845953144\N,0
 ,9.8540596359,24.1645820137,3.5016959687\C,0,11.1607375852,26.80061292
 88,3.1142816339\C,0,11.7213718045,28.1189797259,2.9077038174\C,0,12.48
 36840715,28.035098915,1.7857568255\C,0,12.4003131201,26.6610497129,1.3
 38784413\C,0,13.0810913592,24.8540221883,-0.1808697942\C,0,13.90628694
 16,24.334574391,-1.2499538294\C,0,13.6590527042,22.9976506438,-1.31050
 15475\C,0,12.696460872,22.7149661181,-0.2687286283\C,0,11.2248241071,2
 1.1705182649,0.956256088\C,0,10.6858807259,19.8430693601,1.1760938687\
 C,0,9.7644127317,19.9709682202,2.1817997789\C,0,9.7512373297,21.365562
 0595,2.5416438179\C,0,9.0382779787,23.1998063623,4.0015180731\C,0,8.27
 51437287,23.700869708,5.1283364028\C,0,8.6822893289,24.9955717065,5.30
 91672641\C,0,9.6526908611,25.2623338117,4.2793703787\C,0,10.2668907946
 ,26.4918676433,4.1164124392\H,0,10.0044512205,27.2749817155,4.81075885
 22\C,0,13.0832102338,26.1722776494,0.2388728109\H,0,13.6900568942,26.8
 69752808,-0.3177796606\C,0,12.1663998748,21.4639640436,-0.0150813432\H
 ,0,12.5244836087,20.6454819464,-0.6209303189\C,0,8.9774361041,21.89161
 18957,3.5618829553\H,0,8.2832099576,21.2274562248,4.0533780912\C,0,11.
 4456021659,29.2948628809,3.7805082227\H,0,11.7313383112,29.0868786095,
 4.8121808774\H,0,10.3824900003,29.5369016351,3.7676598273\H,0,11.99837
 49262,30.167869162,3.4417182329\C,0,13.270269407,29.0976414055,1.09750
 59249\H,0,12.9272461828,29.2160795364,0.0692965117\H,0,14.3304598341,2
 8.8420002735,1.0735049966\H,0,13.1600439604,30.0514237169,1.6077990258
 \C,0,8.2843023392,25.9483678064,6.380647685\H,0,7.5441830372,26.663403
 3482,6.0178920578\H,0,9.1489435362,26.5084673337,6.7332410354\H,0,7.85
 45893295,25.4044548607,7.2190590914\C,0,7.3259545956,22.9260952636,5.8
 960857222\H,0,7.5518042408,21.8701762846,5.990000059\C,0,6.227255188,2
 3.3999614051,6.4740957173\H,0,5.9263175024,24.4286853491,6.3794918327\
 H,0,5.5714904112,22.7639297927,7.044912945\C,0,8.9680420897,18.9037482
 494,2.8479172054\H,0,7.9473816819,18.8816200216,2.461448581\H,0,8.9153
 76074,19.0709270494,3.9230599442\H,0,9.4231929247,17.9316179292,2.6685
 629814\C,0,11.096507369,18.6553471954,0.4601841213\H,0,12.1397499772,1
 8.6199873211,0.1666835417\C,0,10.3020236649,17.641058726,0.134364314\H
 ,0,9.248864876,17.6436488241,0.3555661867\H,0,10.675095315,16.77783249
 66,-0.3920126747\C,0,14.233617042,21.9713436137,-2.2257575133\H,0,14.9
 468497919,22.4195421606,-2.9135029828\H,0,13.4471779355,21.4941642886,
 -2.8111162777\H,0,14.7463964158,21.1966648018,-1.6552899073\C,0,14.813
 2052324,25.1660855942,-2.09086459\H,0,14.2535008964,25.9502699884,-2.6
 013679065\H,0,15.3116147474,24.5574183988,-2.8414394542\H,0,15.5761670
 208,25.6432699248,-1.4751205172\C,0,14.2415461627,21.8455253406,5.9889
 918783\H,0,15.0523745681,21.1742222087,5.7046989692\H,0,13.4269711805,
 21.2535023847,6.3944872819\H,0,14.6099870513,22.5136370217,6.767532969
 3\N,0,14.5624782703,23.4800903312,4.1178339439\H,0,15.527772963,23.680
 3298394,4.3222779724\C,0,13.7588263374,22.616552258,4.8154454438\C,0,1
 3.8233871635,24.0092938406,3.1171568591\H,0,14.1934928291,24.721862512
 5,2.4093481475\N,0,12.6028106467,23.5330320982,3.138753187\C,0,12.5469
 404218,22.6655952556,4.188947541\H,0,11.6454346475,22.1395863299,4.423
 1925166\C,0,10.1306906906,24.2902043899,-2.218221259\H,0,11.1567062435
 ,24.5066923696,-1.9369216813\H,0,9.6410006834,25.2249774093,-2.4809519
 965\H,0,10.1382817005,23.639562012,-3.0904815055\C,0,9.3998487736,23.6
 150085722,-1.0737418579\H,0,9.8841014344,22.6818032742,-0.7909776399\H
 ,0,8.3601501998,23.4264564811,-1.3401660409\S,0,9.3761079009,24.712387
 0316,0.4035933265\C,0,7.8012954355,24.1452128587,1.1158810471\H,0,7.85
 49909551,23.0827605087,1.3306311116\H,0,6.9976293915,24.3644028069,0.4
 176335713\H,0,7.6533908633,24.6981568188,2.0369293846\\Version=ES64L-G
 16RevC.02\State=1-A\HF=-3424.8536082\RMSD=1.355e-09\Dipole=1.5243686,-
 0.0115236,0.5919603\Quadrupole=8.3290253,-6.3392065,-1.9898188,1.40416
 62,5.5944407,-0.1980299\PG=C01 [X(C37H42Fe1N6S1)]\\@
 The archive entry for this job was punched.


 I DON'T EXACTLY UNDERSTAND WHAT YOU ARE SAYING,
 BUT YOU ARE ABSOLUTELY RIGHT.
     M.S.GORDON, IN A NDSU FACULTY MEETING
 Job cpu time:       0 days  1 hours  0 minutes  9.9 seconds.
 Elapsed time:       0 days  0 hours  1 minutes 10.2 seconds.
 File lengths (MBytes):  RWF=    938 Int=      0 D2E=      0 Chk=    161 Scr=      1
 Normal termination of Gaussian 16 at Mon Mar 18 10:47:05 2024.
