 Entering Gaussian System, Link 0=g16
 Input=1cc505re.com
 Output=1cc505re.log
 Initial command:
 /sw/chem/gaussian/g16_C02/a100/g16/l1.exe "/local/bebjones_7797024/Gau-730418.inp" -scrdir="/local/bebjones_7797024/"
 Entering Link 1 = /sw/chem/gaussian/g16_C02/a100/g16/l1.exe PID=    730419.
  
 Copyright (c) 1988-2021, Gaussian, Inc.  All Rights Reserved.
  
 This is part of the Gaussian(R) 16 program.  It is based on
 the Gaussian(R) 09 system (copyright 2009, Gaussian, Inc.),
 the Gaussian(R) 03 system (copyright 2003, Gaussian, Inc.),
 the Gaussian(R) 98 system (copyright 1998, Gaussian, Inc.),
 the Gaussian(R) 94 system (copyright 1995, Gaussian, Inc.),
 the Gaussian 92(TM) system (copyright 1992, Gaussian, Inc.),
 the Gaussian 90(TM) system (copyright 1990, Gaussian, Inc.),
 the Gaussian 88(TM) system (copyright 1988, Gaussian, Inc.),
 the Gaussian 86(TM) system (copyright 1986, Carnegie Mellon
 University), and the Gaussian 82(TM) system (copyright 1983,
 Carnegie Mellon University). Gaussian is a federally registered
 trademark of Gaussian, Inc.
  
 This software contains proprietary and confidential information,
 including trade secrets, belonging to Gaussian, Inc.
  
 This software is provided under written license and may be
 used, copied, transmitted, or stored only in accord with that
 written license.
  
 The following legend is applicable only to US Government
 contracts under FAR:
  
                    RESTRICTED RIGHTS LEGEND
  
 Use, reproduction and disclosure by the US Government is
 subject to restrictions as set forth in subparagraphs (a)
 and (c) of the Commercial Computer Software - Restricted
 Rights clause in FAR 52.227-19.
  
 Gaussian, Inc.
 340 Quinnipiac St., Bldg. 40, Wallingford CT 06492
  
  
 ---------------------------------------------------------------
 Warning -- This program may not be used in any manner that
 competes with the business of Gaussian, Inc. or will provide
 assistance to any competitor of Gaussian, Inc.  The licensee
 of this program is prohibited from giving any competitor of
 Gaussian, Inc. access to this program.  By using this program,
 the user acknowledges that Gaussian, Inc. is engaged in the
 business of creating and licensing software in the field of
 computational chemistry and represents and warrants to the
 licensee that it is not a competitor of Gaussian, Inc. and that
 it will not use this program in any manner prohibited above.
 ---------------------------------------------------------------
  

 Cite this work as:
 Gaussian 16, Revision C.02,
 M. J. Frisch, G. W. Trucks, H. B. Schlegel, G. E. Scuseria, 
 M. A. Robb, J. R. Cheeseman, G. Scalmani, V. Barone, 
 G. A. Petersson, H. Nakatsuji, X. Li, M. Caricato, A. V. Marenich, 
 J. Bloino, B. G. Janesko, R. Gomperts, B. Mennucci, H. P. Hratchian, 
 J. V. Ortiz, A. F. Izmaylov, J. L. Sonnenberg, D. Williams-Young, 
 F. Ding, F. Lipparini, F. Egidi, J. Goings, B. Peng, A. Petrone, 
 T. Henderson, D. Ranasinghe, V. G. Zakrzewski, J. Gao, N. Rega, 
 G. Zheng, W. Liang, M. Hada, M. Ehara, K. Toyota, R. Fukuda, 
 J. Hasegawa, M. Ishida, T. Nakajima, Y. Honda, O. Kitao, H. Nakai, 
 T. Vreven, K. Throssell, J. A. Montgomery, Jr., J. E. Peralta, 
 F. Ogliaro, M. J. Bearpark, J. J. Heyd, E. N. Brothers, K. N. Kudin, 
 V. N. Staroverov, T. A. Keith, R. Kobayashi, J. Normand, 
 K. Raghavachari, A. P. Rendell, J. C. Burant, S. S. Iyengar, 
 J. Tomasi, M. Cossi, J. M. Millam, M. Klene, C. Adamo, R. Cammi, 
 J. W. Ochterski, R. L. Martin, K. Morokuma, O. Farkas, 
 J. B. Foresman, and D. J. Fox, Gaussian, Inc., Wallingford CT, 2019.
 
 ******************************************
 Gaussian 16:  ES64L-G16RevC.02  7-Dec-2021
                30-Mar-2024 
 ******************************************
 %mem=16GB
 %CPU=0-71
 SetSPE:  set environment variable "OMP_PROC_BIND" = "true"
 SetSPE:  set environment variable "OMP_PLACES" = "{0},{1},{2},{3},{4},{5},{6},{7},{8},{9},{10},{11},{12},{13},{14},{15},{16},{17},{18},{19},{20},{21},{22},{23},{24},{25},{26},{27},{28},{29},{30},{31},{32},{33},{34},{35},{36},{37},{38},{39},{40},{41},{42},{43},{44},{45},{46},{47},{48},{49},{50},{51},{52},{53},{54},{55},{56},{57},{58},{59},{60},{61},{62},{63},{64},{65},{66},{67},{68},{69},{70},{71}"
 Will use up to   72 processors via shared memory.
 %gpucpu=0,1,2,3=0,1,2,3
 Will use    4 GPUs:
 Thread  CPU   GPU
      0    0     0
      1    1     1
      2    2     2
      3    3     3
      4    4    -1
      5    5    -1
      6    6    -1
      7    7    -1
      8    8    -1
      9    9    -1
     10   10    -1
     11   11    -1
     12   12    -1
     13   13    -1
     14   14    -1
     15   15    -1
     16   16    -1
     17   17    -1
     18   18    -1
     19   19    -1
     20   20    -1
     21   21    -1
     22   22    -1
     23   23    -1
     24   24    -1
     25   25    -1
     26   26    -1
     27   27    -1
     28   28    -1
     29   29    -1
     30   30    -1
     31   31    -1
     32   32    -1
     33   33    -1
     34   34    -1
     35   35    -1
     36   36    -1
     37   37    -1
     38   38    -1
     39   39    -1
     40   40    -1
     41   41    -1
     42   42    -1
     43   43    -1
     44   44    -1
     45   45    -1
     46   46    -1
     47   47    -1
     48   48    -1
     49   49    -1
     50   50    -1
     51   51    -1
     52   52    -1
     53   53    -1
     54   54    -1
     55   55    -1
     56   56    -1
     57   57    -1
     58   58    -1
     59   59    -1
     60   60    -1
     61   61    -1
     62   62    -1
     63   63    -1
     64   64    -1
     65   65    -1
     66   66    -1
     67   67    -1
     68   68    -1
     69   69    -1
     70   70    -1
     71   71    -1
 SetGPE:  set environment variable "OMP_PROC_BIND" = "true"
 SetGPE:  set environment variable "OMP_PLACES" = "{0},{1},{2},{3},{4},{5},{6},{7},{8},{9},{10},{11},{12},{13},{14},{15},{16},{17},{18},{19},{20},{21},{22},{23},{24},{25},{26},{27},{28},{29},{30},{31},{32},{33},{34},{35},{36},{37},{38},{39},{40},{41},{42},{43},{44},{45},{46},{47},{48},{49},{50},{51},{52},{53},{54},{55},{56},{57},{58},{59},{60},{61},{62},{63},{64},{65},{66},{67},{68},{69},{70},{71}"
 %oldchk=1cc5_II_S.chk
 %chk=1cc5_II_Sre.chk
 Properties for Device   0
 Minimum vector length:                              32
 Maximum vector length:                            1024
 Number of SMPs:                                    108
 Maximum number of threads per SMP:                2048
 Number of ASync Engines:                             5
 Memory:                                           9192980480
 Properties for Device   1
 Minimum vector length:                              32
 Maximum vector length:                            1024
 Number of SMPs:                                    108
 Maximum number of threads per SMP:                2048
 Number of ASync Engines:                             5
 Memory:                                           9192980480
 Properties for Device   2
 Minimum vector length:                              32
 Maximum vector length:                            1024
 Number of SMPs:                                    108
 Maximum number of threads per SMP:                2048
 Number of ASync Engines:                             5
 Memory:                                           9192980480
 Properties for Device   3
 Minimum vector length:                              32
 Maximum vector length:                            1024
 Number of SMPs:                                    108
 Maximum number of threads per SMP:                2048
 Number of ASync Engines:                             5
 Memory:                                           9192980480
   8273682432 words of memory will be used on each GPU.
 Copying data from "1cc5_II_S.chk" to current chk file "1cc5_II_Sre.chk"
 IOpt=  2 FromEx=T IUOpen= 4 IOptOp= 5 NList=   0 IFRang= 0 IUIn= 4 IUOut= 2.
 --------------------------------------
 # apfd/gen scf=maxcycle=999 geom=check
 --------------------------------------
 1/29=2,38=1,172=1/1;
 2/12=2,40=1/2;
 3/5=7,11=2,14=-4,25=1,30=1,74=-44/1,2,3;
 4//1;
 5/5=2,7=999,38=5/2;
 6/7=2,8=2,9=2,10=2,28=1/1;
 99/5=1,9=1/99;
 ---------
 1cc5_II_Q
 ---------
 Structure from the checkpoint file:  "1cc5_II_Sre.chk"
 Charge =  0 Multiplicity = 5
 Z-Matrix found in chk file.
 Fe,0,-13.7941697251,-4.676859696,14.4193183729
 N,0,-15.584799841,-3.7658148414,14.3707714449
 N,0,-13.3641991094,-3.9915248017,12.6162990537
 N,0,-12.0286070638,-5.5938831353,14.5703409978
 N,0,-14.2649766074,-5.3703767977,16.2648025388
 C,0,-16.6184200841,-3.887519573,15.2430830555
 C,0,-17.7657940067,-3.1356873923,14.7893954334
 C,0,-17.3957759294,-2.5430586377,13.6221603707
 C,0,-16.0345521452,-2.9609739696,13.3684100361
 C,0,-14.0668782147,-3.0744350923,11.8982808651
 C,0,-13.3547762924,-2.7078484926,10.7022762379
 C,0,-12.1879656739,-3.4281813414,10.7126430436
 C,0,-12.2136464364,-4.2115619323,11.9329141781
 C,0,-11.0714896186,-5.6146025003,13.6029699843
 C,0,-9.8716887542,-6.251591399,14.0845981702
 C,0,-10.117522577,-6.5953083933,15.3876072949
 C,0,-11.4869227026,-6.1959045412,15.6546805031
 C,0,-13.4575531705,-6.0722927249,17.1012238475
 C,0,-14.156211522,-6.4215702025,18.3186245438
 C,0,-15.4156597402,-5.9247432445,18.1902174846
 C,0,-15.4583537157,-5.2569951507,16.9086012563
 C,0,-16.5732863124,-4.5912237298,16.4336992512
 H,0,-17.4604838627,-4.5970732743,17.0481179976
 C,0,-15.3227085573,-2.6001841491,12.2404283701
 H,0,-15.792205374,-1.9019694326,11.5637905356
 C,0,-11.172471545,-5.0153610063,12.3582304855
 H,0,-10.3180928374,-5.1008668151,11.7035209306
 C,0,-12.1433991988,-6.4178073207,16.8481595822
 H,0,-11.6023730942,-6.9211551148,17.6343182474
 C,0,-18.1901287498,-1.6628428472,12.7197024782
 H,0,-17.689350227,-0.7060628334,12.5719765771
 H,0,-19.1761738043,-1.4713698507,13.1363359762
 H,0,-18.3151866776,-2.1328795458,11.7438981637
 C,0,-19.0629587463,-3.0623299953,15.5196351798
 H,0,-18.9236641911,-2.6266693395,16.5093347705
 H,0,-19.4891141952,-4.0577117808,15.6468791588
 H,0,-19.7788230706,-2.4511601407,14.9753678847
 C,0,-13.8478619552,-1.7756205466,9.6509862999
 H,0,-13.5522329105,-0.7488996435,9.8704205533
 H,0,-14.93302536,-1.8043173776,9.5806915832
 H,0,-13.4301681352,-2.0516064296,8.6853092476
 C,0,-11.1213391267,-3.4602941312,9.7384773765
 H,0,-10.5953462212,-4.4046288178,9.6549264671
 C,0,-10.7432945041,-2.4485317305,8.9632029245
 H,0,-11.1926234832,-1.4738232866,9.0287966108
 H,0,-9.944772802,-2.5569227284,8.2480221201
 C,0,-8.6448813573,-6.4997738537,13.2785905082
 H,0,-7.9660493302,-5.6482801481,13.3320018424
 H,0,-8.8942989307,-6.6651172486,12.2331783474
 H,0,-8.1221257698,-7.3765033443,13.6543185015
 C,0,-9.2493231432,-7.2528989257,16.3371695048
 H,0,-9.7449247087,-7.8713112665,17.0762312209
 C,0,-7.9247712314,-7.1474014718,16.3772001764
 H,0,-7.3801271276,-6.5108629196,15.7030695076
 H,0,-7.3392237672,-7.6757099091,17.1114657621
 C,0,-13.5527182169,-7.1913933546,19.4426411691
 H,0,-12.6773653652,-6.6734341012,19.8351713402
 H,0,-13.2377039306,-8.1788463069,19.1037922575
 H,0,-14.2666720893,-7.3186389898,20.2529590064
 C,0,-16.556431859,-5.9851905112,19.1478265124
 H,0,-16.2930189359,-6.5722699588,20.0242743401
 H,0,-17.4306451213,-6.4400131971,18.6815117992
 H,0,-16.8327781555,-4.9830934071,19.4777195944
 C,0,-13.3560992178,-2.5685097916,18.1139192046
 H,0,-12.3453877529,-2.2152878933,18.3046621998
 H,0,-13.3565178891,-3.6530249586,18.1675959298
 H,0,-14.0170750799,-2.1808351037,18.8865045365
 C,0,-13.8265312496,-2.1091021622,16.7474882399
 H,0,-13.7880916905,-1.0231650281,16.6697507816
 H,0,-14.835107665,-2.4596614416,16.5382554439
 S,0,-12.7160512287,-2.776949653,15.4415568178
 C,0,-12.7745049748,-1.3633810965,14.2962557424
 H,0,-12.3668056306,-0.4888004201,14.7965980068
 H,0,-13.7962639119,-1.1899833332,13.973693511
 H,0,-12.1569448381,-1.6210683298,13.4423267612
 C,0,-14.8178055417,-9.2319771789,11.3495070559
 H,0,-13.8843889597,-9.164635352,10.7997090144
 H,0,-15.6445533264,-9.1917317239,10.6401327797
 H,0,-14.8538416936,-10.1945332259,11.8597722417
 N,0,-15.9853906517,-7.9489256854,13.1523689564
 H,0,-16.7993640638,-8.5401874181,13.1841458158
 C,0,-14.9060220392,-8.1153279171,12.3243204255
 C,0,-15.7578476761,-6.8506696339,13.9063158838
 H,0,-16.4360389206,-6.4787311502,14.6458027637
 N,0,-14.6019615988,-6.3113172332,13.6068013119
 C,0,-14.0597251382,-7.0868172533,12.6248575639
 H,0,-13.1035723492,-6.8555923743,12.2040901357
 Recover connectivity data from disk.
 Stoichiometry    C37H42FeN6S(5)
 Framework group  C1[X(C37H42FeN6S)]
 Deg. of freedom   255
 Full point group                 C1      NOp   1
 Largest Abelian subgroup         C1      NOp   1
 Largest concise Abelian subgroup C1      NOp   1
                         Standard orientation:                         
 ---------------------------------------------------------------------
 Center     Atomic      Atomic             Coordinates (Angstroms)
 Number     Number       Type             X           Y           Z
 ---------------------------------------------------------------------
      1         26           0       -0.082290   -0.080706   -0.035487
      2          7           0       -0.949408   -1.892629   -0.096775
      3          7           0        1.712757   -0.906519   -0.071236
      4          7           0        0.686416    1.760151    0.000437
      5          7           0       -1.936085    0.737919    0.006152
      6          6           0       -2.261184   -2.207063    0.059702
      7          6           0       -2.452392   -3.639108    0.044273
      8          6           0       -1.220368   -4.186100   -0.138696
      9          6           0       -0.291405   -3.079730   -0.209016
     10          6           0        2.009121   -2.215663   -0.291854
     11          6           0        3.431529   -2.405189   -0.404710
     12          6           0        3.998640   -1.166245   -0.250313
     13          6           0        2.895897   -0.243763   -0.059550
     14          6           0        2.015059    2.053695    0.029576
     15          6           0        2.227084    3.474894   -0.082147
     16          6           0        0.984908    4.038403   -0.208107
     17          6           0        0.038226    2.941642   -0.124345
     18          6           0       -2.243547    2.059881   -0.039692
     19          6           0       -3.673669    2.259202    0.045186
     20          6           0       -4.224109    1.020860    0.159475
     21          6           0       -3.124122    0.083653    0.115630
     22          6           0       -3.289994   -1.288054    0.168219
     23          1           0       -4.294674   -1.668138    0.272230
     24          6           0        1.074755   -3.237127   -0.343426
     25          1           0        1.443422   -4.241919   -0.485718
     26          6           0        3.043685    1.126261    0.051019
     27          1           0        4.051561    1.513692    0.051803
     28          6           0       -1.333145    3.093686   -0.152997
     29          1           0       -1.726969    4.094052   -0.244011
     30          6           0       -0.830247   -5.621770   -0.221539
     31          1           0       -0.310571   -5.828965   -1.156973
     32          1           0       -1.706190   -6.263952   -0.168097
     33          1           0       -0.163002   -5.882288    0.600460
     34          6           0       -3.774556   -4.310647    0.193213
     35          1           0       -4.449175   -4.015482   -0.610823
     36          1           0       -4.239842   -4.037276    1.140505
     37          1           0       -3.664006   -5.391976    0.166304
     38          6           0        4.120119   -3.712707   -0.588109
     39          1           0        4.232728   -3.948988   -1.646973
     40          1           0        3.558026   -4.519323   -0.122529
     41          1           0        5.110510   -3.676155   -0.139826
     42          6           0        5.393599   -0.789667   -0.250769
     43          1           0        5.646547    0.060588    0.372529
     44          6           0        6.361365   -1.385352   -0.940856
     45          1           0        6.170209   -2.203555   -1.611869
     46          1           0        7.384039   -1.052483   -0.876006
     47          6           0        3.549992    4.155557   -0.028180
     48          1           0        3.994229    4.220718   -1.021717
     49          1           0        4.240015    3.612288    0.613037
     50          1           0        3.435159    5.164862    0.360685
     51          6           0        0.625122    5.429745   -0.358393
     52          1           0       -0.332536    5.714824    0.060996
     53          6           0        1.356974    6.357138   -0.967904
     54          1           0        2.291763    6.126099   -1.446508
     55          1           0        1.027681    7.380963   -1.034763
     56          6           0       -4.339288    3.592115    0.021990
     57          1           0       -4.099858    4.123841   -0.899175
     58          1           0       -4.003333    4.201676    0.861445
     59          1           0       -5.419808    3.487197    0.085278
     60          6           0       -5.658803    0.632320    0.272257
     61          1           0       -6.293805    1.513507    0.322175
     62          1           0       -5.829892    0.036125    1.168828
     63          1           0       -5.963755    0.039330   -0.590739
     64          6           0       -2.589174    0.704949   -3.409713
     65          1           0       -2.128389    1.336352   -4.165817
     66          1           0       -2.763634    1.304721   -2.521517
     67          1           0       -3.546930    0.348505   -3.783503
     68          6           0       -1.687943   -0.469916   -3.082649
     69          1           0       -1.472135   -1.053047   -3.977168
     70          1           0       -2.132136   -1.109125   -2.322384
     71         16           0       -0.074375    0.134313   -2.437710
     72          6           0        0.995387   -1.152617   -3.153759
     73          1           0        0.924498   -1.105470   -4.237366
     74          1           0        0.699068   -2.128916   -2.783433
     75          1           0        2.010399   -0.931965   -2.840642
     76          6           0        1.288937    0.276741    5.369384
     77          1           0        2.274615    0.685599    5.171010
     78          1           0        1.402330   -0.652682    5.927648
     79          1           0        0.737049    0.981865    5.990998
     80          7           0       -0.687758   -0.482903    4.036941
     81          1           0       -1.246767   -0.748499    4.830742
     82          6           0        0.579262    0.037215    4.087223
     83          6           0       -1.040540   -0.577203    2.735776
     84          1           0       -1.983003   -0.952058    2.394645
     85          7           0       -0.075652   -0.149611    1.959349
     86          6           0        0.938565    0.236572    2.785097
     87          1           0        1.851774    0.630277    2.390402
 ---------------------------------------------------------------------
 Rotational constants (GHZ):           0.0827415           0.0802295           0.0581513
 General basis read from cards:  (5D, 7F)
 Warning:  center  71 has no basis functions!
 There are   765 symmetry adapted cartesian basis functions of A   symmetry.
 There are   719 symmetry adapted basis functions of A   symmetry.
   719 basis functions,  1458 primitive gaussians,   765 cartesian basis functions
   176 alpha electrons      172 beta electrons
       nuclear repulsion energy      7142.4013755177 Hartrees.



 Warning!  S  atom   71 has 16 valence electrons but only   0 basis functions.
 This is less than a minimal basis set!



 NAtoms=   87 NActive=   87 NUniq=   87 SFac= 1.00D+00 NAtFMM=   60 NAOKFM=T Big=T
 Integral buffers will be    131072 words long.
 Raffenetti 2 integral format.
 Two-electron integral symmetry is turned on.
 R6APFD:  NTU= -4 IXU= 1 FactS= 1.050
 Nuclear repulsion after empirical dispersion term =     7142.2184309648 Hartrees.
 One-electron integrals computed using PRISM.
 NBasis=   719 RedAO= T EigKep=  2.49D-04  NBF=   719
 NBsUse=   719 1.00D-06 EigRej= -1.00D+00 NBFU=   719
 ExpMin= 4.20D-02 ExpMax= 3.01D+05 ExpMxC= 2.91D+03 IAcc=3 IRadAn=         5 AccDes= 0.00D+00
 Harris functional with IExCor= 3731 and IRadAn=       5 diagonalized for initial guess.
 HarFok:  IExCor= 3731 AccDes= 0.00D+00 IRadAn=         5 IDoV= 1 UseB2=F ITyADJ=14
 ICtDFT=  3500011 ScaDFX=  1.000000  1.000000  1.000000  1.000000
 FoFCou: FMM=F IPFlag=           0 FMFlag=      100000 FMFlg1=        2001
         NFxFlg=           0 DoJE=T BraDBF=F KetDBF=T FulRan=T
         wScrn=  0.000000 ICntrl=       500 IOpCl=  0 I1Cent=   200000004 NGrid=           0
         NMat0=    1 NMatS0=      1 NMatT0=    0 NMatD0=    1 NMtDS0=    0 NMtDT0=    0
 Petite list used in FoFCou.
 Initial guess <Sx>= 0.0000 <Sy>= 0.0000 <Sz>= 2.0000 <S**2>= 6.0000 S= 2.0000
 Requested convergence on RMS density matrix=1.00D-08 within 999 cycles.
 Requested convergence on MAX density matrix=1.00D-06.
 Requested convergence on             energy=1.00D-06.
 No special actions if energy rises.
 EnCoef did   100 forward-backward iterations
 EnCoef did   100 forward-backward iterations
 EnCoef did     5 forward-backward iterations
 EnCoef did     2 forward-backward iterations
 EnCoef did     9 forward-backward iterations
 EnCoef did     2 forward-backward iterations
 EnCoef did     6 forward-backward iterations
 EnCoef did     3 forward-backward iterations
 Restarting incremental Fock formation.
 SCF Done:  E(UAPFD) =  -3074.41744831     A.U. after   38 cycles
            NFock= 38  Conv=0.10D-07     -V/T= 2.0143
 <Sx>= 0.0000 <Sy>= 0.0000 <Sz>= 2.0000 <S**2>= 6.0250 S= 2.0050
 <L.S>=  0.00000000000    
 Annihilation of the first spin contaminant:
 S**2 before annihilation     6.0250,   after     6.0002

 **********************************************************************

            Population analysis using the SCF Density.

 **********************************************************************

 Orbital symmetries:
 Alpha Orbitals:
       Occupied  (A) (A) (A) (A) (A) (A) (A) (A) (A) (A) (A) (A)
                 (A) (A) (A) (A) (A) (A) (A) (A) (A) (A) (A) (A)
                 (A) (A) (A) (A) (A) (A) (A) (A) (A) (A) (A) (A)
                 (A) (A) (A) (A) (A) (A) (A) (A) (A) (A) (A) (A)
                 (A) (A) (A) (A) (A) (A) (A) (A) (A) (A) (A) (A)
                 (A) (A) (A) (A) (A) (A) (A) (A) (A) (A) (A) (A)
                 (A) (A) (A) (A) (A) (A) (A) (A) (A) (A) (A) (A)
                 (A) (A) (A) (A) (A) (A) (A) (A) (A) (A) (A) (A)
                 (A) (A) (A) (A) (A) (A) (A) (A) (A) (A) (A) (A)
                 (A) (A) (A) (A) (A) (A) (A) (A) (A) (A) (A) (A)
                 (A) (A) (A) (A) (A) (A) (A) (A) (A) (A) (A) (A)
                 (A) (A) (A) (A) (A) (A) (A) (A) (A) (A) (A) (A)
                 (A) (A) (A) (A) (A) (A) (A) (A) (A) (A) (A) (A)
                 (A) (A) (A) (A) (A) (A) (A) (A) (A) (A) (A) (A)
                 (A) (A) (A) (A) (A) (A) (A) (A)
       Virtual   (A) (A) (A) (A) (A) (A) (A) (A) (A) (A) (A) (A)
                 (A) (A) (A) (A) (A) (A) (A) (A) (A) (A) (A) (A)
                 (A) (A) (A) (A) (A) (A) (A) (A) (A) (A) (A) (A)
                 (A) (A) (A) (A) (A) (A) (A) (A) (A) (A) (A) (A)
                 (A) (A) (A) (A) (A) (A) (A) (A) (A) (A) (A) (A)
                 (A) (A) (A) (A) (A) (A) (A) (A) (A) (A) (A) (A)
                 (A) (A) (A) (A) (A) (A) (A) (A) (A) (A) (A) (A)
                 (A) (A) (A) (A) (A) (A) (A) (A) (A) (A) (A) (A)
                 (A) (A) (A) (A) (A) (A) (A) (A) (A) (A) (A) (A)
                 (A) (A) (A) (A) (A) (A) (A) (A) (A) (A) (A) (A)
                 (A) (A) (A) (A) (A) (A) (A) (A) (A) (A) (A) (A)
                 (A) (A) (A) (A) (A) (A) (A) (A) (A) (A) (A) (A)
                 (A) (A) (A) (A) (A) (A) (A) (A) (A) (A) (A) (A)
                 (A) (A) (A) (A) (A) (A) (A) (A) (A) (A) (A) (A)
                 (A) (A) (A) (A) (A) (A) (A) (A) (A) (A) (A) (A)
                 (A) (A) (A) (A) (A) (A) (A) (A) (A) (A) (A) (A)
                 (A) (A) (A) (A) (A) (A) (A) (A) (A) (A) (A) (A)
                 (A) (A) (A) (A) (A) (A) (A) (A) (A) (A) (A) (A)
                 (A) (A) (A) (A) (A) (A) (A) (A) (A) (A) (A) (A)
                 (A) (A) (A) (A) (A) (A) (A) (A) (A) (A) (A) (A)
                 (A) (A) (A) (A) (A) (A) (A) (A) (A) (A) (A) (A)
                 (A) (A) (A) (A) (A) (A) (A) (A) (A) (A) (A) (A)
                 (A) (A) (A) (A) (A) (A) (A) (A) (A) (A) (A) (A)
                 (A) (A) (A) (A) (A) (A) (A) (A) (A) (A) (A) (A)
                 (A) (A) (A) (A) (A) (A) (A) (A) (A) (A) (A) (A)
                 (A) (A) (A) (A) (A) (A) (A) (A) (A) (A) (A) (A)
                 (A) (A) (A) (A) (A) (A) (A) (A) (A) (A) (A) (A)
                 (A) (A) (A) (A) (A) (A) (A) (A) (A) (A) (A) (A)
                 (A) (A) (A) (A) (A) (A) (A) (A) (A) (A) (A) (A)
                 (A) (A) (A) (A) (A) (A) (A) (A) (A) (A) (A) (A)
                 (A) (A) (A) (A) (A) (A) (A) (A) (A) (A) (A) (A)
                 (A) (A) (A) (A) (A) (A) (A) (A) (A) (A) (A) (A)
                 (A) (A) (A) (A) (A) (A) (A) (A) (A) (A) (A) (A)
                 (A) (A) (A) (A) (A) (A) (A) (A) (A) (A) (A) (A)
                 (A) (A) (A) (A) (A) (A) (A) (A) (A) (A) (A) (A)
                 (A) (A) (A) (A) (A) (A) (A) (A) (A) (A) (A) (A)
                 (A) (A) (A) (A) (A) (A) (A) (A) (A) (A) (A) (A)
                 (A) (A) (A) (A) (A) (A) (A) (A) (A) (A) (A) (A)
                 (A) (A) (A) (A) (A) (A) (A) (A) (A) (A) (A) (A)
                 (A) (A) (A) (A) (A) (A) (A) (A) (A) (A) (A) (A)
                 (A) (A) (A) (A) (A) (A) (A) (A) (A) (A) (A) (A)
                 (A) (A) (A) (A) (A) (A) (A) (A) (A) (A) (A) (A)
                 (A) (A) (A) (A) (A) (A) (A) (A) (A) (A) (A) (A)
                 (A) (A) (A) (A) (A) (A) (A) (A) (A) (A) (A) (A)
                 (A) (A) (A) (A) (A) (A) (A) (A) (A) (A) (A) (A)
                 (A) (A) (A)
 Beta  Orbitals:
       Occupied  (A) (A) (A) (A) (A) (A) (A) (A) (A) (A) (A) (A)
                 (A) (A) (A) (A) (A) (A) (A) (A) (A) (A) (A) (A)
                 (A) (A) (A) (A) (A) (A) (A) (A) (A) (A) (A) (A)
                 (A) (A) (A) (A) (A) (A) (A) (A) (A) (A) (A) (A)
                 (A) (A) (A) (A) (A) (A) (A) (A) (A) (A) (A) (A)
                 (A) (A) (A) (A) (A) (A) (A) (A) (A) (A) (A) (A)
                 (A) (A) (A) (A) (A) (A) (A) (A) (A) (A) (A) (A)
                 (A) (A) (A) (A) (A) (A) (A) (A) (A) (A) (A) (A)
                 (A) (A) (A) (A) (A) (A) (A) (A) (A) (A) (A) (A)
                 (A) (A) (A) (A) (A) (A) (A) (A) (A) (A) (A) (A)
                 (A) (A) (A) (A) (A) (A) (A) (A) (A) (A) (A) (A)
                 (A) (A) (A) (A) (A) (A) (A) (A) (A) (A) (A) (A)
                 (A) (A) (A) (A) (A) (A) (A) (A) (A) (A) (A) (A)
                 (A) (A) (A) (A) (A) (A) (A) (A) (A) (A) (A) (A)
                 (A) (A) (A) (A)
       Virtual   (A) (A) (A) (A) (A) (A) (A) (A) (A) (A) (A) (A)
                 (A) (A) (A) (A) (A) (A) (A) (A) (A) (A) (A) (A)
                 (A) (A) (A) (A) (A) (A) (A) (A) (A) (A) (A) (A)
                 (A) (A) (A) (A) (A) (A) (A) (A) (A) (A) (A) (A)
                 (A) (A) (A) (A) (A) (A) (A) (A) (A) (A) (A) (A)
                 (A) (A) (A) (A) (A) (A) (A) (A) (A) (A) (A) (A)
                 (A) (A) (A) (A) (A) (A) (A) (A) (A) (A) (A) (A)
                 (A) (A) (A) (A) (A) (A) (A) (A) (A) (A) (A) (A)
                 (A) (A) (A) (A) (A) (A) (A) (A) (A) (A) (A) (A)
                 (A) (A) (A) (A) (A) (A) (A) (A) (A) (A) (A) (A)
                 (A) (A) (A) (A) (A) (A) (A) (A) (A) (A) (A) (A)
                 (A) (A) (A) (A) (A) (A) (A) (A) (A) (A) (A) (A)
                 (A) (A) (A) (A) (A) (A) (A) (A) (A) (A) (A) (A)
                 (A) (A) (A) (A) (A) (A) (A) (A) (A) (A) (A) (A)
                 (A) (A) (A) (A) (A) (A) (A) (A) (A) (A) (A) (A)
                 (A) (A) (A) (A) (A) (A) (A) (A) (A) (A) (A) (A)
                 (A) (A) (A) (A) (A) (A) (A) (A) (A) (A) (A) (A)
                 (A) (A) (A) (A) (A) (A) (A) (A) (A) (A) (A) (A)
                 (A) (A) (A) (A) (A) (A) (A) (A) (A) (A) (A) (A)
                 (A) (A) (A) (A) (A) (A) (A) (A) (A) (A) (A) (A)
                 (A) (A) (A) (A) (A) (A) (A) (A) (A) (A) (A) (A)
                 (A) (A) (A) (A) (A) (A) (A) (A) (A) (A) (A) (A)
                 (A) (A) (A) (A) (A) (A) (A) (A) (A) (A) (A) (A)
                 (A) (A) (A) (A) (A) (A) (A) (A) (A) (A) (A) (A)
                 (A) (A) (A) (A) (A) (A) (A) (A) (A) (A) (A) (A)
                 (A) (A) (A) (A) (A) (A) (A) (A) (A) (A) (A) (A)
                 (A) (A) (A) (A) (A) (A) (A) (A) (A) (A) (A) (A)
                 (A) (A) (A) (A) (A) (A) (A) (A) (A) (A) (A) (A)
                 (A) (A) (A) (A) (A) (A) (A) (A) (A) (A) (A) (A)
                 (A) (A) (A) (A) (A) (A) (A) (A) (A) (A) (A) (A)
                 (A) (A) (A) (A) (A) (A) (A) (A) (A) (A) (A) (A)
                 (A) (A) (A) (A) (A) (A) (A) (A) (A) (A) (A) (A)
                 (A) (A) (A) (A) (A) (A) (A) (A) (A) (A) (A) (A)
                 (A) (A) (A) (A) (A) (A) (A) (A) (A) (A) (A) (A)
                 (A) (A) (A) (A) (A) (A) (A) (A) (A) (A) (A) (A)
                 (A) (A) (A) (A) (A) (A) (A) (A) (A) (A) (A) (A)
                 (A) (A) (A) (A) (A) (A) (A) (A) (A) (A) (A) (A)
                 (A) (A) (A) (A) (A) (A) (A) (A) (A) (A) (A) (A)
                 (A) (A) (A) (A) (A) (A) (A) (A) (A) (A) (A) (A)
                 (A) (A) (A) (A) (A) (A) (A) (A) (A) (A) (A) (A)
                 (A) (A) (A) (A) (A) (A) (A) (A) (A) (A) (A) (A)
                 (A) (A) (A) (A) (A) (A) (A) (A) (A) (A) (A) (A)
                 (A) (A) (A) (A) (A) (A) (A) (A) (A) (A) (A) (A)
                 (A) (A) (A) (A) (A) (A) (A) (A) (A) (A) (A) (A)
                 (A) (A) (A) (A) (A) (A) (A) (A) (A) (A) (A) (A)
                 (A) (A) (A) (A) (A) (A) (A)
 The electronic state is 5-A.
 Alpha  occ. eigenvalues -- -256.22042 -30.08266 -25.92537 -25.91801 -25.91585
 Alpha  occ. eigenvalues --  -14.39124 -14.37792 -14.35152 -14.34717 -14.34237
 Alpha  occ. eigenvalues --  -14.34092 -10.26513 -10.22366 -10.22280 -10.21420
 Alpha  occ. eigenvalues --  -10.20453 -10.20435 -10.20397 -10.19934 -10.19318
 Alpha  occ. eigenvalues --  -10.19180 -10.19033 -10.19008 -10.18708 -10.18566
 Alpha  occ. eigenvalues --  -10.18435 -10.18394 -10.18301 -10.18272 -10.17999
 Alpha  occ. eigenvalues --  -10.17602 -10.17454 -10.17390 -10.17235 -10.17106
 Alpha  occ. eigenvalues --  -10.16929 -10.16803 -10.16798 -10.16788 -10.16572
 Alpha  occ. eigenvalues --  -10.16547 -10.16543 -10.16503 -10.16377 -10.15844
 Alpha  occ. eigenvalues --  -10.15784 -10.10391 -10.05467  -3.64329  -3.47299
 Alpha  occ. eigenvalues --   -2.26513  -2.22245  -2.21921  -1.86542  -1.63431
 Alpha  occ. eigenvalues --   -1.01301  -0.99135  -0.96722  -0.95497  -0.94845
 Alpha  occ. eigenvalues --   -0.93671  -0.90104  -0.86885  -0.82033  -0.81376
 Alpha  occ. eigenvalues --   -0.79787  -0.79333  -0.78245  -0.78049  -0.77914
 Alpha  occ. eigenvalues --   -0.77174  -0.76520  -0.75909  -0.74151  -0.73089
 Alpha  occ. eigenvalues --   -0.72675  -0.71929  -0.71229  -0.71128  -0.70362
 Alpha  occ. eigenvalues --   -0.68701  -0.68141  -0.67219  -0.66794  -0.66326
 Alpha  occ. eigenvalues --   -0.65772  -0.62637  -0.62467  -0.60818  -0.60423
 Alpha  occ. eigenvalues --   -0.58671  -0.58462  -0.57270  -0.56171  -0.55837
 Alpha  occ. eigenvalues --   -0.55815  -0.53534  -0.52973  -0.52507  -0.51968
 Alpha  occ. eigenvalues --   -0.51370  -0.51054  -0.50437  -0.49788  -0.49427
 Alpha  occ. eigenvalues --   -0.49099  -0.48910  -0.47387  -0.47219  -0.45788
 Alpha  occ. eigenvalues --   -0.45618  -0.44751  -0.44023  -0.43521  -0.43309
 Alpha  occ. eigenvalues --   -0.42893  -0.42690  -0.42445  -0.42032  -0.41684
 Alpha  occ. eigenvalues --   -0.41597  -0.41138  -0.40833  -0.40569  -0.40199
 Alpha  occ. eigenvalues --   -0.39993  -0.39786  -0.39722  -0.39498  -0.38912
 Alpha  occ. eigenvalues --   -0.38833  -0.38742  -0.38551  -0.38473  -0.38388
 Alpha  occ. eigenvalues --   -0.37602  -0.37393  -0.37151  -0.37009  -0.36845
 Alpha  occ. eigenvalues --   -0.36349  -0.36041  -0.35751  -0.35231  -0.34868
 Alpha  occ. eigenvalues --   -0.34610  -0.34029  -0.33461  -0.33185  -0.32829
 Alpha  occ. eigenvalues --   -0.32557  -0.31916  -0.31642  -0.30807  -0.30066
 Alpha  occ. eigenvalues --   -0.29750  -0.29308  -0.28491  -0.28310  -0.27535
 Alpha  occ. eigenvalues --   -0.26131  -0.25671  -0.24922  -0.24231  -0.23507
 Alpha  occ. eigenvalues --   -0.23147  -0.21881  -0.20300  -0.20137  -0.19229
 Alpha  occ. eigenvalues --   -0.18673  -0.18160  -0.16697  -0.14538  -0.09070
 Alpha  occ. eigenvalues --   -0.08840
 Alpha virt. eigenvalues --   -0.02583  -0.01137   0.00638   0.01045   0.01459
 Alpha virt. eigenvalues --    0.01858   0.02830   0.03509   0.05918   0.06458
 Alpha virt. eigenvalues --    0.06925   0.08047   0.09325   0.09782   0.10415
 Alpha virt. eigenvalues --    0.11145   0.11275   0.11637   0.11939   0.12255
 Alpha virt. eigenvalues --    0.12861   0.13527   0.14031   0.14086   0.14608
 Alpha virt. eigenvalues --    0.14916   0.15246   0.15535   0.16141   0.16757
 Alpha virt. eigenvalues --    0.17176   0.17442   0.17479   0.17588   0.17791
 Alpha virt. eigenvalues --    0.18049   0.18585   0.18816   0.19092   0.19440
 Alpha virt. eigenvalues --    0.19627   0.19869   0.20302   0.20452   0.21049
 Alpha virt. eigenvalues --    0.21071   0.21248   0.21301   0.21806   0.22323
 Alpha virt. eigenvalues --    0.22734   0.23429   0.23745   0.24051   0.24450
 Alpha virt. eigenvalues --    0.24597   0.25142   0.25522   0.25964   0.26342
 Alpha virt. eigenvalues --    0.26454   0.27207   0.27652   0.27778   0.28137
 Alpha virt. eigenvalues --    0.28691   0.28789   0.28974   0.29860   0.30237
 Alpha virt. eigenvalues --    0.30433   0.31540   0.31900   0.32568   0.32825
 Alpha virt. eigenvalues --    0.33348   0.34027   0.35305   0.35498   0.35832
 Alpha virt. eigenvalues --    0.36831   0.36853   0.37990   0.38133   0.38995
 Alpha virt. eigenvalues --    0.39552   0.40155   0.40701   0.42490   0.43395
 Alpha virt. eigenvalues --    0.43637   0.44479   0.44718   0.45673   0.46375
 Alpha virt. eigenvalues --    0.46529   0.47585   0.47981   0.48529   0.49419
 Alpha virt. eigenvalues --    0.50146   0.50339   0.51002   0.51453   0.52162
 Alpha virt. eigenvalues --    0.52459   0.53247   0.53537   0.54398   0.54585
 Alpha virt. eigenvalues --    0.54861   0.55320   0.55427   0.55546   0.55778
 Alpha virt. eigenvalues --    0.55915   0.56148   0.56874   0.57121   0.57321
 Alpha virt. eigenvalues --    0.57797   0.58366   0.58451   0.59046   0.59417
 Alpha virt. eigenvalues --    0.60042   0.60651   0.60825   0.61367   0.61872
 Alpha virt. eigenvalues --    0.62237   0.62459   0.62807   0.63161   0.63326
 Alpha virt. eigenvalues --    0.64119   0.64689   0.65055   0.65326   0.65602
 Alpha virt. eigenvalues --    0.66355   0.66448   0.66828   0.67271   0.67457
 Alpha virt. eigenvalues --    0.68131   0.68439   0.68540   0.69018   0.69427
 Alpha virt. eigenvalues --    0.69793   0.69880   0.70105   0.70381   0.70869
 Alpha virt. eigenvalues --    0.70931   0.71112   0.72031   0.72285   0.72504
 Alpha virt. eigenvalues --    0.73304   0.73457   0.73688   0.74071   0.74406
 Alpha virt. eigenvalues --    0.74891   0.75346   0.75547   0.76369   0.76824
 Alpha virt. eigenvalues --    0.76965   0.77682   0.78312   0.78685   0.78917
 Alpha virt. eigenvalues --    0.79624   0.79723   0.79922   0.80109   0.80437
 Alpha virt. eigenvalues --    0.80876   0.81195   0.81801   0.81969   0.82511
 Alpha virt. eigenvalues --    0.83047   0.83215   0.83815   0.84213   0.84426
 Alpha virt. eigenvalues --    0.84820   0.85139   0.86030   0.86341   0.87088
 Alpha virt. eigenvalues --    0.87383   0.87653   0.88364   0.89123   0.89302
 Alpha virt. eigenvalues --    0.89680   0.89806   0.90045   0.90840   0.91019
 Alpha virt. eigenvalues --    0.91267   0.91567   0.91618   0.92013   0.92326
 Alpha virt. eigenvalues --    0.92730   0.92943   0.93311   0.93557   0.93741
 Alpha virt. eigenvalues --    0.94480   0.94643   0.95080   0.95235   0.95597
 Alpha virt. eigenvalues --    0.96184   0.96534   0.97486   0.97570   0.97977
 Alpha virt. eigenvalues --    0.98299   0.98788   0.99239   0.99486   0.99791
 Alpha virt. eigenvalues --    1.00362   1.00592   1.00987   1.01404   1.01547
 Alpha virt. eigenvalues --    1.01967   1.02048   1.02848   1.03391   1.03721
 Alpha virt. eigenvalues --    1.03937   1.04145   1.05157   1.05362   1.05657
 Alpha virt. eigenvalues --    1.06242   1.07165   1.07779   1.08377   1.08813
 Alpha virt. eigenvalues --    1.09376   1.10152   1.11034   1.11772   1.12854
 Alpha virt. eigenvalues --    1.14014   1.14785   1.15585   1.16013   1.16663
 Alpha virt. eigenvalues --    1.17506   1.18045   1.18703   1.19311   1.19502
 Alpha virt. eigenvalues --    1.20311   1.20855   1.21338   1.21994   1.22417
 Alpha virt. eigenvalues --    1.22495   1.23247   1.23360   1.24121   1.25032
 Alpha virt. eigenvalues --    1.25829   1.25993   1.26565   1.27301   1.27615
 Alpha virt. eigenvalues --    1.28191   1.29497   1.29927   1.30137   1.30382
 Alpha virt. eigenvalues --    1.30748   1.31071   1.31906   1.32236   1.33688
 Alpha virt. eigenvalues --    1.34110   1.34364   1.34931   1.35937   1.36365
 Alpha virt. eigenvalues --    1.37388   1.38354   1.38561   1.39309   1.39545
 Alpha virt. eigenvalues --    1.40112   1.40215   1.40662   1.41503   1.41560
 Alpha virt. eigenvalues --    1.41778   1.42485   1.43226   1.43929   1.44273
 Alpha virt. eigenvalues --    1.45475   1.45841   1.46176   1.46872   1.47063
 Alpha virt. eigenvalues --    1.47330   1.49364   1.50084   1.50984   1.51815
 Alpha virt. eigenvalues --    1.52918   1.54306   1.54766   1.55018   1.55406
 Alpha virt. eigenvalues --    1.56025   1.56668   1.56878   1.57572   1.58506
 Alpha virt. eigenvalues --    1.58768   1.58996   1.59558   1.60588   1.61308
 Alpha virt. eigenvalues --    1.61931   1.64017   1.65536   1.66379   1.67300
 Alpha virt. eigenvalues --    1.67909   1.69186   1.70008   1.70648   1.71408
 Alpha virt. eigenvalues --    1.71957   1.72815   1.73656   1.77064   1.77483
 Alpha virt. eigenvalues --    1.79172   1.79614   1.80973   1.80984   1.81904
 Alpha virt. eigenvalues --    1.82608   1.82788   1.83028   1.83805   1.84439
 Alpha virt. eigenvalues --    1.84992   1.85300   1.86083   1.86142   1.86403
 Alpha virt. eigenvalues --    1.86997   1.87546   1.88007   1.88694   1.89093
 Alpha virt. eigenvalues --    1.89860   1.90288   1.90923   1.91127   1.92094
 Alpha virt. eigenvalues --    1.92480   1.93304   1.93655   1.94554   1.94972
 Alpha virt. eigenvalues --    1.95423   1.95989   1.96693   1.97273   1.97642
 Alpha virt. eigenvalues --    1.98490   1.98908   1.99875   2.00971   2.01764
 Alpha virt. eigenvalues --    2.02303   2.02443   2.02962   2.03466   2.04456
 Alpha virt. eigenvalues --    2.04857   2.05131   2.05405   2.06373   2.06884
 Alpha virt. eigenvalues --    2.07789   2.08363   2.08996   2.09237   2.09640
 Alpha virt. eigenvalues --    2.10562   2.11649   2.12142   2.13135   2.13995
 Alpha virt. eigenvalues --    2.14438   2.15057   2.15744   2.16348   2.16641
 Alpha virt. eigenvalues --    2.17238   2.17607   2.18056   2.18826   2.19262
 Alpha virt. eigenvalues --    2.19691   2.20000   2.21459   2.22140   2.22927
 Alpha virt. eigenvalues --    2.23161   2.24329   2.25165   2.26194   2.26345
 Alpha virt. eigenvalues --    2.27208   2.27553   2.27823   2.28678   2.29062
 Alpha virt. eigenvalues --    2.29307   2.29574   2.29643   2.30377   2.30869
 Alpha virt. eigenvalues --    2.31520   2.31875   2.32493   2.33417   2.33608
 Alpha virt. eigenvalues --    2.34218   2.34473   2.35434   2.36525   2.37525
 Alpha virt. eigenvalues --    2.37865   2.38103   2.38398   2.38965   2.39739
 Alpha virt. eigenvalues --    2.40124   2.41195   2.42079   2.42735   2.42953
 Alpha virt. eigenvalues --    2.43162   2.44718   2.45400   2.45986   2.46106
 Alpha virt. eigenvalues --    2.46508   2.46688   2.47226   2.47459   2.47994
 Alpha virt. eigenvalues --    2.48532   2.51306   2.52460   2.52737   2.53479
 Alpha virt. eigenvalues --    2.55070   2.55434   2.55591   2.55997   2.56571
 Alpha virt. eigenvalues --    2.58571   2.59060   2.59210   2.59415   2.60792
 Alpha virt. eigenvalues --    2.62440   2.63176   2.64993   2.65185   2.66944
 Alpha virt. eigenvalues --    2.67986   2.68787   2.69300   2.71460   2.72016
 Alpha virt. eigenvalues --    2.72929   2.73988   2.75080   2.78266   2.78827
 Alpha virt. eigenvalues --    2.79792   2.80646   2.82011   2.83216   2.83794
 Alpha virt. eigenvalues --    2.84013   2.90092   2.90592   2.90994   2.92580
 Alpha virt. eigenvalues --    2.93704   2.94344   2.96699   2.98168   2.99796
 Alpha virt. eigenvalues --    3.00336   3.01853   3.02195   3.02435   3.03304
 Alpha virt. eigenvalues --    3.06295   3.07658   3.08845   3.11783   3.15627
 Alpha virt. eigenvalues --    3.16599   3.20166   3.23087   3.26145   3.28087
 Alpha virt. eigenvalues --    3.32067   3.33236   3.40488   3.42080   3.43845
 Alpha virt. eigenvalues --    3.48934   3.49217   3.56421   3.58892   3.67325
 Alpha virt. eigenvalues --    3.91547   4.05594   4.26555
  Beta  occ. eigenvalues -- -256.22025 -30.07433 -25.91596 -25.91203 -25.91027
  Beta  occ. eigenvalues --  -14.39122 -14.37550 -14.35052 -14.34526 -14.34259
  Beta  occ. eigenvalues --  -14.33943 -10.26204 -10.22363 -10.22201 -10.21376
  Beta  occ. eigenvalues --  -10.20436 -10.20346 -10.20331 -10.19976 -10.19171
  Beta  occ. eigenvalues --  -10.19064 -10.18890 -10.18885 -10.18725 -10.18394
  Beta  occ. eigenvalues --  -10.18356 -10.18320 -10.18313 -10.18166 -10.18009
  Beta  occ. eigenvalues --  -10.17598 -10.17463 -10.17131 -10.17130 -10.17005
  Beta  occ. eigenvalues --  -10.16808 -10.16707 -10.16692 -10.16595 -10.16552
  Beta  occ. eigenvalues --  -10.16511 -10.16447 -10.16397 -10.16385 -10.15634
  Beta  occ. eigenvalues --  -10.15547 -10.10583 -10.05533  -3.63742  -3.45366
  Beta  occ. eigenvalues --   -2.23830  -2.20545  -2.20257  -1.85685  -1.63002
  Beta  occ. eigenvalues --   -1.01297  -0.98720  -0.96101  -0.95110  -0.94307
  Beta  occ. eigenvalues --   -0.93242  -0.89554  -0.86883  -0.81708  -0.80823
  Beta  occ. eigenvalues --   -0.79536  -0.79073  -0.77998  -0.77572  -0.77412
  Beta  occ. eigenvalues --   -0.76517  -0.76212  -0.75599  -0.73931  -0.72699
  Beta  occ. eigenvalues --   -0.71680  -0.71381  -0.70931  -0.70416  -0.69936
  Beta  occ. eigenvalues --   -0.68407  -0.68130  -0.66825  -0.66385  -0.65746
  Beta  occ. eigenvalues --   -0.65423  -0.62160  -0.62014  -0.60789  -0.60168
  Beta  occ. eigenvalues --   -0.58360  -0.57837  -0.57251  -0.55606  -0.55497
  Beta  occ. eigenvalues --   -0.55112  -0.53070  -0.52742  -0.52311  -0.51832
  Beta  occ. eigenvalues --   -0.51156  -0.50674  -0.49951  -0.49478  -0.49203
  Beta  occ. eigenvalues --   -0.48758  -0.48267  -0.47047  -0.46654  -0.45536
  Beta  occ. eigenvalues --   -0.45118  -0.44407  -0.43862  -0.43295  -0.43260
  Beta  occ. eigenvalues --   -0.42555  -0.42474  -0.42144  -0.41814  -0.41456
  Beta  occ. eigenvalues --   -0.41254  -0.40926  -0.40526  -0.40298  -0.40016
  Beta  occ. eigenvalues --   -0.39856  -0.39655  -0.39472  -0.39324  -0.38812
  Beta  occ. eigenvalues --   -0.38747  -0.38633  -0.38453  -0.38314  -0.38237
  Beta  occ. eigenvalues --   -0.37398  -0.37119  -0.37002  -0.36620  -0.36478
  Beta  occ. eigenvalues --   -0.35870  -0.35583  -0.35502  -0.34960  -0.34539
  Beta  occ. eigenvalues --   -0.34403  -0.33845  -0.33287  -0.32979  -0.32371
  Beta  occ. eigenvalues --   -0.32283  -0.31463  -0.30891  -0.30184  -0.29105
  Beta  occ. eigenvalues --   -0.28960  -0.28196  -0.27892  -0.27322  -0.25748
  Beta  occ. eigenvalues --   -0.24602  -0.23904  -0.23507  -0.23177  -0.21947
  Beta  occ. eigenvalues --   -0.21583  -0.20778  -0.19316  -0.19017  -0.18653
  Beta  occ. eigenvalues --   -0.16072  -0.15786
  Beta virt. eigenvalues --   -0.09096  -0.07674  -0.04181  -0.04026  -0.01446
  Beta virt. eigenvalues --    0.00726   0.01852   0.02268   0.02684   0.03443
  Beta virt. eigenvalues --    0.03965   0.04873   0.06696   0.07695   0.08762
  Beta virt. eigenvalues --    0.09095   0.10233   0.10513   0.10930   0.11193
  Beta virt. eigenvalues --    0.11674   0.11840   0.12622   0.12676   0.13335
  Beta virt. eigenvalues --    0.13632   0.14347   0.14438   0.15217   0.15300
  Beta virt. eigenvalues --    0.15646   0.16299   0.16635   0.17048   0.17640
  Beta virt. eigenvalues --    0.17705   0.17998   0.18039   0.18437   0.18574
  Beta virt. eigenvalues --    0.18698   0.19215   0.19622   0.19706   0.19900
  Beta virt. eigenvalues --    0.20095   0.20559   0.20762   0.21084   0.21263
  Beta virt. eigenvalues --    0.21506   0.21620   0.22086   0.22533   0.22908
  Beta virt. eigenvalues --    0.23603   0.23937   0.24307   0.24565   0.24756
  Beta virt. eigenvalues --    0.25568   0.25723   0.26048   0.26551   0.26660
  Beta virt. eigenvalues --    0.27470   0.27749   0.27993   0.28371   0.28910
  Beta virt. eigenvalues --    0.29196   0.29237   0.30127   0.30474   0.30548
  Beta virt. eigenvalues --    0.31868   0.32154   0.32916   0.33139   0.33614
  Beta virt. eigenvalues --    0.34407   0.35539   0.35706   0.36128   0.37111
  Beta virt. eigenvalues --    0.37222   0.38273   0.38448   0.39365   0.39840
  Beta virt. eigenvalues --    0.40398   0.41070   0.42897   0.43738   0.44014
  Beta virt. eigenvalues --    0.44866   0.44956   0.46056   0.46540   0.46722
  Beta virt. eigenvalues --    0.47842   0.48353   0.48812   0.49797   0.50482
  Beta virt. eigenvalues --    0.50545   0.51238   0.51842   0.52562   0.52894
  Beta virt. eigenvalues --    0.53649   0.53843   0.54711   0.54854   0.55155
  Beta virt. eigenvalues --    0.55678   0.55782   0.55836   0.55933   0.56189
  Beta virt. eigenvalues --    0.56396   0.57205   0.57498   0.57634   0.58220
  Beta virt. eigenvalues --    0.58589   0.58743   0.59515   0.60037   0.60628
  Beta virt. eigenvalues --    0.61056   0.61210   0.61844   0.62130   0.62504
  Beta virt. eigenvalues --    0.62893   0.63222   0.63512   0.63691   0.64616
  Beta virt. eigenvalues --    0.65041   0.65452   0.65807   0.66034   0.66749
  Beta virt. eigenvalues --    0.66885   0.67146   0.67672   0.67881   0.68506
  Beta virt. eigenvalues --    0.68875   0.68915   0.69445   0.69707   0.70142
  Beta virt. eigenvalues --    0.70184   0.70394   0.70685   0.71213   0.71297
  Beta virt. eigenvalues --    0.71604   0.72464   0.72670   0.73197   0.73636
  Beta virt. eigenvalues --    0.73895   0.74063   0.74451   0.74826   0.75501
  Beta virt. eigenvalues --    0.75908   0.76647   0.77046   0.77240   0.77673
  Beta virt. eigenvalues --    0.78094   0.78657   0.79110   0.79303   0.79884
  Beta virt. eigenvalues --    0.80102   0.80249   0.80463   0.80761   0.81164
  Beta virt. eigenvalues --    0.81580   0.82169   0.82237   0.82867   0.83369
  Beta virt. eigenvalues --    0.83524   0.84175   0.84623   0.84821   0.85173
  Beta virt. eigenvalues --    0.85629   0.86506   0.87028   0.87318   0.87767
  Beta virt. eigenvalues --    0.88314   0.88661   0.89302   0.89649   0.89997
  Beta virt. eigenvalues --    0.90212   0.90307   0.91016   0.91195   0.91416
  Beta virt. eigenvalues --    0.91805   0.92086   0.92347   0.92536   0.92851
  Beta virt. eigenvalues --    0.93165   0.93456   0.93763   0.93934   0.94635
  Beta virt. eigenvalues --    0.94742   0.95267   0.95538   0.95778   0.96401
  Beta virt. eigenvalues --    0.96807   0.97591   0.97938   0.98323   0.98507
  Beta virt. eigenvalues --    0.98873   0.99427   0.99743   0.99977   1.00612
  Beta virt. eigenvalues --    1.00808   1.01391   1.01535   1.01727   1.02227
  Beta virt. eigenvalues --    1.02295   1.02993   1.03617   1.03933   1.04227
  Beta virt. eigenvalues --    1.04444   1.05376   1.05773   1.05857   1.06487
  Beta virt. eigenvalues --    1.07686   1.08069   1.08579   1.09121   1.09514
  Beta virt. eigenvalues --    1.10475   1.11365   1.11958   1.13140   1.14296
  Beta virt. eigenvalues --    1.15132   1.15898   1.16233   1.16944   1.17856
  Beta virt. eigenvalues --    1.18400   1.18891   1.19566   1.19754   1.20619
  Beta virt. eigenvalues --    1.21109   1.21553   1.22251   1.22651   1.22701
  Beta virt. eigenvalues --    1.23490   1.23612   1.24405   1.25277   1.26063
  Beta virt. eigenvalues --    1.26223   1.26752   1.27593   1.27944   1.28505
  Beta virt. eigenvalues --    1.29816   1.30355   1.30449   1.30542   1.30801
  Beta virt. eigenvalues --    1.31281   1.32200   1.32529   1.34017   1.34562
  Beta virt. eigenvalues --    1.34654   1.35269   1.36042   1.36712   1.37693
  Beta virt. eigenvalues --    1.38638   1.38956   1.39545   1.39864   1.40292
  Beta virt. eigenvalues --    1.40603   1.40975   1.41816   1.41927   1.42191
  Beta virt. eigenvalues --    1.42894   1.43772   1.44161   1.44606   1.45952
  Beta virt. eigenvalues --    1.46456   1.46581   1.47428   1.47584   1.47644
  Beta virt. eigenvalues --    1.49643   1.50360   1.51290   1.52444   1.53244
  Beta virt. eigenvalues --    1.54541   1.55077   1.55323   1.55669   1.56288
  Beta virt. eigenvalues --    1.56995   1.57088   1.57808   1.58745   1.58995
  Beta virt. eigenvalues --    1.59290   1.59835   1.60860   1.61721   1.62233
  Beta virt. eigenvalues --    1.64346   1.65819   1.66658   1.67540   1.68290
  Beta virt. eigenvalues --    1.69542   1.70376   1.71047   1.71682   1.72313
  Beta virt. eigenvalues --    1.73190   1.74074   1.77492   1.77750   1.79467
  Beta virt. eigenvalues --    1.79934   1.81185   1.81333   1.82207   1.82947
  Beta virt. eigenvalues --    1.83110   1.83327   1.84121   1.84783   1.85269
  Beta virt. eigenvalues --    1.85570   1.86376   1.86424   1.86746   1.87367
  Beta virt. eigenvalues --    1.87650   1.88279   1.89016   1.89313   1.90197
  Beta virt. eigenvalues --    1.90576   1.91124   1.91519   1.92364   1.92856
  Beta virt. eigenvalues --    1.93350   1.93920   1.94821   1.95381   1.95851
  Beta virt. eigenvalues --    1.96395   1.97174   1.97654   1.98143   1.98860
  Beta virt. eigenvalues --    1.99314   2.00196   2.01268   2.02301   2.02584
  Beta virt. eigenvalues --    2.02733   2.03212   2.03951   2.05273   2.05326
  Beta virt. eigenvalues --    2.05555   2.06293   2.07004   2.07209   2.08245
  Beta virt. eigenvalues --    2.08731   2.09418   2.09620   2.10020   2.10935
  Beta virt. eigenvalues --    2.11999   2.12563   2.13348   2.14213   2.14795
  Beta virt. eigenvalues --    2.15468   2.16069   2.16660   2.16723   2.17418
  Beta virt. eigenvalues --    2.17957   2.18320   2.18937   2.19594   2.19915
  Beta virt. eigenvalues --    2.20230   2.21776   2.22552   2.23324   2.23554
  Beta virt. eigenvalues --    2.24689   2.25448   2.26517   2.26644   2.27406
  Beta virt. eigenvalues --    2.27705   2.28228   2.28971   2.29325   2.29580
  Beta virt. eigenvalues --    2.29800   2.29962   2.30712   2.31144   2.31757
  Beta virt. eigenvalues --    2.31982   2.32797   2.33804   2.33975   2.34313
  Beta virt. eigenvalues --    2.34833   2.35704   2.36855   2.37852   2.38161
  Beta virt. eigenvalues --    2.38453   2.38786   2.39271   2.40134   2.40421
  Beta virt. eigenvalues --    2.41550   2.42431   2.43000   2.43219   2.43306
  Beta virt. eigenvalues --    2.45091   2.45678   2.46291   2.46372   2.46797
  Beta virt. eigenvalues --    2.46978   2.47616   2.47958   2.48230   2.48913
  Beta virt. eigenvalues --    2.51694   2.52789   2.53005   2.53806   2.55415
  Beta virt. eigenvalues --    2.55928   2.56016   2.56210   2.57032   2.58921
  Beta virt. eigenvalues --    2.59356   2.59553   2.59857   2.61065   2.62944
  Beta virt. eigenvalues --    2.63680   2.65225   2.65504   2.67290   2.68089
  Beta virt. eigenvalues --    2.69296   2.69854   2.72114   2.72695   2.73650
  Beta virt. eigenvalues --    2.74440   2.75485   2.78537   2.79029   2.79891
  Beta virt. eigenvalues --    2.80788   2.82176   2.83416   2.84134   2.84401
  Beta virt. eigenvalues --    2.90446   2.90993   2.91310   2.92734   2.94161
  Beta virt. eigenvalues --    2.94710   2.97019   2.98326   3.00048   3.00557
  Beta virt. eigenvalues --    3.02156   3.02425   3.02853   3.03701   3.06332
  Beta virt. eigenvalues --    3.07831   3.09031   3.11883   3.15815   3.16793
  Beta virt. eigenvalues --    3.20180   3.23229   3.26306   3.28280   3.32231
  Beta virt. eigenvalues --    3.33399   3.40711   3.42232   3.44029   3.49130
  Beta virt. eigenvalues --    3.49407   3.57264   3.60793   3.68931   3.92093
  Beta virt. eigenvalues --    4.05970   4.27156
          Condensed to atoms (all electrons):
          Atomic-Atomic Spin Densities.
 Mulliken charges and spin densities:
               1          2
     1  Fe  -6.712050   0.460786
     2  N   -0.292283   0.065371
     3  N   -0.240265   0.079425
     4  N   -0.158094   0.057441
     5  N   -0.289370   0.031097
     6  C    0.326657   0.074540
     7  C    0.045054   0.031287
     8  C    0.052136   0.031413
     9  C    0.311366   0.081767
    10  C    0.411768   0.068670
    11  C    0.046434   0.058918
    12  C    0.003637   0.090780
    13  C    0.083967   0.024688
    14  C    0.049792   0.022449
    15  C    0.025836   0.135793
    16  C   -0.015432   0.082928
    17  C   -0.084182   0.037321
    18  C    0.150277   0.067463
    19  C    0.033612   0.064229
    20  C    0.039020   0.061669
    21  C    0.327074   0.090277
    22  C   -0.304631   0.146528
    23  H    0.148552  -0.008071
    24  C   -0.250741   0.156136
    25  H    0.149289  -0.009496
    26  C   -0.209507   0.231429
    27  H    0.141849  -0.013619
    28  C   -0.251087   0.184231
    29  H    0.141585  -0.010195
    30  C   -0.611469  -0.003689
    31  H    0.188585   0.002231
    32  H    0.175005  -0.000104
    33  H    0.189853   0.002854
    34  C   -0.608178  -0.003430
    35  H    0.187856   0.002641
    36  H    0.179379   0.002466
    37  H    0.177460  -0.000133
    38  C   -0.611949  -0.004873
    39  H    0.179354   0.003949
    40  H    0.184715   0.001355
    41  H    0.188887   0.000579
    42  C   -0.151479  -0.037454
    43  H    0.157732   0.003704
    44  C   -0.421324   0.071330
    45  H    0.165752  -0.003662
    46  H    0.152175  -0.003719
    47  C   -0.601286  -0.013463
    48  H    0.140334   0.009273
    49  H    0.196157   0.003153
    50  H    0.202833   0.001037
    51  C   -0.147253  -0.034603
    52  H    0.171381   0.004045
    53  C   -0.440128   0.090155
    54  H    0.145262  -0.004776
    55  H    0.159516  -0.004697
    56  C   -0.603299  -0.007220
    57  H    0.154003   0.003739
    58  H    0.195630   0.004627
    59  H    0.179569   0.000040
    60  C   -0.608741  -0.006812
    61  H    0.174034  -0.000065
    62  H    0.185615   0.003609
    63  H    0.184519   0.004074
    64  C   -0.689632   0.114043
    65  H   -0.068883   0.036053
    66  H    0.304604   0.005260
    67  H    0.326115   0.032490
    68  C   -5.460001  -0.084508
    69  H    0.355285   0.313425
    70  H    0.164553   0.142818
    71  S   16.000000   0.000000
    72  C   -5.060763  -0.297600
    73  H    0.083340   0.558681
    74  H    0.234932   0.390200
    75  H    0.209079   0.327355
    76  C   -0.602291   0.000126
    77  H    0.203632  -0.000024
    78  H    0.185537  -0.000072
    79  H    0.184828   0.000038
    80  N   -0.643484   0.001666
    81  H    0.355071   0.000101
    82  C    0.290582  -0.002139
    83  C    0.359098  -0.003988
    84  H    0.227509  -0.001663
    85  N   -0.305685  -0.008914
    86  C    0.041510  -0.002608
    87  H    0.214300  -0.002159
 Sum of Mulliken charges =  -0.00000   4.00000
 Mulliken charges and spin densities with hydrogens summed into heavy atoms:
               1          2
     1  Fe  -6.712050   0.460786
     2  N   -0.292283   0.065371
     3  N   -0.240265   0.079425
     4  N   -0.158094   0.057441
     5  N   -0.289370   0.031097
     6  C    0.326657   0.074540
     7  C    0.045054   0.031287
     8  C    0.052136   0.031413
     9  C    0.311366   0.081767
    10  C    0.411768   0.068670
    11  C    0.046434   0.058918
    12  C    0.003637   0.090780
    13  C    0.083967   0.024688
    14  C    0.049792   0.022449
    15  C    0.025836   0.135793
    16  C   -0.015432   0.082928
    17  C   -0.084182   0.037321
    18  C    0.150277   0.067463
    19  C    0.033612   0.064229
    20  C    0.039020   0.061669
    21  C    0.327074   0.090277
    22  C   -0.156080   0.138457
    24  C   -0.101453   0.146639
    26  C   -0.067658   0.217810
    28  C   -0.109502   0.174036
    30  C   -0.058026   0.001292
    34  C   -0.063482   0.001544
    38  C   -0.058993   0.001010
    42  C    0.006253  -0.033750
    44  C   -0.103397   0.063949
    47  C   -0.061962  -0.000000
    51  C    0.024127  -0.030558
    53  C   -0.135349   0.080682
    56  C   -0.074097   0.001186
    60  C   -0.064573   0.000807
    64  C   -0.127796   0.187847
    68  C   -4.940163   0.371735
    71  S   16.000000   0.000000
    72  C   -4.533411   0.978636
    76  C   -0.028295   0.000069
    80  N   -0.288413   0.001767
    82  C    0.290582  -0.002139
    83  C    0.586607  -0.005650
    85  N   -0.305685  -0.008914
    86  C    0.255810  -0.004767
 Electronic spatial extent (au):  <R**2>=          21936.4661
 Charge=             -0.0000 electrons
 Dipole moment (field-independent basis, Debye):
    X=              0.6960    Y=              9.0958    Z=            -11.9691  Tot=             15.0492
 Quadrupole moment (field-independent basis, Debye-Ang):
   XX=           -379.4348   YY=           -376.2651   ZZ=           -297.6439
   XY=              9.6545   XZ=            -20.4718   YZ=            -54.7574
 Traceless Quadrupole moment (field-independent basis, Debye-Ang):
   XX=            -28.3202   YY=            -25.1504   ZZ=             53.4707
   XY=              9.6545   XZ=            -20.4718   YZ=            -54.7574
 Octapole moment (field-independent basis, Debye-Ang**2):
  XXX=            -55.8320  YYY=           -153.0232  ZZZ=            575.4308  XYY=            -24.0091
  XXY=             -8.7834  XXZ=            248.1293  XZZ=             38.3476  YZZ=            150.7124
  YYZ=            164.9181  XYZ=             -4.5616
 Hexadecapole moment (field-independent basis, Debye-Ang**3):
 XXXX=         -13241.8029 YYYY=         -12786.2077 ZZZZ=          -7393.0543 XXXY=            157.2486
 XXXZ=            -85.3048 YYYX=           -127.2580 YYYZ=             58.0747 ZZZX=           -364.8962
 ZZZY=           -677.2694 XXYY=          -4303.6320 XXZZ=          -3687.2089 YYZZ=          -3525.5647
 XXYZ=             32.1695 YYXZ=            -82.3074 ZZXY=            159.0945
 N-N= 7.142218430965D+03 E-N=-2.148191022639D+04  KE= 3.031175734476D+03
                          Isotropic Fermi Contact Couplings
        Atom                 a.u.       MegaHertz       Gauss      10(-4) cm-1
     1  Fe(57)             0.05195       1.88355       0.67210       0.62829
     2  N(14)              0.01189       0.96048       0.34272       0.32038
     3  N(14)              0.03804       3.07270       1.09642       1.02494
     4  N(14)              0.06550       5.29066       1.88784       1.76478
     5  N(14)              0.01501       1.21260       0.43268       0.40448
     6  C(13)              0.00776       2.18172       0.77849       0.72774
     7  C(13)              0.00229       0.64454       0.22999       0.21500
     8  C(13)              0.00294       0.82645       0.29490       0.27567
     9  C(13)              0.00632       1.77660       0.63394       0.59261
    10  C(13)              0.00677       1.90235       0.67880       0.63455
    11  C(13)              0.00555       1.55958       0.55650       0.52022
    12  C(13)              0.01256       3.52908       1.25926       1.17718
    13  C(13)             -0.00183      -0.51552      -0.18395      -0.17196
    14  C(13)             -0.00538      -1.51225      -0.53961      -0.50443
    15  C(13)              0.01820       5.11575       1.82543       1.70643
    16  C(13)              0.00943       2.65136       0.94607       0.88440
    17  C(13)             -0.00039      -0.10873      -0.03880      -0.03627
    18  C(13)              0.00612       1.72047       0.61391       0.57389
    19  C(13)              0.00723       2.03196       0.72505       0.67779
    20  C(13)              0.00643       1.80605       0.64444       0.60243
    21  C(13)              0.00846       2.37644       0.84797       0.79270
    22  C(13)              0.01670       4.69269       1.67447       1.56531
    23  H(1)              -0.00269      -3.00653      -1.07281      -1.00287
    24  C(13)              0.01918       5.39000       1.92329       1.79791
    25  H(1)              -0.00286      -3.19243      -1.13914      -1.06488
    26  C(13)              0.02988       8.39749       2.99643       2.80110
    27  H(1)              -0.00400      -4.46555      -1.59342      -1.48955
    28  C(13)              0.02228       6.26049       2.23390       2.08828
    29  H(1)              -0.00321      -3.59091      -1.28133      -1.19780
    30  C(13)             -0.00170      -0.47772      -0.17046      -0.15935
    31  H(1)               0.00079       0.88678       0.31643       0.29580
    32  H(1)              -0.00004      -0.04060      -0.01449      -0.01354
    33  H(1)               0.00093       1.03619       0.36974       0.34564
    34  C(13)             -0.00165      -0.46448      -0.16574      -0.15493
    35  H(1)               0.00085       0.94762       0.33813       0.31609
    36  H(1)               0.00080       0.89534       0.31948       0.29865
    37  H(1)              -0.00005      -0.05204      -0.01857      -0.01736
    38  C(13)             -0.00249      -0.69926      -0.24951      -0.23325
    39  H(1)               0.00178       1.99326       0.71124       0.66488
    40  H(1)               0.00037       0.40913       0.14599       0.13647
    41  H(1)               0.00060       0.67501       0.24086       0.22516
    42  C(13)             -0.00772      -2.16932      -0.77407      -0.72361
    43  H(1)               0.00104       1.16364       0.41522       0.38815
    44  C(13)              0.00992       2.78767       0.99471       0.92987
    45  H(1)              -0.00110      -1.22539      -0.43725      -0.40875
    46  H(1)              -0.00111      -1.24262      -0.44340      -0.41449
    47  C(13)             -0.00504      -1.41575      -0.50517      -0.47224
    48  H(1)               0.00363       4.05532       1.44704       1.35271
    49  H(1)               0.00090       1.00863       0.35990       0.33644
    50  H(1)               0.00102       1.14494       0.40854       0.38191
    51  C(13)             -0.00755      -2.12201      -0.75719      -0.70783
    52  H(1)               0.00099       1.11128       0.39653       0.37068
    53  C(13)              0.01224       3.43985       1.22742       1.14741
    54  H(1)              -0.00138      -1.54706      -0.55203      -0.51605
    55  H(1)              -0.00142      -1.58949      -0.56717      -0.53020
    56  C(13)             -0.00295      -0.82964      -0.29604      -0.27674
    57  H(1)               0.00143       1.59640       0.56964       0.53250
    58  H(1)               0.00161       1.79698       0.64121       0.59941
    59  H(1)              -0.00000      -0.00004      -0.00001      -0.00001
    60  C(13)             -0.00279      -0.78390      -0.27972      -0.26148
    61  H(1)              -0.00002      -0.02705      -0.00965      -0.00902
    62  H(1)               0.00140       1.56724       0.55923       0.52278
    63  H(1)               0.00163       1.82250       0.65031       0.60792
    64  C(13)              0.14204      39.92121      14.24488      13.31628
    65  H(1)              -0.00161      -1.80432      -0.64383      -0.60186
    66  H(1)              -0.00055      -0.61834      -0.22064      -0.20626
    67  H(1)               0.00325       3.63045       1.29544       1.21099
    68  C(13)             -0.02586      -7.26687      -2.59300      -2.42397
    69  H(1)               0.07670      85.70998      30.58345      28.58977
    70  H(1)               0.03705      41.40448      14.77415      13.81105
    71  S(33)              0.00001       0.00057       0.00020       0.00019
    72  C(13)             -0.05252     -14.76057      -5.26694      -4.92360
    73  H(1)               0.10051     112.31779      40.07778      37.46518
    74  H(1)               0.10291     115.00256      41.03577      38.36072
    75  H(1)               0.07104      79.38353      28.32602      26.47949
    76  C(13)              0.00002       0.00435       0.00155       0.00145
    77  H(1)              -0.00000      -0.00041      -0.00014      -0.00014
    78  H(1)              -0.00003      -0.03475      -0.01240      -0.01159
    79  H(1)               0.00002       0.01966       0.00702       0.00656
    80  N(14)             -0.00026      -0.02061      -0.00735      -0.00687
    81  H(1)              -0.00007      -0.07521      -0.02684      -0.02509
    82  C(13)             -0.00023      -0.06365      -0.02271      -0.02123
    83  C(13)             -0.00091      -0.25478      -0.09091      -0.08499
    84  H(1)              -0.00003      -0.03368      -0.01202      -0.01123
    85  N(14)             -0.01137      -0.91857      -0.32777      -0.30640
    86  C(13)              0.00214       0.60056       0.21429       0.20033
    87  H(1)              -0.00007      -0.07877      -0.02811      -0.02627
 --------------------------------------------------------
       Center         ----  Spin Dipole Couplings  ----
                      3XX-RR        3YY-RR        3ZZ-RR
 --------------------------------------------------------
     1   Atom       -0.226010     -0.352150      0.578160
     2   Atom       -0.078371     -0.083846      0.162217
     3   Atom       -0.073296     -0.089826      0.163122
     4   Atom       -0.107950     -0.085597      0.193547
     5   Atom       -0.040192     -0.055041      0.095233
     6   Atom       -0.043788     -0.050594      0.094382
     7   Atom       -0.021653     -0.020521      0.042174
     8   Atom       -0.023046     -0.020696      0.043742
     9   Atom       -0.044967     -0.050275      0.095242
    10   Atom       -0.060033     -0.058096      0.118129
    11   Atom       -0.033126     -0.036718      0.069844
    12   Atom       -0.051074     -0.053785      0.104859
    13   Atom       -0.028022     -0.023761      0.051783
    14   Atom       -0.025496     -0.024201      0.049698
    15   Atom       -0.076697     -0.071684      0.148381
    16   Atom       -0.049066     -0.047677      0.096743
    17   Atom       -0.031583     -0.033565      0.065148
    18   Atom       -0.049003     -0.046588      0.095591
    19   Atom       -0.036199     -0.040305      0.076504
    20   Atom       -0.036737     -0.040923      0.077661
    21   Atom       -0.058390     -0.056948      0.115339
    22   Atom       -0.077623     -0.079378      0.157001
    23   Atom        0.011951     -0.008460     -0.003491
    24   Atom       -0.088363     -0.087546      0.175909
    25   Atom       -0.010000      0.013640     -0.003641
    26   Atom       -0.121512     -0.119173      0.240685
    27   Atom        0.014817     -0.010536     -0.004281
    28   Atom       -0.093941     -0.094783      0.188724
    29   Atom       -0.008462      0.012937     -0.004475
    30   Atom       -0.002616      0.005094     -0.002478
    31   Atom       -0.002790      0.005775     -0.002985
    32   Atom       -0.001662      0.003855     -0.002193
    33   Atom       -0.002345      0.004779     -0.002435
    34   Atom        0.000257      0.001887     -0.002144
    35   Atom        0.001931      0.001005     -0.002937
    36   Atom        0.001057      0.000858     -0.001916
    37   Atom        0.000010      0.002043     -0.002053
    38   Atom        0.002448      0.000548     -0.002996
    39   Atom        0.001734      0.001302     -0.003036
    40   Atom        0.000469      0.003020     -0.003488
    41   Atom        0.002679      0.000354     -0.003033
    42   Atom        0.019131     -0.004722     -0.014409
    43   Atom        0.006958     -0.003584     -0.003374
    44   Atom       -0.024023      0.010019      0.014004
    45   Atom        0.000174      0.001080     -0.001254
    46   Atom        0.006510     -0.002908     -0.003602
    47   Atom        0.001054      0.002763     -0.003817
    48   Atom        0.002127      0.001485     -0.003612
    49   Atom        0.003098      0.000610     -0.003708
    50   Atom        0.000200      0.003049     -0.003248
    51   Atom        0.000914      0.015387     -0.016301
    52   Atom       -0.002841      0.006516     -0.003675
    53   Atom       -0.010655     -0.030440      0.041096
    54   Atom        0.003209     -0.001345     -0.001865
    55   Atom       -0.004173      0.007300     -0.003128
    56   Atom        0.001918      0.000936     -0.002855
    57   Atom        0.000877      0.002178     -0.003055
    58   Atom        0.000653      0.002120     -0.002773
    59   Atom        0.002194      0.000200     -0.002394
    60   Atom        0.005180     -0.002813     -0.002367
    61   Atom        0.004203     -0.001938     -0.002266
    62   Atom        0.004453     -0.002302     -0.002151
    63   Atom        0.005611     -0.002571     -0.003040
    64   Atom        0.034348      0.013363     -0.047711
    65   Atom       -0.002020      0.004460     -0.002440
    66   Atom       -0.005661      0.000454      0.005207
    67   Atom        0.009423     -0.007420     -0.002003
    68   Atom       -0.023841     -0.025596      0.049437
    69   Atom       -0.002175     -0.006919      0.009094
    70   Atom       -0.001188     -0.002069      0.003256
    71   Atom        0.000190     -0.003407      0.003217
    72   Atom        0.004281      0.014603     -0.018883
    73   Atom       -0.008659     -0.013294      0.021953
    74   Atom       -0.010726      0.012101     -0.001375
    75   Atom        0.004538     -0.009901      0.005363
    76   Atom       -0.001229     -0.001281      0.002510
    77   Atom       -0.001095     -0.001285      0.002379
    78   Atom       -0.000997     -0.001084      0.002081
    79   Atom       -0.001024     -0.001036      0.002060
    80   Atom       -0.002919      0.000916      0.002003
    81   Atom       -0.001450     -0.001563      0.003013
    82   Atom       -0.001479     -0.002974      0.004452
    83   Atom       -0.003656     -0.000578      0.004234
    84   Atom       -0.001432     -0.003611      0.005043
    85   Atom        0.000188     -0.002940      0.002752
    86   Atom       -0.003736     -0.001963      0.005699
    87   Atom       -0.001730     -0.003562      0.005292
 --------------------------------------------------------
                        XY            XZ            YZ
 --------------------------------------------------------
     1   Atom       -0.080059     -0.274888     -0.087718
     2   Atom        0.004433      0.036839      0.019415
     3   Atom       -0.013721      0.038722     -0.035992
     4   Atom        0.010217      0.000829      0.030425
     5   Atom       -0.008550     -0.005812      0.014629
     6   Atom       -0.002290      0.013668     -0.006517
     7   Atom        0.002045      0.007454     -0.006461
     8   Atom        0.002476      0.010478     -0.003252
     9   Atom       -0.002590      0.014318     -0.008455
    10   Atom       -0.000371      0.013888     -0.023883
    11   Atom       -0.004031      0.008710     -0.015896
    12   Atom       -0.002899      0.011505     -0.024852
    13   Atom        0.001429      0.016027     -0.011767
    14   Atom       -0.001906     -0.004126      0.010605
    15   Atom       -0.001346     -0.024748      0.026257
    16   Atom       -0.001549     -0.020752      0.012267
    17   Atom       -0.001002      0.003417      0.016063
    18   Atom        0.002030      0.005160      0.010618
    19   Atom       -0.001213      0.016449      0.009125
    20   Atom       -0.001242      0.006274      0.008870
    21   Atom        0.000054      0.009329      0.009252
    22   Atom       -0.000752      0.022806      0.003636
    23   Atom        0.008237     -0.003694     -0.001309
    24   Atom       -0.000339      0.017197     -0.030848
    25   Atom       -0.009531      0.000631     -0.001190
    26   Atom        0.001661     -0.014498     -0.017587
    27   Atom        0.012104      0.003193      0.001136
    28   Atom        0.001625      0.010769      0.018651
    29   Atom       -0.010056      0.000586      0.000718
    30   Atom        0.001713     -0.000301     -0.001495
    31   Atom        0.000892     -0.000275      0.000235
    32   Atom        0.001699     -0.000349     -0.000870
    33   Atom        0.000356     -0.000184     -0.002593
    34   Atom        0.003733     -0.001079     -0.001140
    35   Atom        0.003857     -0.000152     -0.000046
    36   Atom        0.003164     -0.002239     -0.001884
    37   Atom        0.002905     -0.000727     -0.000910
    38   Atom       -0.004879      0.001536     -0.000938
    39   Atom       -0.004582     -0.000550      0.000952
    40   Atom       -0.004372      0.001090     -0.001404
    41   Atom       -0.003220      0.001030     -0.000949
    42   Atom        0.000491     -0.004228      0.017063
    43   Atom        0.000192      0.001507      0.000488
    44   Atom       -0.015203      0.016119     -0.047693
    45   Atom       -0.000862      0.001189      0.002289
    46   Atom        0.001929      0.001612     -0.001814
    47   Atom        0.003935      0.000670      0.001445
    48   Atom        0.003900     -0.001357     -0.000948
    49   Atom        0.003765      0.002109      0.001549
    50   Atom        0.003344      0.001334      0.000955
    51   Atom       -0.000152     -0.010309     -0.007398
    52   Atom       -0.000705     -0.000433      0.000209
    53   Atom        0.016560      0.054121      0.026199
    54   Atom       -0.000399     -0.002052      0.000940
    55   Atom       -0.002739      0.002576      0.000563
    56   Atom       -0.004069     -0.000491      0.000540
    57   Atom       -0.003781      0.000662     -0.000745
    58   Atom       -0.003369     -0.001611      0.001966
    59   Atom       -0.003296     -0.000610      0.000492
    60   Atom       -0.001153     -0.001425      0.000363
    61   Atom       -0.001519     -0.001118      0.000336
    62   Atom        0.000215     -0.003103     -0.000124
    63   Atom        0.000119      0.000159      0.000255
    64   Atom       -0.056341     -0.007687     -0.031395
    65   Atom        0.004542     -0.005368     -0.015211
    66   Atom       -0.006786     -0.001409      0.006216
    67   Atom       -0.000727      0.006009     -0.002282
    68   Atom       -0.023384     -0.020737     -0.019509
    69   Atom       -0.008495     -0.006432      0.010408
    70   Atom       -0.000804     -0.007532     -0.002777
    71   Atom       -0.005434     -0.001831      0.005327
    72   Atom       -0.011905      0.018704     -0.045108
    73   Atom        0.004654     -0.000092     -0.004321
    74   Atom        0.015201      0.002448     -0.012223
    75   Atom        0.005944      0.003238     -0.005120
    76   Atom        0.000036      0.000479      0.000207
    77   Atom        0.000080      0.000906      0.000315
    78   Atom       -0.000025      0.000454     -0.000202
    79   Atom        0.000031      0.000223      0.000363
    80   Atom       -0.001703     -0.001543      0.001455
    81   Atom        0.000065     -0.000802     -0.000382
    82   Atom        0.000283     -0.000047      0.000668
    83   Atom       -0.001919     -0.001799      0.000323
    84   Atom        0.000593     -0.001203     -0.000490
    85   Atom        0.000550      0.002249     -0.006142
    86   Atom        0.000630      0.001489      0.001502
    87   Atom        0.000901      0.001089      0.000694
 --------------------------------------------------------


 ---------------------------------------------------------------------------------
              Anisotropic Spin Dipole Couplings in Principal Axis System
 ---------------------------------------------------------------------------------

       Atom             a.u.   MegaHertz   Gauss  10(-4) cm-1        Axes

              Baa    -0.4380    -7.583    -2.706    -2.529  0.5866  0.7778  0.2258
     1 Fe(57) Bbb    -0.2287    -3.960    -1.413    -1.321  0.7566 -0.6257  0.1897
              Bcc     0.6667    11.543     4.119     3.850 -0.2889 -0.0596  0.9555
 
              Baa    -0.0863    -3.330    -1.188    -1.111 -0.5283  0.8490  0.0120
     2 N(14)  Bbb    -0.0830    -3.200    -1.142    -1.067  0.8361  0.5226 -0.1670
              Bcc     0.1693     6.529     2.330     2.178  0.1480  0.0782  0.9859
 
              Baa    -0.0984    -3.796    -1.354    -1.266  0.3964  0.9156  0.0673
     3 N(14)  Bbb    -0.0763    -2.942    -1.050    -0.981  0.9040 -0.3765 -0.2028
              Bcc     0.1747     6.737     2.404     2.247  0.1604 -0.1412  0.9769
 
              Baa    -0.1123    -4.331    -1.545    -1.445  0.9187 -0.3934  0.0366
     4 N(14)  Bbb    -0.0845    -3.261    -1.163    -1.088  0.3950  0.9131 -0.1011
              Bcc     0.1968     7.592     2.709     2.532  0.0063  0.1073  0.9942
 
              Baa    -0.0597    -2.304    -0.822    -0.768  0.3815  0.9215 -0.0727
     5 N(14)  Bbb    -0.0372    -1.436    -0.512    -0.479  0.9231 -0.3757  0.0820
              Bcc     0.0970     3.740     1.334     1.247 -0.0483  0.0984  0.9940
 
              Baa    -0.0513    -6.889    -2.458    -2.298  0.2588  0.9658  0.0189
     6 C(13)  Bbb    -0.0447    -5.997    -2.140    -2.000  0.9610 -0.2554 -0.1064
              Bcc     0.0960    12.886     4.598     4.298  0.0979 -0.0457  0.9941
 
              Baa    -0.0247    -3.309    -1.181    -1.104  0.7775 -0.6118 -0.1459
     7 C(13)  Bbb    -0.0190    -2.545    -0.908    -0.849  0.6192  0.7852  0.0075
              Bcc     0.0436     5.855     2.089     1.953  0.1099 -0.0961  0.9893
 
              Baa    -0.0262    -3.521    -1.257    -1.175  0.8663 -0.4758 -0.1518
     8 C(13)  Bbb    -0.0192    -2.580    -0.921    -0.861  0.4765  0.8785 -0.0339
              Bcc     0.0455     6.102     2.177     2.035  0.1495 -0.0430  0.9878
 
              Baa    -0.0514    -6.895    -2.460    -2.300  0.3316  0.9432  0.0220
     9 C(13)  Bbb    -0.0458    -6.148    -2.194    -2.051  0.9380 -0.3271 -0.1148
              Bcc     0.0972    13.043     4.654     4.351  0.1011 -0.0587  0.9931
 
              Baa    -0.0626    -8.406    -2.999    -2.804 -0.6811  0.7172  0.1471
    10 C(13)  Bbb    -0.0597    -8.013    -2.859    -2.673  0.7283  0.6844  0.0350
              Bcc     0.1224    16.419     5.859     5.477  0.0755 -0.1310  0.9885
 
              Baa    -0.0402    -5.396    -1.926    -1.800  0.3955  0.9129  0.1005
    11 C(13)  Bbb    -0.0327    -4.394    -1.568    -1.466  0.9144 -0.3811 -0.1367
              Bcc     0.0730     9.791     3.494     3.266  0.0865 -0.1460  0.9855
 
              Baa    -0.0578    -7.756    -2.768    -2.587  0.1878  0.9728  0.1354
    12 C(13)  Bbb    -0.0517    -6.941    -2.477    -2.315  0.9795 -0.1752 -0.0998
[...]
              Bcc     0.1904    25.545     9.115     8.521  0.0381  0.0654  0.9971
 
              Baa    -0.0125    -6.684    -2.385    -2.230  0.9245  0.3679 -0.1000
    29 H(1)   Bbb    -0.0044    -2.349    -0.838    -0.784  0.1007  0.0173  0.9948
              Bcc     0.0169     9.033     3.223     3.013 -0.3677  0.9297  0.0211
 
              Baa    -0.0030    -0.400    -0.143    -0.133  0.9731 -0.2195 -0.0706
    30 C(13)  Bbb    -0.0028    -0.370    -0.132    -0.124  0.1080  0.1632  0.9807
              Bcc     0.0057     0.770     0.275     0.257  0.2037  0.9619 -0.1825
 
              Baa    -0.0032    -1.728    -0.617    -0.576  0.6360 -0.0830  0.7672
    31 H(1)   Bbb    -0.0026    -1.405    -0.501    -0.469  0.7650 -0.0633 -0.6409
              Bcc     0.0059     3.133     1.118     1.045  0.1017  0.9945  0.0232
 
              Baa    -0.0024    -1.263    -0.451    -0.421  0.4210  0.0118  0.9070
    32 H(1)   Bbb    -0.0021    -1.121    -0.400    -0.374  0.8653 -0.3050 -0.3977
              Bcc     0.0045     2.383     0.850     0.795  0.2719  0.9523 -0.1386
 
              Baa    -0.0033    -1.747    -0.623    -0.583  0.0719  0.3028  0.9504
    33 H(1)   Bbb    -0.0024    -1.259    -0.449    -0.420  0.9962 -0.0691 -0.0534
              Bcc     0.0056     3.006     1.073     1.003  0.0495  0.9506 -0.3066
 
              Baa    -0.0028    -0.375    -0.134    -0.125  0.7719 -0.5296  0.3517
    34 C(13)  Bbb    -0.0024    -0.326    -0.116    -0.109 -0.1572  0.3770  0.9128
              Bcc     0.0052     0.701     0.250     0.234  0.6160  0.7598 -0.2078
 
              Baa    -0.0029    -1.573    -0.561    -0.525  0.0956 -0.0817  0.9921
    35 H(1)   Bbb    -0.0024    -1.285    -0.458    -0.429 -0.6567  0.7438  0.1245
              Bcc     0.0054     2.857     1.020     0.953  0.7481  0.6634 -0.0174
 
              Baa    -0.0031    -1.672    -0.597    -0.558  0.4026  0.1096  0.9088
    36 H(1)   Bbb    -0.0022    -1.158    -0.413    -0.386 -0.6207  0.7624  0.1830
              Bcc     0.0053     2.830     1.010     0.944  0.6728  0.6377 -0.3750
 
              Baa    -0.0023    -1.218    -0.435    -0.406  0.3200 -0.0156  0.9473
    37 H(1)   Bbb    -0.0020    -1.085    -0.387    -0.362  0.7562 -0.5981 -0.2653
              Bcc     0.0043     2.303     0.822     0.768  0.5707  0.8012 -0.1796
 
              Baa    -0.0037    -0.491    -0.175    -0.164  0.5908  0.5549 -0.5857
    38 C(13)  Bbb    -0.0031    -0.421    -0.150    -0.140  0.2650  0.5522  0.7904
              Bcc     0.0068     0.912     0.325     0.304  0.7621 -0.6222  0.1792
 
              Baa    -0.0034    -1.826    -0.652    -0.609 -0.3925 -0.5318  0.7504
    39 H(1)   Bbb    -0.0028    -1.496    -0.534    -0.499  0.5769  0.4931  0.6512
              Bcc     0.0062     3.322     1.185     1.108  0.7163 -0.6885 -0.1133
 
              Baa    -0.0038    -2.028    -0.724    -0.677 -0.1273  0.1210  0.9845
    40 H(1)   Bbb    -0.0028    -1.499    -0.535    -0.500  0.7963  0.6042  0.0287
              Bcc     0.0066     3.527     1.259     1.177 -0.5913  0.7876 -0.1733
 
              Baa    -0.0033    -1.756    -0.627    -0.586 -0.0600  0.2015  0.9777
    41 H(1)   Bbb    -0.0019    -1.005    -0.358    -0.335  0.5910  0.7964 -0.1279
              Bcc     0.0052     2.761     0.985     0.921  0.8044 -0.5702  0.1669
 
              Baa    -0.0276    -3.703    -1.321    -1.235  0.0785 -0.5972  0.7982
    42 C(13)  Bbb     0.0078     1.043     0.372     0.348  0.1807  0.7960  0.5778
              Bcc     0.0198     2.659     0.949     0.887  0.9804 -0.0988 -0.1704
 
              Baa    -0.0040    -2.159    -0.770    -0.720  0.0837  0.7076 -0.7016
    43 H(1)   Bbb    -0.0031    -1.672    -0.597    -0.558 -0.1177  0.7062  0.6982
              Bcc     0.0072     3.831     1.367     1.278  0.9895  0.0241  0.1424
 
              Baa    -0.0357    -4.794    -1.711    -1.599 -0.0282  0.7169  0.6966
    44 C(13)  Bbb    -0.0295    -3.961    -1.413    -1.321  0.9701  0.1876 -0.1537
              Bcc     0.0652     8.755     3.124     2.920  0.2409 -0.6715  0.7008
 
              Baa    -0.0033    -1.749    -0.624    -0.583 -0.3908 -0.4875  0.7808
    45 H(1)   Bbb     0.0008     0.421     0.150     0.140  0.9185 -0.1512  0.3653
              Bcc     0.0025     1.328     0.474     0.443 -0.0600  0.8599  0.5069
 
              Baa    -0.0056    -2.992    -1.068    -0.998 -0.2006  0.6411  0.7408
    46 H(1)   Bbb    -0.0014    -0.763    -0.272    -0.255 -0.0478  0.7489 -0.6610
              Bcc     0.0070     3.755     1.340     1.253  0.9785  0.1680  0.1196
 
              Baa    -0.0041    -0.554    -0.198    -0.185  0.0514 -0.2329  0.9711
    47 C(13)  Bbb    -0.0020    -0.275    -0.098    -0.092  0.7871 -0.5891 -0.1829
              Bcc     0.0062     0.829     0.296     0.276  0.6147  0.7738  0.1531
 
              Baa    -0.0039    -2.091    -0.746    -0.697  0.2039  0.0245  0.9787
    48 H(1)   Bbb    -0.0021    -1.110    -0.396    -0.370 -0.6543  0.7470  0.1176
              Bcc     0.0060     3.201     1.142     1.068  0.7282  0.6644 -0.1683
 
              Baa    -0.0044    -2.337    -0.834    -0.779 -0.1964 -0.1525  0.9686
    49 H(1)   Bbb    -0.0021    -1.126    -0.402    -0.376 -0.5879  0.8089  0.0082
              Bcc     0.0065     3.463     1.236     1.155  0.7847  0.5678  0.2485
 
              Baa    -0.0037    -1.980    -0.707    -0.661 -0.3561  0.0443  0.9334
    50 H(1)   Bbb    -0.0018    -0.969    -0.346    -0.323  0.7523 -0.5789  0.3145
              Bcc     0.0055     2.949     1.052     0.984  0.5543  0.8142  0.1728
 
              Baa    -0.0223    -2.999    -1.070    -1.000  0.3997  0.1779  0.8992
    51 C(13)  Bbb     0.0050     0.670     0.239     0.224  0.9040 -0.2392 -0.3545
              Bcc     0.0174     2.328     0.831     0.777  0.1520  0.9545 -0.2564
 
              Baa    -0.0039    -2.059    -0.735    -0.687  0.3957  0.0084  0.9183
    52 H(1)   Bbb    -0.0027    -1.448    -0.517    -0.483  0.9152  0.0789 -0.3951
              Bcc     0.0066     3.508     1.252     1.170 -0.0757  0.9969  0.0235
 
              Baa    -0.0448    -6.007    -2.144    -2.004  0.8468 -0.0063 -0.5318
    53 C(13)  Bbb    -0.0389    -5.215    -1.861    -1.739 -0.1343  0.9650 -0.2253
              Bcc     0.0836    11.222     4.004     3.743  0.5146  0.2622  0.8163
 
              Baa    -0.0030    -1.578    -0.563    -0.526  0.2581 -0.4382  0.8610
    54 H(1)   Bbb    -0.0011    -0.569    -0.203    -0.190  0.2624  0.8895  0.3740
              Bcc     0.0040     2.148     0.766     0.716  0.9298 -0.1294 -0.3446
 
              Baa    -0.0067    -3.589    -1.280    -1.197  0.7868  0.1774 -0.5911
    55 H(1)   Bbb    -0.0012    -0.637    -0.227    -0.213  0.5761  0.1323  0.8066
              Bcc     0.0079     4.226     1.508     1.410 -0.2213  0.9752 -0.0019
 
              Baa    -0.0029    -0.394    -0.141    -0.132 -0.1242 -0.2635  0.9566
    56 C(13)  Bbb    -0.0026    -0.355    -0.127    -0.119  0.6554  0.7020  0.2785
              Bcc     0.0056     0.750     0.268     0.250  0.7450 -0.6616 -0.0856
 
              Baa    -0.0032    -1.693    -0.604    -0.565 -0.0976  0.0693  0.9928
    57 H(1)   Bbb    -0.0023    -1.232    -0.439    -0.411  0.7619  0.6471  0.0297
              Bcc     0.0055     2.924     1.043     0.975 -0.6404  0.7593 -0.1160
 
              Baa    -0.0035    -1.891    -0.675    -0.631  0.1928 -0.2174  0.9568
    58 H(1)   Bbb    -0.0021    -1.099    -0.392    -0.367  0.7757  0.6310 -0.0129
              Bcc     0.0056     2.991     1.067     0.998 -0.6010  0.7447  0.2903
 
              Baa    -0.0025    -1.326    -0.473    -0.442  0.0089 -0.1698  0.9854
    59 H(1)   Bbb    -0.0022    -1.197    -0.427    -0.399  0.6027  0.7872  0.1302
              Bcc     0.0047     2.522     0.900     0.841  0.7979 -0.5928 -0.1094
 
              Baa    -0.0030    -0.408    -0.145    -0.136  0.0684  0.9309 -0.3589
    60 C(13)  Bbb    -0.0026    -0.345    -0.123    -0.115  0.2185  0.3370  0.9158
              Bcc     0.0056     0.753     0.269     0.251  0.9734 -0.1410 -0.1803
 
              Baa    -0.0025    -1.326    -0.473    -0.442  0.0698 -0.3734  0.9250
    61 H(1)   Bbb    -0.0023    -1.209    -0.431    -0.403  0.2705  0.8996  0.3428
              Bcc     0.0048     2.536     0.905     0.846  0.9602 -0.2263 -0.1638
 
              Baa    -0.0034    -1.804    -0.644    -0.602  0.3672  0.0337  0.9295
    62 H(1)   Bbb    -0.0023    -1.232    -0.439    -0.411 -0.0410  0.9990 -0.0200
              Bcc     0.0057     3.036     1.083     1.013  0.9292  0.0308 -0.3682
 
              Baa    -0.0032    -1.682    -0.600    -0.561 -0.0112 -0.3990  0.9169
    63 H(1)   Bbb    -0.0025    -1.314    -0.469    -0.438 -0.0213  0.9168  0.3987
              Bcc     0.0056     2.996     1.069     1.000  0.9997  0.0151  0.0188
 
              Baa    -0.0713    -9.571    -3.415    -3.193  0.3315  0.5139  0.7912
    64 C(13)  Bbb    -0.0115    -1.539    -0.549    -0.513 -0.5781 -0.5521  0.6008
              Bcc     0.0828    11.110     3.964     3.706  0.7456 -0.6566  0.1140
 
              Baa    -0.0148    -7.871    -2.809    -2.626  0.1204  0.5986  0.7920
    65 H(1)   Bbb    -0.0041    -2.207    -0.788    -0.736  0.9417 -0.3212  0.0996
              Bcc     0.0189    10.079     3.596     3.362  0.3140  0.7338 -0.6024
 
              Baa    -0.0104    -5.553    -1.981    -1.852  0.7923  0.5880 -0.1626
    66 H(1)   Bbb    -0.0007    -0.385    -0.137    -0.128  0.5253 -0.5219  0.6721
              Bcc     0.0111     5.938     2.119     1.981 -0.3104  0.6179  0.7224
 
              Baa    -0.0084    -4.481    -1.599    -1.495 -0.1049  0.9014  0.4202
    67 H(1)   Bbb    -0.0037    -1.990    -0.710    -0.664 -0.3954 -0.4255  0.8140
              Bcc     0.0121     6.471     2.309     2.158  0.9125 -0.0808  0.4011
 
              Baa    -0.0558    -7.488    -2.672    -2.498  0.6745  0.6906  0.2609
    68 C(13)  Bbb    -0.0013    -0.181    -0.065    -0.060  0.7113 -0.7025  0.0206
              Bcc     0.0572     7.669     2.737     2.558 -0.1975 -0.1717  0.9651
 
              Baa    -0.0145    -7.752    -2.766    -2.586  0.4558  0.8536 -0.2520
    69 H(1)   Bbb    -0.0042    -2.236    -0.798    -0.746  0.7813 -0.2481  0.5727
              Bcc     0.0187     9.988     3.564     3.332 -0.4263  0.4580  0.7801
 
              Baa    -0.0078    -4.151    -1.481    -1.385  0.7145  0.3847  0.5844
    70 H(1)   Bbb    -0.0014    -0.739    -0.264    -0.247 -0.4016  0.9095 -0.1076
              Bcc     0.0092     4.890     1.745     1.631 -0.5729 -0.1578  0.8043
 
              Baa    -0.0084    -0.344    -0.123    -0.115  0.4607  0.8320 -0.3090
    71 S(33)  Bbb    -0.0002    -0.008    -0.003    -0.003  0.7385 -0.1662  0.6535
              Bcc     0.0086     0.353     0.126     0.118 -0.4923  0.5293  0.6910
 
              Baa    -0.0517    -6.934    -2.474    -2.313 -0.1633  0.5349  0.8290
    72 C(13)  Bbb    -0.0028    -0.370    -0.132    -0.124  0.9096  0.4070 -0.0834
              Bcc     0.0544     7.304     2.606     2.436 -0.3820  0.7404 -0.5530
 
              Baa    -0.0165    -8.815    -3.145    -2.940 -0.5062  0.8571  0.0951
    73 H(1)   Bbb    -0.0060    -3.184    -1.136    -1.062  0.8621  0.5003  0.0803
              Bcc     0.0225    11.999     4.281     4.002 -0.0212 -0.1226  0.9922
 
              Baa    -0.0216   -11.524    -4.112    -3.844  0.7770 -0.4926 -0.3918
    74 H(1)   Bbb    -0.0022    -1.160    -0.414    -0.387  0.5233  0.1596  0.8371
              Bcc     0.0238    12.683     4.526     4.231  0.3499  0.8555 -0.3818
 
              Baa    -0.0139    -7.395    -2.639    -2.467 -0.3404  0.8928  0.2951
    75 H(1)   Bbb     0.0056     3.012     1.075     1.005  0.6599  0.4504 -0.6014
              Bcc     0.0082     4.383     1.564     1.462  0.6699  0.0100  0.7424
 
              Baa    -0.0013    -0.175    -0.062    -0.058 -0.6443  0.7638  0.0394
    76 C(13)  Bbb    -0.0013    -0.172    -0.061    -0.057  0.7545  0.6432 -0.1304
              Bcc     0.0026     0.346     0.124     0.116  0.1249  0.0543  0.9907
 
              Baa    -0.0013    -0.703    -0.251    -0.235  0.9022 -0.3883 -0.1879
    77 H(1)   Bbb    -0.0013    -0.699    -0.250    -0.233  0.3602  0.9178 -0.1669
              Bcc     0.0026     1.402     0.500     0.468  0.2373  0.0828  0.9679
 
              Baa    -0.0011    -0.585    -0.209    -0.195 -0.1121  0.9905  0.0791
    78 H(1)   Bbb    -0.0011    -0.567    -0.202    -0.189  0.9834  0.1220 -0.1342
              Bcc     0.0022     1.152     0.411     0.384  0.1426 -0.0627  0.9878
 
              Baa    -0.0011    -0.575    -0.205    -0.192 -0.1318  0.9857 -0.1047
    79 H(1)   Bbb    -0.0010    -0.555    -0.198    -0.185  0.9887  0.1230 -0.0857
              Bcc     0.0021     1.130     0.403     0.377  0.0716  0.1148  0.9908
 
              Baa    -0.0037    -0.144    -0.051    -0.048  0.9405  0.2882  0.1798
    80 N(14)  Bbb    -0.0000    -0.001    -0.000    -0.000 -0.1136  0.7658 -0.6329
              Bcc     0.0038     0.145     0.052     0.048 -0.3201  0.5749  0.7530
 
              Baa    -0.0016    -0.851    -0.304    -0.284  0.3080  0.9422  0.1318
    81 H(1)   Bbb    -0.0016    -0.848    -0.302    -0.283  0.9359 -0.3249  0.1361
              Bcc     0.0032     1.699     0.606     0.567 -0.1710 -0.0814  0.9819
 
              Baa    -0.0031    -0.414    -0.148    -0.138 -0.1757  0.9805 -0.0880
    82 C(13)  Bbb    -0.0014    -0.192    -0.068    -0.064  0.9844  0.1753 -0.0120
              Bcc     0.0045     0.605     0.216     0.202 -0.0036  0.0887  0.9961
 
              Baa    -0.0048    -0.648    -0.231    -0.216  0.9034  0.3956  0.1653
    83 C(13)  Bbb     0.0001     0.013     0.005     0.004 -0.3559  0.9069 -0.2255
              Bcc     0.0047     0.635     0.227     0.212 -0.2392  0.1449  0.9601
 
              Baa    -0.0038    -2.009    -0.717    -0.670 -0.2355  0.9716  0.0219
    84 H(1)   Bbb    -0.0015    -0.818    -0.292    -0.273  0.9549  0.2271  0.1916
              Bcc     0.0053     2.827     1.009     0.943 -0.1811 -0.0660  0.9812
 
              Baa    -0.0072    -0.280    -0.100    -0.093 -0.2248  0.8070  0.5461
    85 N(14)  Bbb     0.0002     0.007     0.003     0.002  0.9461  0.3148 -0.0758
              Bcc     0.0071     0.272     0.097     0.091  0.2331 -0.4996  0.8343
 
              Baa    -0.0040    -0.543    -0.194    -0.181  0.9709 -0.2097 -0.1159
    86 C(13)  Bbb    -0.0022    -0.293    -0.105    -0.098  0.1813  0.9592 -0.2170
              Bcc     0.0062     0.837     0.298     0.279  0.1567  0.1897  0.9693
 
              Baa    -0.0039    -2.101    -0.750    -0.701 -0.3665  0.9300 -0.0267
    87 H(1)   Bbb    -0.0016    -0.851    -0.304    -0.284  0.9168  0.3561 -0.1809
              Bcc     0.0055     2.952     1.053     0.985  0.1587  0.0908  0.9831
 

 ---------------------------------------------------------------------------------

 Unable to Open any file for archive entry.
 1\1\GINC-BGN1025\SP\UAPFD\Gen\C37H42Fe1N6S1(5)\BEBJONES\30-Mar-2024\0\
 \# apfd/gen scf=maxcycle=999 geom=check\\1cc5_II_Q\\0,5\Fe,0,-13.79416
 97251,-4.676859696,14.4193183729\N,0,-15.584799841,-3.7658148414,14.37
 07714449\N,0,-13.3641991094,-3.9915248017,12.6162990537\N,0,-12.028607
 0638,-5.5938831353,14.5703409978\N,0,-14.2649766074,-5.3703767977,16.2
 648025388\C,0,-16.6184200841,-3.887519573,15.2430830555\C,0,-17.765794
 0067,-3.1356873923,14.7893954334\C,0,-17.3957759294,-2.5430586377,13.6
 221603707\C,0,-16.0345521452,-2.9609739696,13.3684100361\C,0,-14.06687
 82147,-3.0744350923,11.8982808651\C,0,-13.3547762924,-2.7078484926,10.
 7022762379\C,0,-12.1879656739,-3.4281813414,10.7126430436\C,0,-12.2136
 464364,-4.2115619323,11.9329141781\C,0,-11.0714896186,-5.6146025003,13
 .6029699843\C,0,-9.8716887542,-6.251591399,14.0845981702\C,0,-10.11752
 2577,-6.5953083933,15.3876072949\C,0,-11.4869227026,-6.1959045412,15.6
 546805031\C,0,-13.4575531705,-6.0722927249,17.1012238475\C,0,-14.15621
 1522,-6.4215702025,18.3186245438\C,0,-15.4156597402,-5.9247432445,18.1
 902174846\C,0,-15.4583537157,-5.2569951507,16.9086012563\C,0,-16.57328
 63124,-4.5912237298,16.4336992512\H,0,-17.4604838627,-4.5970732743,17.
 0481179976\C,0,-15.3227085573,-2.6001841491,12.2404283701\H,0,-15.7922
 05374,-1.9019694326,11.5637905356\C,0,-11.172471545,-5.0153610063,12.3
 582304855\H,0,-10.3180928374,-5.1008668151,11.7035209306\C,0,-12.14339
 91988,-6.4178073207,16.8481595822\H,0,-11.6023730942,-6.9211551148,17.
 6343182474\C,0,-18.1901287498,-1.6628428472,12.7197024782\H,0,-17.6893
 50227,-0.7060628334,12.5719765771\H,0,-19.1761738043,-1.4713698507,13.
 1363359762\H,0,-18.3151866776,-2.1328795458,11.7438981637\C,0,-19.0629
 587463,-3.0623299953,15.5196351798\H,0,-18.9236641911,-2.6266693395,16
 .5093347705\H,0,-19.4891141952,-4.0577117808,15.6468791588\H,0,-19.778
 8230706,-2.4511601407,14.9753678847\C,0,-13.8478619552,-1.7756205466,9
 .6509862999\H,0,-13.5522329105,-0.7488996435,9.8704205533\H,0,-14.9330
 2536,-1.8043173776,9.5806915832\H,0,-13.4301681352,-2.0516064296,8.685
 3092476\C,0,-11.1213391267,-3.4602941312,9.7384773765\H,0,-10.59534622
 12,-4.4046288178,9.6549264671\C,0,-10.7432945041,-2.4485317305,8.96320
 29245\H,0,-11.1926234832,-1.4738232866,9.0287966108\H,0,-9.944772802,-
 2.5569227284,8.2480221201\C,0,-8.6448813573,-6.4997738537,13.278590508
 2\H,0,-7.9660493302,-5.6482801481,13.3320018424\H,0,-8.8942989307,-6.6
 651172486,12.2331783474\H,0,-8.1221257698,-7.3765033443,13.6543185015\
 C,0,-9.2493231432,-7.2528989257,16.3371695048\H,0,-9.7449247087,-7.871
 3112665,17.0762312209\C,0,-7.9247712314,-7.1474014718,16.3772001764\H,
 0,-7.3801271276,-6.5108629196,15.7030695076\H,0,-7.3392237672,-7.67570
 99091,17.1114657621\C,0,-13.5527182169,-7.1913933546,19.4426411691\H,0
 ,-12.6773653652,-6.6734341012,19.8351713402\H,0,-13.2377039306,-8.1788
 463069,19.1037922575\H,0,-14.2666720893,-7.3186389898,20.2529590064\C,
 0,-16.556431859,-5.9851905112,19.1478265124\H,0,-16.2930189359,-6.5722
 699588,20.0242743401\H,0,-17.4306451213,-6.4400131971,18.6815117992\H,
 0,-16.8327781555,-4.9830934071,19.4777195944\C,0,-13.3560992178,-2.568
 5097916,18.1139192046\H,0,-12.3453877529,-2.2152878933,18.3046621998\H
 ,0,-13.3565178891,-3.6530249586,18.1675959298\H,0,-14.0170750799,-2.18
 08351037,18.8865045365\C,0,-13.8265312496,-2.1091021622,16.7474882399\
 H,0,-13.7880916905,-1.0231650281,16.6697507816\H,0,-14.835107665,-2.45
 96614416,16.5382554439\S,0,-12.7160512287,-2.776949653,15.4415568178\C
 ,0,-12.7745049748,-1.3633810965,14.2962557424\H,0,-12.3668056306,-0.48
 88004201,14.7965980068\H,0,-13.7962639119,-1.1899833332,13.973693511\H
 ,0,-12.1569448381,-1.6210683298,13.4423267612\C,0,-14.8178055417,-9.23
 19771789,11.3495070559\H,0,-13.8843889597,-9.164635352,10.7997090144\H
 ,0,-15.6445533264,-9.1917317239,10.6401327797\H,0,-14.8538416936,-10.1
 945332259,11.8597722417\N,0,-15.9853906517,-7.9489256854,13.1523689564
 \H,0,-16.7993640638,-8.5401874181,13.1841458158\C,0,-14.9060220392,-8.
 1153279171,12.3243204255\C,0,-15.7578476761,-6.8506696339,13.906315883
 8\H,0,-16.4360389206,-6.4787311502,14.6458027637\N,0,-14.6019615988,-6
 .3113172332,13.6068013119\C,0,-14.0597251382,-7.0868172533,12.62485756
 39\H,0,-13.1035723492,-6.8555923743,12.2040901357\\Version=ES64L-G16Re
 vC.02\State=5-A\HF=-3074.4174483\S2=6.025034\S2-1=0.\S2A=6.000228\RMSD
 =9.964e-09\Dipole=4.563243,2.0757231,3.1502475\Quadrupole=24.2618792,-
 11.8290037,-12.4328755,41.5634521,24.1581507,19.3525339\PG=C01 [X(C37H
 42Fe1N6S1)]\\@
 The archive entry for this job was punched.


 WHEN HAVING A MEETING OF THE MINDS,
 MAKE SURE YOU HAVE THE EQUIPMENT FOR IT.
 Job cpu time:       0 days  2 hours 44 minutes  8.1 seconds.
 Elapsed time:       0 days  0 hours  2 minutes 48.1 seconds.
 File lengths (MBytes):  RWF=    481 Int=      0 D2E=      0 Chk=    227 Scr=      1
 Normal termination of Gaussian 16 at Sat Mar 30 22:27:10 2024.
