 Entering Gaussian System, Link 0=g16
 Input=1ccb16re.com
 Output=1ccb16re.log
 Initial command:
 /sw/chem/gaussian/g16_C02/a100/g16/l1.exe "/local/bebjones_7859754/Gau-54808.inp" -scrdir="/local/bebjones_7859754/"
 Entering Link 1 = /sw/chem/gaussian/g16_C02/a100/g16/l1.exe PID=     54809.
  
 Copyright (c) 1988-2021, Gaussian, Inc.  All Rights Reserved.
  
 This is part of the Gaussian(R) 16 program.  It is based on
 the Gaussian(R) 09 system (copyright 2009, Gaussian, Inc.),
 the Gaussian(R) 03 system (copyright 2003, Gaussian, Inc.),
 the Gaussian(R) 98 system (copyright 1998, Gaussian, Inc.),
 the Gaussian(R) 94 system (copyright 1995, Gaussian, Inc.),
 the Gaussian 92(TM) system (copyright 1992, Gaussian, Inc.),
 the Gaussian 90(TM) system (copyright 1990, Gaussian, Inc.),
 the Gaussian 88(TM) system (copyright 1988, Gaussian, Inc.),
 the Gaussian 86(TM) system (copyright 1986, Carnegie Mellon
 University), and the Gaussian 82(TM) system (copyright 1983,
 Carnegie Mellon University). Gaussian is a federally registered
 trademark of Gaussian, Inc.
  
 This software contains proprietary and confidential information,
 including trade secrets, belonging to Gaussian, Inc.
  
 This software is provided under written license and may be
 used, copied, transmitted, or stored only in accord with that
 written license.
  
 The following legend is applicable only to US Government
 contracts under FAR:
  
                    RESTRICTED RIGHTS LEGEND
  
 Use, reproduction and disclosure by the US Government is
 subject to restrictions as set forth in subparagraphs (a)
 and (c) of the Commercial Computer Software - Restricted
 Rights clause in FAR 52.227-19.
  
 Gaussian, Inc.
 340 Quinnipiac St., Bldg. 40, Wallingford CT 06492
  
  
 ---------------------------------------------------------------
 Warning -- This program may not be used in any manner that
 competes with the business of Gaussian, Inc. or will provide
 assistance to any competitor of Gaussian, Inc.  The licensee
 of this program is prohibited from giving any competitor of
 Gaussian, Inc. access to this program.  By using this program,
 the user acknowledges that Gaussian, Inc. is engaged in the
 business of creating and licensing software in the field of
 computational chemistry and represents and warrants to the
 licensee that it is not a competitor of Gaussian, Inc. and that
 it will not use this program in any manner prohibited above.
 ---------------------------------------------------------------
  

 Cite this work as:
 Gaussian 16, Revision C.02,
 M. J. Frisch, G. W. Trucks, H. B. Schlegel, G. E. Scuseria, 
 M. A. Robb, J. R. Cheeseman, G. Scalmani, V. Barone, 
 G. A. Petersson, H. Nakatsuji, X. Li, M. Caricato, A. V. Marenich, 
 J. Bloino, B. G. Janesko, R. Gomperts, B. Mennucci, H. P. Hratchian, 
 J. V. Ortiz, A. F. Izmaylov, J. L. Sonnenberg, D. Williams-Young, 
 F. Ding, F. Lipparini, F. Egidi, J. Goings, B. Peng, A. Petrone, 
 T. Henderson, D. Ranasinghe, V. G. Zakrzewski, J. Gao, N. Rega, 
 G. Zheng, W. Liang, M. Hada, M. Ehara, K. Toyota, R. Fukuda, 
 J. Hasegawa, M. Ishida, T. Nakajima, Y. Honda, O. Kitao, H. Nakai, 
 T. Vreven, K. Throssell, J. A. Montgomery, Jr., J. E. Peralta, 
 F. Ogliaro, M. J. Bearpark, J. J. Heyd, E. N. Brothers, K. N. Kudin, 
 V. N. Staroverov, T. A. Keith, R. Kobayashi, J. Normand, 
 K. Raghavachari, A. P. Rendell, J. C. Burant, S. S. Iyengar, 
 J. Tomasi, M. Cossi, J. M. Millam, M. Klene, C. Adamo, R. Cammi, 
 J. W. Ochterski, R. L. Martin, K. Morokuma, O. Farkas, 
 J. B. Foresman, and D. J. Fox, Gaussian, Inc., Wallingford CT, 2019.
 
 ******************************************
 Gaussian 16:  ES64L-G16RevC.02  7-Dec-2021
                15-May-2024 
 ******************************************
 %mem=16GB
 %CPU=0-71
 SetSPE:  set environment variable "OMP_PROC_BIND" = "true"
 SetSPE:  set environment variable "OMP_PLACES" = "{0},{1},{2},{3},{4},{5},{6},{7},{8},{9},{10},{11},{12},{13},{14},{15},{16},{17},{18},{19},{20},{21},{22},{23},{24},{25},{26},{27},{28},{29},{30},{31},{32},{33},{34},{35},{36},{37},{38},{39},{40},{41},{42},{43},{44},{45},{46},{47},{48},{49},{50},{51},{52},{53},{54},{55},{56},{57},{58},{59},{60},{61},{62},{63},{64},{65},{66},{67},{68},{69},{70},{71}"
 Will use up to   72 processors via shared memory.
 %gpucpu=0,1,2,3=0,1,2,3
 Will use    4 GPUs:
 Thread  CPU   GPU
      0    0     0
      1    1     1
      2    2     2
      3    3     3
      4    4    -1
      5    5    -1
      6    6    -1
      7    7    -1
      8    8    -1
      9    9    -1
     10   10    -1
     11   11    -1
     12   12    -1
     13   13    -1
     14   14    -1
     15   15    -1
     16   16    -1
     17   17    -1
     18   18    -1
     19   19    -1
     20   20    -1
     21   21    -1
     22   22    -1
     23   23    -1
     24   24    -1
     25   25    -1
     26   26    -1
     27   27    -1
     28   28    -1
     29   29    -1
     30   30    -1
     31   31    -1
     32   32    -1
     33   33    -1
     34   34    -1
     35   35    -1
     36   36    -1
     37   37    -1
     38   38    -1
     39   39    -1
     40   40    -1
     41   41    -1
     42   42    -1
     43   43    -1
     44   44    -1
     45   45    -1
     46   46    -1
     47   47    -1
     48   48    -1
     49   49    -1
     50   50    -1
     51   51    -1
     52   52    -1
     53   53    -1
     54   54    -1
     55   55    -1
     56   56    -1
     57   57    -1
     58   58    -1
     59   59    -1
     60   60    -1
     61   61    -1
     62   62    -1
     63   63    -1
     64   64    -1
     65   65    -1
     66   66    -1
     67   67    -1
     68   68    -1
     69   69    -1
     70   70    -1
     71   71    -1
 SetGPE:  set environment variable "OMP_PROC_BIND" = "true"
 SetGPE:  set environment variable "OMP_PLACES" = "{0},{1},{2},{3},{4},{5},{6},{7},{8},{9},{10},{11},{12},{13},{14},{15},{16},{17},{18},{19},{20},{21},{22},{23},{24},{25},{26},{27},{28},{29},{30},{31},{32},{33},{34},{35},{36},{37},{38},{39},{40},{41},{42},{43},{44},{45},{46},{47},{48},{49},{50},{51},{52},{53},{54},{55},{56},{57},{58},{59},{60},{61},{62},{63},{64},{65},{66},{67},{68},{69},{70},{71}"
 %oldchk=1ccb_III_D.chk
 %chk=1ccb_III_Dre.chk
 Properties for Device   0
 Minimum vector length:                              32
 Maximum vector length:                            1024
 Number of SMPs:                                    108
 Maximum number of threads per SMP:                2048
 Number of ASync Engines:                             5
 Memory:                                           9192980480
 Properties for Device   1
 Minimum vector length:                              32
 Maximum vector length:                            1024
 Number of SMPs:                                    108
 Maximum number of threads per SMP:                2048
 Number of ASync Engines:                             5
 Memory:                                           9192980480
 Properties for Device   2
 Minimum vector length:                              32
 Maximum vector length:                            1024
 Number of SMPs:                                    108
 Maximum number of threads per SMP:                2048
 Number of ASync Engines:                             5
 Memory:                                           9192980480
 Properties for Device   3
 Minimum vector length:                              32
 Maximum vector length:                            1024
 Number of SMPs:                                    108
 Maximum number of threads per SMP:                2048
 Number of ASync Engines:                             5
 Memory:                                           9192980480
   8273682432 words of memory will be used on each GPU.
 Copying data from "1ccb_III_D.chk" to current chk file "1ccb_III_Dre.chk"
 IOpt=  2 FromEx=T IUOpen= 4 IOptOp= 5 NList=   0 IFRang= 0 IUIn= 4 IUOut= 2.
 --------------------------------------
 # apfd/gen scf=maxcycle=999 geom=check
 --------------------------------------
 1/29=2,38=1,172=1/1;
 2/12=2,40=1/2;
 3/5=7,11=2,14=-4,25=1,30=1,74=-44/1,2,3;
 4//1;
 5/5=2,7=999,38=5/2;
 6/7=2,8=2,9=2,10=2,28=1/1;
 99/5=1,9=1/99;
 ----------
 1ccb_III_H
 ----------
 Structure from the checkpoint file:  "1ccb_III_Dre.chk"
 Charge =  1 Multiplicity = 6
 Z-Matrix found in chk file.
 Fe,0,-5.6566076589,57.5058592935,111.6197351673
 N,0,-6.6998600007,56.4441663255,112.9447276682
 N,0,-6.6250309352,59.1539350211,112.1740085659
 N,0,-4.4445371904,58.6198789457,110.4671748674
 N,0,-4.6460669758,55.8843258542,111.111600705
 C,0,-6.6161283419,55.104964824,113.1691418026
 C,0,-7.5164446557,54.7050803548,114.2267607169
 C,0,-8.1705949932,55.8315720502,114.6184902041
 C,0,-7.6416469209,56.9084144685,113.8127849973
 C,0,-7.6078585032,59.2546451166,113.1125706993
 C,0,-8.1836656431,60.5760191258,113.1191743407
 C,0,-7.4669215309,61.3101552003,112.214306025
 C,0,-6.4875274382,60.4014561914,111.6494758473
 C,0,-4.5612805092,59.9508371337,110.207888215
 C,0,-3.5149194788,60.3995701869,109.3304862406
 C,0,-2.7242031245,59.3046438894,109.0811782449
 C,0,-3.3733617871,58.1923636084,109.7509376382
 C,0,-3.6289123425,55.801321669,110.2125087949
 C,0,-3.3210672609,54.4187726403,109.9147785356
 C,0,-4.1138566635,53.6686292292,110.7248974859
 C,0,-4.9158730969,54.6029862563,111.4839719492
 C,0,-5.8087342758,54.229326297,112.4687706358
 H,0,-5.8802265404,53.1802669595,112.7104106269
 C,0,-8.0635267366,58.2185163992,113.9074957348
 H,0,-8.8296291572,58.4436266443,114.6329059068
 C,0,-5.5319722062,60.7849346935,110.73405791
 H,0,-5.5168059889,61.8220179384,110.4361152275
 C,0,-2.9868136885,56.8720464185,109.624113132
 H,0,-2.1447561958,56.6475493558,108.9882189802
 C,0,-9.2113915632,56.0046695158,115.6705409287
 H,0,-9.4293508193,55.0581143262,116.1585919099
 H,0,-10.1353445707,56.3863399082,115.235940542
 H,0,-8.8762320585,56.7134214919,116.4281029232
 C,0,-7.6562975927,53.308779836,114.7269823637
 H,0,-6.6959381475,52.9323390343,115.0793607342
 H,0,-8.0073275592,52.6494438601,113.9329804451
 H,0,-8.3658941922,53.2620759347,115.549149434
 C,0,-9.3558538932,60.9935759019,113.9357429888
 H,0,-9.0551210528,61.229922297,114.9578429447
 H,0,-10.0971547986,60.1970930986,113.9769867551
 H,0,-9.8179202905,61.8773270028,113.5002950061
 C,0,-7.6296000547,62.693829223,111.8222806999
 H,0,-7.4272209893,62.9122571929,110.7798055409
 C,0,-7.9917758421,63.6819156739,112.633511863
 H,0,-8.157848417,63.5233476393,113.6848515404
 H,0,-8.1089883019,64.6919998063,112.2774266378
 C,0,-3.4108949906,61.7775103198,108.7735053427
 H,0,-2.9065580809,62.4553350458,109.4653998549
 H,0,-4.4026359549,62.1817224468,108.5776373097
 H,0,-2.8577021094,61.7631994676,107.8370710324
 C,0,-1.5366295055,59.1940282093,108.2715924969
 H,0,-1.3207429264,58.2014508171,107.8963951626
 C,0,-0.689523789,60.1731152996,107.9615965668
 H,0,-0.8049842219,61.1812442158,108.318964008
 H,0,0.1689229313,59.9896736314,107.33666268
 C,0,-2.2967383336,53.9812034477,108.9252640388
 H,0,-1.3044311432,54.3190555271,109.2259801581
 H,0,-2.5133280898,54.3978950316,107.9417374659
 H,0,-2.2778128337,52.8973818688,108.8421032001
 C,0,-4.2056078517,52.1872289912,110.8521711611
 H,0,-3.5314572069,51.6970122001,110.1543900818
 H,0,-5.2206589563,51.8468358981,110.6478549307
 H,0,-3.9406019775,51.8733612983,111.8621069618
 C,0,0.9684883567,59.9612913754,110.9605039213
 H,0,1.7407262769,60.2582218552,111.673870147
 H,0,0.9811140924,60.6596164465,110.1257076565
 H,0,1.2110213407,58.9687243025,110.5884734913
 N,0,-1.1873826511,61.0415806193,111.6536435014
 H,0,-1.0046486695,61.9292567149,111.2157229247
 C,0,-0.3669677063,59.943876116,111.6079709956
 C,0,-2.2989682972,60.6876694997,112.3371720358
 H,0,-3.1228093409,61.3470626458,112.5236478972
 N,0,-2.2332547704,59.4489018979,112.7394703522
 C,0,-1.0410994782,58.9689490864,112.288433412
 H,0,-0.7485277045,57.9590375017,112.4858771605
 O,0,-4.2290000004,57.779,113.2519999995
 H,0,-4.5109999996,57.369000001,114.0700000004
 H,0,-3.5430000022,58.3349999996,113.152
 Recover connectivity data from disk.
 Stoichiometry    C34H36FeN6O(1+,6)
 Framework group  C1[X(C34H36FeN6O)]
 Deg. of freedom   228
 Full point group                 C1      NOp   1
 Largest Abelian subgroup         C1      NOp   1
 Largest concise Abelian subgroup C1      NOp   1
                         Standard orientation:                         
 ---------------------------------------------------------------------
 Center     Atomic      Atomic             Coordinates (Angstroms)
 Number     Number       Type             X           Y           Z
 ---------------------------------------------------------------------
      1         26           0       -0.806011   -0.171327   -0.487047
      2          7           0       -2.711862   -0.392952    0.051271
      3          7           0       -1.016210    1.806885   -0.426151
      4          7           0        1.167484    0.059445   -0.788065
      5          7           0       -0.574094   -2.134736   -0.485362
      6          6           0       -3.385510   -1.563414    0.215743
      7          6           0       -4.746857   -1.317017    0.634143
      8          6           0       -4.890894    0.034424    0.690790
      9          6           0       -3.607838    0.594248    0.331763
     10          6           0       -2.146996    2.505499   -0.125730
     11          6           0       -1.957501    3.917053   -0.347617
     12          6           0       -0.648506    4.074583   -0.712558
     13          6           0       -0.078006    2.741216   -0.737842
     14          6           0        1.829389    1.229636   -0.999822
     15          6           0        3.236115    1.000615   -1.186204
     16          6           0        3.428419   -0.352319   -1.048948
     17          6           0        2.104335   -0.919724   -0.870051
     18          6           0        0.571660   -2.824367   -0.733390
     19          6           0        0.293387   -4.234693   -0.901910
     20          6           0       -1.034375   -4.393146   -0.658063
     21          6           0       -1.553807   -3.073356   -0.373820
     22          6           0       -2.862542   -2.821819   -0.012443
     23          1           0       -3.523497   -3.666853    0.101935
     24          6           0       -3.351362    1.948115    0.264049
     25          1           0       -4.161015    2.620635    0.500662
     26          6           0        1.248785    2.485687   -1.007030
     27          1           0        1.889158    3.332751   -1.199244
     28          6           0        1.832150   -2.274048   -0.848564
     29          1           0        2.655775   -2.960239   -0.969416
     30          6           0       -6.084931    0.844617    1.062129
     31          1           0       -6.924187    0.202455    1.316971
     32          1           0       -6.384568    1.486797    0.233840
     33          1           0       -5.864892    1.480243    1.920106
     34          6           0       -5.745048   -2.386414    0.915995
     35          1           0       -5.376663   -3.056216    1.693059
     36          1           0       -5.936281   -2.979120    0.021280
     37          1           0       -6.686527   -1.957908    1.250161
     38          6           0       -3.021953    4.950909   -0.232518
     39          1           0       -3.175548    5.238591    0.808940
     40          1           0       -3.966182    4.573458   -0.621844
     41          1           0       -2.742398    5.838440   -0.796676
     42          6           0        0.067394    5.283864   -1.058722
     43          1           0        0.817915    5.178288   -1.833960
     44          6           0       -0.125010    6.474009   -0.500048
     45          1           0       -0.824693    6.618660    0.304663
     46          1           0        0.432116    7.341926   -0.811714
     47          6           0        4.226169    2.057580   -1.536039
     48          1           0        4.588698    2.580452   -0.648515
     49          1           0        3.772799    2.797038   -2.194036
     50          1           0        5.077380    1.618792   -2.051830
     51          6           0        4.645064   -1.120788   -1.133957
     52          1           0        4.518548   -2.163918   -1.395608
     53          6           0        5.881906   -0.682117   -0.910151
     54          1           0        6.098829    0.328266   -0.611090
     55          1           0        6.731746   -1.336886   -1.011010
     56          6           0        1.321179   -5.258257   -1.242228
     57          1           0        2.073292   -5.322620   -0.455189
     58          1           0        1.825439   -4.998420   -2.172858
     59          1           0        0.866117   -6.238477   -1.360684
     60          6           0       -1.858752   -5.633827   -0.674701
     61          1           0       -1.255047   -6.495175   -0.949126
     62          1           0       -2.674971   -5.542420   -1.391201
     63          1           0       -2.291384   -5.818323    0.308916
     64          6           0        5.582375   -0.966746    2.498160
     65          1           0        5.954826   -0.889486    3.522232
     66          1           0        6.318107   -0.526232    1.827826
     67          1           0        5.474143   -2.020590    2.252970
     68          7           0        4.157324    1.045699    2.034976
     69          1           0        4.918842    1.661175    1.801706
     70          6           0        4.273172   -0.280982    2.361501
     71          6           0        2.839217    1.346728    2.026952
     72          1           0        2.447835    2.317157    1.795926
     73          7           0        2.114419    0.308608    2.339491
     74          6           0        2.989912   -0.714501    2.543899
     75          1           0        2.638851   -1.689286    2.810459
     76          8           0       -0.396600   -0.207882    1.659579
     77          1           0       -1.189039   -0.282796    2.191723
     78          1           0        0.421703   -0.030737    1.957457
 ---------------------------------------------------------------------
 Rotational constants (GHZ):           0.0998776           0.0804333           0.0518844
 General basis read from cards:  (5D, 7F)
 There are   723 symmetry adapted cartesian basis functions of A   symmetry.
 There are   679 symmetry adapted basis functions of A   symmetry.
   679 basis functions,  1378 primitive gaussians,   723 cartesian basis functions
   160 alpha electrons      155 beta electrons
       nuclear repulsion energy      5844.2680024946 Hartrees.
 NAtoms=   78 NActive=   78 NUniq=   78 SFac= 1.00D+00 NAtFMM=   60 NAOKFM=T Big=T
 Integral buffers will be    131072 words long.
 Raffenetti 2 integral format.
 Two-electron integral symmetry is turned on.
 R6APFD:  NTU= -4 IXU= 1 FactS= 1.050
 Nuclear repulsion after empirical dispersion term =     5844.1222134063 Hartrees.
 One-electron integrals computed using PRISM.
 NBasis=   679 RedAO= T EigKep=  2.58D-04  NBF=   679
 NBsUse=   679 1.00D-06 EigRej= -1.00D+00 NBFU=   679
 ExpMin= 4.20D-02 ExpMax= 3.01D+05 ExpMxC= 2.91D+03 IAcc=3 IRadAn=         5 AccDes= 0.00D+00
 Harris functional with IExCor= 3731 and IRadAn=       5 diagonalized for initial guess.
 HarFok:  IExCor= 3731 AccDes= 0.00D+00 IRadAn=         5 IDoV= 1 UseB2=F ITyADJ=14
 ICtDFT=  3500011 ScaDFX=  1.000000  1.000000  1.000000  1.000000
 FoFCou: FMM=F IPFlag=           0 FMFlag=      100000 FMFlg1=        2001
         NFxFlg=           0 DoJE=T BraDBF=F KetDBF=T FulRan=T
         wScrn=  0.000000 ICntrl=       500 IOpCl=  0 I1Cent=   200000004 NGrid=           0
         NMat0=    1 NMatS0=      1 NMatT0=    0 NMatD0=    1 NMtDS0=    0 NMtDT0=    0
 Petite list used in FoFCou.
 Initial guess <Sx>= 0.0000 <Sy>= 0.0000 <Sz>= 2.5000 <S**2>= 8.7500 S= 2.5000
 Requested convergence on RMS density matrix=1.00D-08 within 999 cycles.
 Requested convergence on MAX density matrix=1.00D-06.
 Requested convergence on             energy=1.00D-06.
 No special actions if energy rises.
 EnCoef did   100 forward-backward iterations
 EnCoef did   100 forward-backward iterations
 EnCoef did   100 forward-backward iterations
 EnCoef did     3 forward-backward iterations
 EnCoef did     1 forward-backward iterations
 EnCoef did    13 forward-backward iterations
 EnCoef did     6 forward-backward iterations
 Restarting incremental Fock formation.
 Rare condition: small coef for last iteration:  0.000D+00
 Rare condition: small coef for last iteration:  0.000D+00
 Rare condition: small coef for last iteration:  0.000D+00
 Rare condition: small coef for last iteration:  0.000D+00
 Rare condition: small coef for last iteration:  0.000D+00
 Rare condition: small coef for last iteration:  0.000D+00
 Rare condition: small coef for last iteration:  0.000D+00
 EnCoef did   100 forward-backward iterations
 Rare condition: small coef for last iteration:  0.000D+00
 Rare condition: small coef for last iteration:  0.000D+00
 Rare condition: small coef for last iteration:  0.000D+00
 EnCoef did   100 forward-backward iterations
 Rare condition: small coef for last iteration:  0.000D+00
 Restarting incremental Fock formation.
 Rare condition: small coef for last iteration:  0.000D+00
 Rare condition: small coef for last iteration:  0.000D+00
 Rare condition: small coef for last iteration:  0.000D+00
 Rare condition: small coef for last iteration:  0.000D+00
 Rare condition: small coef for last iteration:  0.000D+00
 Rare condition: small coef for last iteration:  0.000D+00
 Restarting incremental Fock formation.
 Rare condition: small coef for last iteration:  0.000D+00
 Rare condition: small coef for last iteration:  0.000D+00
 Rare condition: small coef for last iteration:  0.000D+00
 Rare condition: small coef for last iteration:  0.000D+00
 Rare condition: small coef for last iteration:  0.000D+00
 Rare condition: small coef for last iteration:  0.000D+00
 Rare condition: small coef for last iteration:  0.000D+00
 Rare condition: small coef for last iteration:  0.000D+00
 Rare condition: small coef for last iteration:  0.000D+00
 Restarting incremental Fock formation.
 Rare condition: small coef for last iteration:  0.000D+00
 Rare condition: small coef for last iteration:  0.000D+00
 Rare condition: small coef for last iteration:  0.000D+00
 Rare condition: small coef for last iteration:  0.000D+00
 Rare condition: small coef for last iteration:  0.000D+00
 Restarting incremental Fock formation.
 Rare condition: small coef for last iteration:  0.000D+00
 Rare condition: small coef for last iteration:  0.000D+00
 Rare condition: small coef for last iteration:  0.000D+00
 Rare condition: small coef for last iteration:  0.000D+00
 Rare condition: small coef for last iteration:  0.000D+00
 Rare condition: small coef for last iteration:  0.000D+00
 Rare condition: small coef for last iteration:  0.000D+00
 Rare condition: small coef for last iteration:  0.000D+00
 Rare condition: small coef for last iteration:  0.000D+00
 Rare condition: small coef for last iteration:  0.000D+00
 Rare condition: small coef for last iteration:  0.000D+00
 EnCoef did   100 forward-backward iterations
 EnCoef did   100 forward-backward iterations
 Rare condition: small coef for last iteration:  0.280D-15
 Restarting incremental Fock formation.
 Rare condition: small coef for last iteration:  0.000D+00
 Rare condition: small coef for last iteration:  0.000D+00
 Rare condition: small coef for last iteration:  0.000D+00
 Rare condition: small coef for last iteration:  0.000D+00
 Rare condition: small coef for last iteration:  0.000D+00
 Rare condition: small coef for last iteration:  0.000D+00
 Rare condition: small coef for last iteration:  0.000D+00
 Rare condition: small coef for last iteration:  0.000D+00
 Rare condition: small coef for last iteration:  0.000D+00
 Rare condition: small coef for last iteration:  0.000D+00
 Restarting incremental Fock formation.
 Rare condition: small coef for last iteration:  0.000D+00
 Rare condition: small coef for last iteration:  0.000D+00
 Rare condition: small coef for last iteration:  0.000D+00
 Rare condition: small coef for last iteration:  0.000D+00
 Rare condition: small coef for last iteration:  0.000D+00
 Rare condition: small coef for last iteration:  0.000D+00
 Rare condition: small coef for last iteration:  0.000D+00
 Rare condition: small coef for last iteration:  0.000D+00
 Rare condition: small coef for last iteration:  0.000D+00
 Rare condition: small coef for last iteration:  0.000D+00
 Rare condition: small coef for last iteration:  0.000D+00
 Rare condition: small coef for last iteration:  0.000D+00
 Restarting incremental Fock formation.
 Rare condition: small coef for last iteration:  0.000D+00
 Rare condition: small coef for last iteration:  0.000D+00
 Rare condition: small coef for last iteration:  0.000D+00
 Rare condition: small coef for last iteration:  0.000D+00
 EnCoef did   100 forward-backward iterations
 EnCoef did   100 forward-backward iterations
 Rare condition: small coef for last iteration:  0.224D-15
 Rare condition: small coef for last iteration:  0.000D+00
 Rare condition: small coef for last iteration:  0.000D+00
 Rare condition: small coef for last iteration:  0.000D+00
 Rare condition: small coef for last iteration:  0.000D+00
 Restarting incremental Fock formation.
 Rare condition: small coef for last iteration:  0.000D+00
 Rare condition: small coef for last iteration:  0.000D+00
 Rare condition: small coef for last iteration:  0.000D+00
 Rare condition: small coef for last iteration:  0.000D+00
 Rare condition: small coef for last iteration:  0.000D+00
 Rare condition: small coef for last iteration:  0.000D+00
 Restarting incremental Fock formation.
 Restarting incremental Fock formation.
 SCF Done:  E(UAPFD) =  -2983.17952041     A.U. after  223 cycles
            NFock=223  Conv=0.70D-08     -V/T= 2.0035
 <Sx>= 0.0000 <Sy>= 0.0000 <Sz>= 2.5000 <S**2>= 8.7611 S= 2.5018
 <L.S>=  0.00000000000    
 Annihilation of the first spin contaminant:
 S**2 before annihilation     8.7611,   after     8.7500

 **********************************************************************

            Population analysis using the SCF Density.

 **********************************************************************

 Orbital symmetries:
 Alpha Orbitals:
       Occupied  (A) (A) (A) (A) (A) (A) (A) (A) (A) (A) (A) (A)
                 (A) (A) (A) (A) (A) (A) (A) (A) (A) (A) (A) (A)
                 (A) (A) (A) (A) (A) (A) (A) (A) (A) (A) (A) (A)
                 (A) (A) (A) (A) (A) (A) (A) (A) (A) (A) (A) (A)
                 (A) (A) (A) (A) (A) (A) (A) (A) (A) (A) (A) (A)
                 (A) (A) (A) (A) (A) (A) (A) (A) (A) (A) (A) (A)
                 (A) (A) (A) (A) (A) (A) (A) (A) (A) (A) (A) (A)
                 (A) (A) (A) (A) (A) (A) (A) (A) (A) (A) (A) (A)
                 (A) (A) (A) (A) (A) (A) (A) (A) (A) (A) (A) (A)
                 (A) (A) (A) (A) (A) (A) (A) (A) (A) (A) (A) (A)
                 (A) (A) (A) (A) (A) (A) (A) (A) (A) (A) (A) (A)
                 (A) (A) (A) (A) (A) (A) (A) (A) (A) (A) (A) (A)
                 (A) (A) (A) (A) (A) (A) (A) (A) (A) (A) (A) (A)
                 (A) (A) (A) (A)
       Virtual   (A) (A) (A) (A) (A) (A) (A) (A) (A) (A) (A) (A)
                 (A) (A) (A) (A) (A) (A) (A) (A) (A) (A) (A) (A)
                 (A) (A) (A) (A) (A) (A) (A) (A) (A) (A) (A) (A)
                 (A) (A) (A) (A) (A) (A) (A) (A) (A) (A) (A) (A)
                 (A) (A) (A) (A) (A) (A) (A) (A) (A) (A) (A) (A)
                 (A) (A) (A) (A) (A) (A) (A) (A) (A) (A) (A) (A)
                 (A) (A) (A) (A) (A) (A) (A) (A) (A) (A) (A) (A)
                 (A) (A) (A) (A) (A) (A) (A) (A) (A) (A) (A) (A)
                 (A) (A) (A) (A) (A) (A) (A) (A) (A) (A) (A) (A)
                 (A) (A) (A) (A) (A) (A) (A) (A) (A) (A) (A) (A)
                 (A) (A) (A) (A) (A) (A) (A) (A) (A) (A) (A) (A)
                 (A) (A) (A) (A) (A) (A) (A) (A) (A) (A) (A) (A)
                 (A) (A) (A) (A) (A) (A) (A) (A) (A) (A) (A) (A)
                 (A) (A) (A) (A) (A) (A) (A) (A) (A) (A) (A) (A)
                 (A) (A) (A) (A) (A) (A) (A) (A) (A) (A) (A) (A)
                 (A) (A) (A) (A) (A) (A) (A) (A) (A) (A) (A) (A)
                 (A) (A) (A) (A) (A) (A) (A) (A) (A) (A) (A) (A)
                 (A) (A) (A) (A) (A) (A) (A) (A) (A) (A) (A) (A)
                 (A) (A) (A) (A) (A) (A) (A) (A) (A) (A) (A) (A)
                 (A) (A) (A) (A) (A) (A) (A) (A) (A) (A) (A) (A)
                 (A) (A) (A) (A) (A) (A) (A) (A) (A) (A) (A) (A)
                 (A) (A) (A) (A) (A) (A) (A) (A) (A) (A) (A) (A)
                 (A) (A) (A) (A) (A) (A) (A) (A) (A) (A) (A) (A)
                 (A) (A) (A) (A) (A) (A) (A) (A) (A) (A) (A) (A)
                 (A) (A) (A) (A) (A) (A) (A) (A) (A) (A) (A) (A)
                 (A) (A) (A) (A) (A) (A) (A) (A) (A) (A) (A) (A)
                 (A) (A) (A) (A) (A) (A) (A) (A) (A) (A) (A) (A)
                 (A) (A) (A) (A) (A) (A) (A) (A) (A) (A) (A) (A)
                 (A) (A) (A) (A) (A) (A) (A) (A) (A) (A) (A) (A)
                 (A) (A) (A) (A) (A) (A) (A) (A) (A) (A) (A) (A)
                 (A) (A) (A) (A) (A) (A) (A) (A) (A) (A) (A) (A)
                 (A) (A) (A) (A) (A) (A) (A) (A) (A) (A) (A) (A)
                 (A) (A) (A) (A) (A) (A) (A) (A) (A) (A) (A) (A)
                 (A) (A) (A) (A) (A) (A) (A) (A) (A) (A) (A) (A)
                 (A) (A) (A) (A) (A) (A) (A) (A) (A) (A) (A) (A)
                 (A) (A) (A) (A) (A) (A) (A) (A) (A) (A) (A) (A)
                 (A) (A) (A) (A) (A) (A) (A) (A) (A) (A) (A) (A)
                 (A) (A) (A) (A) (A) (A) (A) (A) (A) (A) (A) (A)
                 (A) (A) (A) (A) (A) (A) (A) (A) (A) (A) (A) (A)
                 (A) (A) (A) (A) (A) (A) (A) (A) (A) (A) (A) (A)
                 (A) (A) (A) (A) (A) (A) (A) (A) (A) (A) (A) (A)
                 (A) (A) (A) (A) (A) (A) (A) (A) (A) (A) (A) (A)
                 (A) (A) (A) (A) (A) (A) (A) (A) (A) (A) (A) (A)
                 (A) (A) (A)
 Beta  Orbitals:
       Occupied  (A) (A) (A) (A) (A) (A) (A) (A) (A) (A) (A) (A)
                 (A) (A) (A) (A) (A) (A) (A) (A) (A) (A) (A) (A)
                 (A) (A) (A) (A) (A) (A) (A) (A) (A) (A) (A) (A)
                 (A) (A) (A) (A) (A) (A) (A) (A) (A) (A) (A) (A)
                 (A) (A) (A) (A) (A) (A) (A) (A) (A) (A) (A) (A)
                 (A) (A) (A) (A) (A) (A) (A) (A) (A) (A) (A) (A)
                 (A) (A) (A) (A) (A) (A) (A) (A) (A) (A) (A) (A)
                 (A) (A) (A) (A) (A) (A) (A) (A) (A) (A) (A) (A)
                 (A) (A) (A) (A) (A) (A) (A) (A) (A) (A) (A) (A)
                 (A) (A) (A) (A) (A) (A) (A) (A) (A) (A) (A) (A)
                 (A) (A) (A) (A) (A) (A) (A) (A) (A) (A) (A) (A)
                 (A) (A) (A) (A) (A) (A) (A) (A) (A) (A) (A) (A)
                 (A) (A) (A) (A) (A) (A) (A) (A) (A) (A) (A)
       Virtual   (A) (A) (A) (A) (A) (A) (A) (A) (A) (A) (A) (A)
                 (A) (A) (A) (A) (A) (A) (A) (A) (A) (A) (A) (A)
                 (A) (A) (A) (A) (A) (A) (A) (A) (A) (A) (A) (A)
                 (A) (A) (A) (A) (A) (A) (A) (A) (A) (A) (A) (A)
                 (A) (A) (A) (A) (A) (A) (A) (A) (A) (A) (A) (A)
                 (A) (A) (A) (A) (A) (A) (A) (A) (A) (A) (A) (A)
                 (A) (A) (A) (A) (A) (A) (A) (A) (A) (A) (A) (A)
                 (A) (A) (A) (A) (A) (A) (A) (A) (A) (A) (A) (A)
                 (A) (A) (A) (A) (A) (A) (A) (A) (A) (A) (A) (A)
                 (A) (A) (A) (A) (A) (A) (A) (A) (A) (A) (A) (A)
                 (A) (A) (A) (A) (A) (A) (A) (A) (A) (A) (A) (A)
                 (A) (A) (A) (A) (A) (A) (A) (A) (A) (A) (A) (A)
                 (A) (A) (A) (A) (A) (A) (A) (A) (A) (A) (A) (A)
                 (A) (A) (A) (A) (A) (A) (A) (A) (A) (A) (A) (A)
                 (A) (A) (A) (A) (A) (A) (A) (A) (A) (A) (A) (A)
                 (A) (A) (A) (A) (A) (A) (A) (A) (A) (A) (A) (A)
                 (A) (A) (A) (A) (A) (A) (A) (A) (A) (A) (A) (A)
                 (A) (A) (A) (A) (A) (A) (A) (A) (A) (A) (A) (A)
                 (A) (A) (A) (A) (A) (A) (A) (A) (A) (A) (A) (A)
                 (A) (A) (A) (A) (A) (A) (A) (A) (A) (A) (A) (A)
                 (A) (A) (A) (A) (A) (A) (A) (A) (A) (A) (A) (A)
                 (A) (A) (A) (A) (A) (A) (A) (A) (A) (A) (A) (A)
                 (A) (A) (A) (A) (A) (A) (A) (A) (A) (A) (A) (A)
                 (A) (A) (A) (A) (A) (A) (A) (A) (A) (A) (A) (A)
                 (A) (A) (A) (A) (A) (A) (A) (A) (A) (A) (A) (A)
                 (A) (A) (A) (A) (A) (A) (A) (A) (A) (A) (A) (A)
                 (A) (A) (A) (A) (A) (A) (A) (A) (A) (A) (A) (A)
                 (A) (A) (A) (A) (A) (A) (A) (A) (A) (A) (A) (A)
                 (A) (A) (A) (A) (A) (A) (A) (A) (A) (A) (A) (A)
                 (A) (A) (A) (A) (A) (A) (A) (A) (A) (A) (A) (A)
                 (A) (A) (A) (A) (A) (A) (A) (A) (A) (A) (A) (A)
                 (A) (A) (A) (A) (A) (A) (A) (A) (A) (A) (A) (A)
                 (A) (A) (A) (A) (A) (A) (A) (A) (A) (A) (A) (A)
                 (A) (A) (A) (A) (A) (A) (A) (A) (A) (A) (A) (A)
                 (A) (A) (A) (A) (A) (A) (A) (A) (A) (A) (A) (A)
                 (A) (A) (A) (A) (A) (A) (A) (A) (A) (A) (A) (A)
                 (A) (A) (A) (A) (A) (A) (A) (A) (A) (A) (A) (A)
                 (A) (A) (A) (A) (A) (A) (A) (A) (A) (A) (A) (A)
                 (A) (A) (A) (A) (A) (A) (A) (A) (A) (A) (A) (A)
                 (A) (A) (A) (A) (A) (A) (A) (A) (A) (A) (A) (A)
                 (A) (A) (A) (A) (A) (A) (A) (A) (A) (A) (A) (A)
                 (A) (A) (A) (A) (A) (A) (A) (A) (A) (A) (A) (A)
                 (A) (A) (A) (A) (A) (A) (A) (A) (A) (A) (A) (A)
                 (A) (A) (A) (A) (A) (A) (A) (A)
 The electronic state is 6-A.
 Alpha  occ. eigenvalues -- -256.44110 -30.35009 -26.18238 -26.17831 -26.17777
 Alpha  occ. eigenvalues --  -19.28029 -14.51016 -14.47525 -14.47463 -14.47435
 Alpha  occ. eigenvalues --  -14.47259 -14.44140 -10.34424 -10.34279 -10.34130
 Alpha  occ. eigenvalues --  -10.34034 -10.33995 -10.33980 -10.33971 -10.33908
 Alpha  occ. eigenvalues --  -10.33872 -10.32460 -10.31508 -10.31205 -10.31080
 Alpha  occ. eigenvalues --  -10.30953 -10.30885 -10.30838 -10.30829 -10.30796
 Alpha  occ. eigenvalues --  -10.30752 -10.30735 -10.30729 -10.30672 -10.30552
 Alpha  occ. eigenvalues --  -10.29922 -10.29547 -10.29471 -10.29298 -10.28697
 Alpha  occ. eigenvalues --  -10.28631 -10.28630 -10.28629 -10.28603 -10.28524
 Alpha  occ. eigenvalues --  -10.28379  -3.80251  -2.57158  -2.56664  -2.56569
 Alpha  occ. eigenvalues --   -1.14857  -1.13243  -1.09849  -1.08903  -1.08740
 Alpha  occ. eigenvalues --   -1.07855  -0.98594  -0.94152  -0.93152  -0.92701
 Alpha  occ. eigenvalues --   -0.92072  -0.91737  -0.91375  -0.91289  -0.87956
 Alpha  occ. eigenvalues --   -0.87473  -0.86299  -0.85828  -0.84877  -0.83371
 Alpha  occ. eigenvalues --   -0.82069  -0.81082  -0.79378  -0.79203  -0.78975
 Alpha  occ. eigenvalues --   -0.78766  -0.75808  -0.75656  -0.72725  -0.71720
 Alpha  occ. eigenvalues --   -0.70920  -0.70080  -0.69465  -0.69144  -0.69092
 Alpha  occ. eigenvalues --   -0.65729  -0.65277  -0.64836  -0.64505  -0.63653
 Alpha  occ. eigenvalues --   -0.63155  -0.62669  -0.62495  -0.62086  -0.59624
 Alpha  occ. eigenvalues --   -0.59182  -0.58788  -0.58028  -0.57737  -0.56847
 Alpha  occ. eigenvalues --   -0.56659  -0.56429  -0.56171  -0.55368  -0.55316
 Alpha  occ. eigenvalues --   -0.55047  -0.54478  -0.54179  -0.54130  -0.53968
 Alpha  occ. eigenvalues --   -0.53581  -0.53422  -0.53099  -0.52814  -0.52349
 Alpha  occ. eigenvalues --   -0.51846  -0.51083  -0.50963  -0.50827  -0.50705
 Alpha  occ. eigenvalues --   -0.50677  -0.50628  -0.50416  -0.50375  -0.49981
 Alpha  occ. eigenvalues --   -0.49819  -0.49574  -0.49451  -0.49379  -0.48765
 Alpha  occ. eigenvalues --   -0.48759  -0.48487  -0.48246  -0.47666  -0.47527
 Alpha  occ. eigenvalues --   -0.46868  -0.46248  -0.45966  -0.45367  -0.44840
 Alpha  occ. eigenvalues --   -0.44382  -0.44146  -0.43515  -0.43210  -0.42887
 Alpha  occ. eigenvalues --   -0.42180  -0.40873  -0.39664  -0.38720  -0.38327
 Alpha  occ. eigenvalues --   -0.37794  -0.37709  -0.34686  -0.34081  -0.33489
 Alpha  occ. eigenvalues --   -0.33125  -0.32705  -0.31566  -0.30181  -0.28973
 Alpha virt. eigenvalues --   -0.18058  -0.17863  -0.12332  -0.09078  -0.07449
 Alpha virt. eigenvalues --   -0.06561  -0.05730  -0.05061  -0.02693  -0.02306
 Alpha virt. eigenvalues --   -0.01928  -0.01209  -0.00633   0.00695   0.00927
 Alpha virt. eigenvalues --    0.01493   0.02386   0.02777   0.03394   0.03822
 Alpha virt. eigenvalues --    0.04250   0.04552   0.04695   0.05019   0.05557
 Alpha virt. eigenvalues --    0.05578   0.05801   0.06456   0.06721   0.07192
 Alpha virt. eigenvalues --    0.07269   0.07528   0.07798   0.07918   0.08027
 Alpha virt. eigenvalues --    0.08365   0.08984   0.09165   0.09486   0.09831
 Alpha virt. eigenvalues --    0.10104   0.10429   0.10716   0.10842   0.11112
 Alpha virt. eigenvalues --    0.11543   0.11765   0.11953   0.12584   0.12770
 Alpha virt. eigenvalues --    0.13193   0.13611   0.13884   0.14315   0.14637
 Alpha virt. eigenvalues --    0.15044   0.15514   0.15865   0.16109   0.16336
 Alpha virt. eigenvalues --    0.16757   0.17417   0.17475   0.17853   0.18934
 Alpha virt. eigenvalues --    0.19295   0.20051   0.20194   0.21137   0.21398
 Alpha virt. eigenvalues --    0.21884   0.22122   0.22991   0.24100   0.24992
 Alpha virt. eigenvalues --    0.25063   0.25217   0.26249   0.26556   0.27346
 Alpha virt. eigenvalues --    0.28156   0.29093   0.29474   0.30095   0.32662
 Alpha virt. eigenvalues --    0.32849   0.33411   0.34002   0.34442   0.34951
 Alpha virt. eigenvalues --    0.36242   0.37179   0.37329   0.37584   0.38090
 Alpha virt. eigenvalues --    0.38148   0.39453   0.39746   0.39946   0.40590
 Alpha virt. eigenvalues --    0.40992   0.41730   0.41817   0.42432   0.42587
 Alpha virt. eigenvalues --    0.42843   0.43143   0.43977   0.44086   0.44616
 Alpha virt. eigenvalues --    0.45048   0.45462   0.45716   0.46157   0.46652
 Alpha virt. eigenvalues --    0.47085   0.47341   0.48198   0.49009   0.49254
 Alpha virt. eigenvalues --    0.49810   0.50180   0.50428   0.51029   0.51288
 Alpha virt. eigenvalues --    0.51654   0.52102   0.52424   0.52836   0.53194
 Alpha virt. eigenvalues --    0.53550   0.54170   0.54341   0.54664   0.55148
 Alpha virt. eigenvalues --    0.55616   0.55935   0.56199   0.56795   0.57191
 Alpha virt. eigenvalues --    0.57625   0.57836   0.57958   0.58410   0.58914
 Alpha virt. eigenvalues --    0.59153   0.59456   0.60143   0.60611   0.60995
 Alpha virt. eigenvalues --    0.61323   0.61832   0.62366   0.62598   0.63055
 Alpha virt. eigenvalues --    0.63591   0.64352   0.64740   0.65044   0.65738
 Alpha virt. eigenvalues --    0.66394   0.66928   0.67172   0.67777   0.67903
 Alpha virt. eigenvalues --    0.68115   0.68434   0.68554   0.68809   0.69326
 Alpha virt. eigenvalues --    0.69666   0.70357   0.70524   0.71062   0.71998
 Alpha virt. eigenvalues --    0.72413   0.72725   0.73300   0.73639   0.73866
 Alpha virt. eigenvalues --    0.75069   0.75270   0.76385   0.76662   0.77296
 Alpha virt. eigenvalues --    0.77735   0.78034   0.78134   0.78352   0.79181
 Alpha virt. eigenvalues --    0.79443   0.79931   0.80136   0.80581   0.81149
 Alpha virt. eigenvalues --    0.81394   0.81958   0.82096   0.82756   0.82794
 Alpha virt. eigenvalues --    0.83017   0.83353   0.83648   0.83977   0.84463
 Alpha virt. eigenvalues --    0.84569   0.84815   0.85449   0.85817   0.86610
 Alpha virt. eigenvalues --    0.86658   0.86835   0.87118   0.87202   0.87972
 Alpha virt. eigenvalues --    0.88842   0.88998   0.89762   0.90039   0.90117
 Alpha virt. eigenvalues --    0.90809   0.90854   0.91293   0.91922   0.92385
 Alpha virt. eigenvalues --    0.92742   0.93128   0.93361   0.93563   0.94390
 Alpha virt. eigenvalues --    0.94778   0.95000   0.95339   0.95478   0.96932
 Alpha virt. eigenvalues --    0.97185   0.97710   0.98353   0.99173   1.00005
 Alpha virt. eigenvalues --    1.00890   1.01919   1.02603   1.03549   1.04050
 Alpha virt. eigenvalues --    1.04820   1.05683   1.05836   1.06865   1.07257
 Alpha virt. eigenvalues --    1.08090   1.08850   1.09165   1.09576   1.10088
 Alpha virt. eigenvalues --    1.10133   1.11126   1.11220   1.11524   1.12282
 Alpha virt. eigenvalues --    1.12879   1.13230   1.14188   1.14628   1.16818
 Alpha virt. eigenvalues --    1.17221   1.17677   1.17817   1.18803   1.19628
 Alpha virt. eigenvalues --    1.20349   1.20717   1.21953   1.22588   1.22790
 Alpha virt. eigenvalues --    1.24034   1.24641   1.25056   1.25584   1.25997
 Alpha virt. eigenvalues --    1.26650   1.26893   1.27128   1.27279   1.27637
 Alpha virt. eigenvalues --    1.27835   1.28727   1.29494   1.30726   1.31268
 Alpha virt. eigenvalues --    1.31587   1.32131   1.33577   1.34106   1.34648
 Alpha virt. eigenvalues --    1.36173   1.36615   1.37403   1.37949   1.38715
 Alpha virt. eigenvalues --    1.39107   1.39523   1.41539   1.42624   1.43294
 Alpha virt. eigenvalues --    1.43405   1.43992   1.44664   1.45513   1.46051
 Alpha virt. eigenvalues --    1.47099   1.47801   1.48900   1.49327   1.50255
 Alpha virt. eigenvalues --    1.50396   1.51363   1.52864   1.53359   1.54221
 Alpha virt. eigenvalues --    1.55765   1.56807   1.58154   1.58203   1.58777
 Alpha virt. eigenvalues --    1.60111   1.60737   1.61578   1.62807   1.63882
 Alpha virt. eigenvalues --    1.64327   1.66325   1.67323   1.68640   1.69076
 Alpha virt. eigenvalues --    1.69260   1.69661   1.69892   1.70317   1.71449
 Alpha virt. eigenvalues --    1.71524   1.71860   1.72315   1.73472   1.74254
 Alpha virt. eigenvalues --    1.74804   1.75217   1.75632   1.76187   1.76791
 Alpha virt. eigenvalues --    1.76882   1.77665   1.78449   1.79143   1.79725
 Alpha virt. eigenvalues --    1.81099   1.81558   1.81907   1.82596   1.83141
 Alpha virt. eigenvalues --    1.83329   1.83780   1.84107   1.84858   1.85310
 Alpha virt. eigenvalues --    1.85602   1.85888   1.86008   1.89607   1.89823
 Alpha virt. eigenvalues --    1.89868   1.90538   1.90701   1.91081   1.91706
 Alpha virt. eigenvalues --    1.92420   1.93425   1.94237   1.95610   1.95938
 Alpha virt. eigenvalues --    1.96428   1.97483   1.97722   1.98856   1.99818
 Alpha virt. eigenvalues --    2.00484   2.01088   2.01940   2.03378   2.03663
 Alpha virt. eigenvalues --    2.04375   2.04819   2.05303   2.05768   2.06686
 Alpha virt. eigenvalues --    2.06839   2.07832   2.09008   2.09643   2.10382
 Alpha virt. eigenvalues --    2.10545   2.11692   2.11897   2.12159   2.12549
 Alpha virt. eigenvalues --    2.13398   2.13578   2.14763   2.15523   2.15769
 Alpha virt. eigenvalues --    2.16039   2.16568   2.16875   2.17462   2.18128
 Alpha virt. eigenvalues --    2.18965   2.19386   2.20128   2.20308   2.21533
 Alpha virt. eigenvalues --    2.22243   2.22415   2.22640   2.23505   2.24274
 Alpha virt. eigenvalues --    2.24698   2.24980   2.25638   2.25969   2.26592
 Alpha virt. eigenvalues --    2.27508   2.29146   2.29740   2.30038   2.30591
 Alpha virt. eigenvalues --    2.31591   2.32241   2.32720   2.33037   2.33825
 Alpha virt. eigenvalues --    2.34401   2.34489   2.34567   2.35659   2.37645
 Alpha virt. eigenvalues --    2.37950   2.38805   2.39522   2.40120   2.41888
 Alpha virt. eigenvalues --    2.42178   2.42215   2.42665   2.43019   2.43096
 Alpha virt. eigenvalues --    2.44955   2.45204   2.45960   2.46751   2.47894
 Alpha virt. eigenvalues --    2.49695   2.50197   2.52142   2.53174   2.54591
 Alpha virt. eigenvalues --    2.55630   2.56188   2.57586   2.58340   2.58583
 Alpha virt. eigenvalues --    2.58982   2.60004   2.60516   2.62155   2.64231
 Alpha virt. eigenvalues --    2.66904   2.67660   2.68934   2.69860   2.70157
 Alpha virt. eigenvalues --    2.70849   2.74539   2.75590   2.77307   2.77862
 Alpha virt. eigenvalues --    2.78647   2.79982   2.80635   2.81945   2.84331
 Alpha virt. eigenvalues --    2.86306   2.86548   2.87737   2.88649   2.89161
 Alpha virt. eigenvalues --    2.90752   2.93705   2.94512   2.95873   2.96777
 Alpha virt. eigenvalues --    3.01910   3.03634   3.06893   3.10133   3.12650
 Alpha virt. eigenvalues --    3.14034   3.19392   3.19629   3.26756   3.28847
 Alpha virt. eigenvalues --    3.28989   3.33133   3.33785   3.35912   3.37785
 Alpha virt. eigenvalues --    3.40117   3.65826   3.82737   4.00814
  Beta  occ. eigenvalues -- -256.43943 -30.25495 -26.10306 -26.09860 -26.09831
  Beta  occ. eigenvalues --  -19.27731 -14.51015 -14.47212 -14.47153 -14.47141
  Beta  occ. eigenvalues --  -14.46946 -14.44131 -10.34423 -10.34262 -10.34111
  Beta  occ. eigenvalues --  -10.34013 -10.33975 -10.33959 -10.33950 -10.33887
  Beta  occ. eigenvalues --  -10.33854 -10.32459 -10.31463 -10.31160 -10.31038
  Beta  occ. eigenvalues --  -10.30909 -10.30842 -10.30841 -10.30784 -10.30749
  Beta  occ. eigenvalues --  -10.30738 -10.30734 -10.30710 -10.30677 -10.30564
  Beta  occ. eigenvalues --  -10.29933 -10.29547 -10.29471 -10.29270 -10.28674
  Beta  occ. eigenvalues --  -10.28631 -10.28630 -10.28629 -10.28603 -10.28524
  Beta  occ. eigenvalues --  -10.28379  -3.57812  -2.33460  -2.32526  -2.32488
  Beta  occ. eigenvalues --   -1.14314  -1.13217  -1.09436  -1.08498  -1.08333
  Beta  occ. eigenvalues --   -1.07419  -0.98584  -0.94089  -0.92958  -0.92512
  Beta  occ. eigenvalues --   -0.91865  -0.91530  -0.91240  -0.91180  -0.87946
  Beta  occ. eigenvalues --   -0.87408  -0.86211  -0.85766  -0.84806  -0.83333
  Beta  occ. eigenvalues --   -0.81949  -0.80931  -0.79368  -0.79058  -0.78821
  Beta  occ. eigenvalues --   -0.78537  -0.75710  -0.75560  -0.72674  -0.71530
  Beta  occ. eigenvalues --   -0.70739  -0.69852  -0.69294  -0.69079  -0.68669
  Beta  occ. eigenvalues --   -0.65579  -0.64969  -0.64365  -0.63969  -0.63647
  Beta  occ. eigenvalues --   -0.62446  -0.62293  -0.61873  -0.59839  -0.58827
  Beta  occ. eigenvalues --   -0.58650  -0.56550  -0.56206  -0.55399  -0.55358
  Beta  occ. eigenvalues --   -0.55144  -0.54850  -0.54376  -0.54020  -0.53979
  Beta  occ. eigenvalues --   -0.53836  -0.53528  -0.53131  -0.52762  -0.52459
  Beta  occ. eigenvalues --   -0.51904  -0.51163  -0.51018  -0.50920  -0.50776
  Beta  occ. eigenvalues --   -0.50676  -0.50633  -0.50568  -0.50399  -0.50177
  Beta  occ. eigenvalues --   -0.49920  -0.49836  -0.49600  -0.49486  -0.48905
  Beta  occ. eigenvalues --   -0.48723  -0.48536  -0.48436  -0.48104  -0.47918
  Beta  occ. eigenvalues --   -0.47660  -0.47084  -0.46558  -0.46189  -0.45293
  Beta  occ. eigenvalues --   -0.45132  -0.44344  -0.43596  -0.43417  -0.42898
  Beta  occ. eigenvalues --   -0.42359  -0.41715  -0.40793  -0.39444  -0.38694
  Beta  occ. eigenvalues --   -0.38381  -0.37835  -0.37768  -0.34746  -0.34270
  Beta  occ. eigenvalues --   -0.33213  -0.32491  -0.31555  -0.30027  -0.28840
  Beta virt. eigenvalues --   -0.22825  -0.22574  -0.21075  -0.19969  -0.17051
  Beta virt. eigenvalues --   -0.16903  -0.12679  -0.12105  -0.08828  -0.07194
  Beta virt. eigenvalues --   -0.05573  -0.04848  -0.04070  -0.02585  -0.01884
  Beta virt. eigenvalues --   -0.01759  -0.00894  -0.00164   0.00866   0.01115
  Beta virt. eigenvalues --    0.01520   0.02444   0.02810   0.03434   0.03962
  Beta virt. eigenvalues --    0.04333   0.04800   0.04900   0.05090   0.05625
  Beta virt. eigenvalues --    0.05747   0.05914   0.06506   0.06848   0.07245
  Beta virt. eigenvalues --    0.07315   0.07624   0.07874   0.08029   0.08205
  Beta virt. eigenvalues --    0.08449   0.09044   0.09494   0.09574   0.09980
  Beta virt. eigenvalues --    0.10179   0.10529   0.10774   0.11101   0.11384
  Beta virt. eigenvalues --    0.11848   0.12014   0.12371   0.12758   0.12941
  Beta virt. eigenvalues --    0.13494   0.14109   0.14258   0.14657   0.14866
  Beta virt. eigenvalues --    0.15252   0.15968   0.16118   0.16391   0.16579
  Beta virt. eigenvalues --    0.17000   0.17525   0.17597   0.18380   0.19263
  Beta virt. eigenvalues --    0.19540   0.20448   0.20790   0.21507   0.22018
  Beta virt. eigenvalues --    0.22299   0.22516   0.23598   0.24494   0.25230
  Beta virt. eigenvalues --    0.25437   0.25476   0.26435   0.26704   0.27527
  Beta virt. eigenvalues --    0.28347   0.29201   0.29741   0.30609   0.32741
  Beta virt. eigenvalues --    0.32945   0.33627   0.34112   0.34739   0.35433
  Beta virt. eigenvalues --    0.36729   0.37394   0.37664   0.38033   0.38218
  Beta virt. eigenvalues --    0.38387   0.39601   0.40020   0.40197   0.40893
  Beta virt. eigenvalues --    0.41283   0.41910   0.41959   0.42591   0.42801
  Beta virt. eigenvalues --    0.43020   0.43458   0.44169   0.44535   0.44844
  Beta virt. eigenvalues --    0.45159   0.45644   0.46017   0.46474   0.47040
  Beta virt. eigenvalues --    0.47219   0.47464   0.48303   0.49078   0.49376
  Beta virt. eigenvalues --    0.49940   0.50382   0.50545   0.51211   0.51555
  Beta virt. eigenvalues --    0.51779   0.52415   0.52647   0.53045   0.53393
  Beta virt. eigenvalues --    0.53902   0.54505   0.54906   0.55070   0.55301
  Beta virt. eigenvalues --    0.56033   0.56142   0.56810   0.57103   0.57352
  Beta virt. eigenvalues --    0.57745   0.57968   0.58175   0.58577   0.58961
  Beta virt. eigenvalues --    0.59252   0.59946   0.60320   0.60960   0.61358
  Beta virt. eigenvalues --    0.61637   0.61978   0.62523   0.62880   0.63333
  Beta virt. eigenvalues --    0.63787   0.64446   0.65002   0.65212   0.65990
  Beta virt. eigenvalues --    0.66555   0.67105   0.67402   0.68030   0.68196
  Beta virt. eigenvalues --    0.68348   0.68558   0.68807   0.69371   0.69504
  Beta virt. eigenvalues --    0.69915   0.70454   0.70592   0.71174   0.72108
  Beta virt. eigenvalues --    0.72530   0.72790   0.73452   0.73761   0.73954
  Beta virt. eigenvalues --    0.75154   0.75404   0.76452   0.76758   0.77386
  Beta virt. eigenvalues --    0.77854   0.78104   0.78230   0.78564   0.79344
  Beta virt. eigenvalues --    0.79588   0.80216   0.80333   0.80675   0.81443
  Beta virt. eigenvalues --    0.81787   0.82074   0.82489   0.82848   0.82978
  Beta virt. eigenvalues --    0.83247   0.83536   0.83782   0.84253   0.84561
  Beta virt. eigenvalues --    0.84632   0.85439   0.85589   0.86458   0.86678
  Beta virt. eigenvalues --    0.86865   0.87174   0.87327   0.87778   0.88295
  Beta virt. eigenvalues --    0.89170   0.89370   0.89986   0.90322   0.90403
  Beta virt. eigenvalues --    0.90926   0.90987   0.91522   0.92068   0.92596
  Beta virt. eigenvalues --    0.93305   0.93507   0.93717   0.94059   0.94725
  Beta virt. eigenvalues --    0.94974   0.95527   0.95665   0.95947   0.97219
  Beta virt. eigenvalues --    0.97831   0.98227   0.98409   1.00052   1.00537
  Beta virt. eigenvalues --    1.01277   1.02141   1.03476   1.03871   1.04494
  Beta virt. eigenvalues --    1.04934   1.05960   1.06307   1.07228   1.07448
  Beta virt. eigenvalues --    1.08527   1.08926   1.09382   1.09756   1.10217
  Beta virt. eigenvalues --    1.10581   1.11467   1.11655   1.12062   1.12495
  Beta virt. eigenvalues --    1.13418   1.13948   1.14696   1.15479   1.16925
  Beta virt. eigenvalues --    1.17497   1.17833   1.18120   1.19016   1.19818
  Beta virt. eigenvalues --    1.20471   1.20928   1.22085   1.22686   1.22962
  Beta virt. eigenvalues --    1.24162   1.24841   1.25224   1.25702   1.26122
  Beta virt. eigenvalues --    1.26740   1.27073   1.27223   1.27387   1.27798
  Beta virt. eigenvalues --    1.27955   1.28893   1.29664   1.31012   1.31432
  Beta virt. eigenvalues --    1.31790   1.32397   1.33760   1.34297   1.35014
  Beta virt. eigenvalues --    1.36709   1.36871   1.37698   1.38172   1.39206
  Beta virt. eigenvalues --    1.39415   1.40504   1.42130   1.42750   1.43426
  Beta virt. eigenvalues --    1.43566   1.44139   1.44850   1.45754   1.46445
  Beta virt. eigenvalues --    1.47402   1.48139   1.49063   1.49574   1.50688
  Beta virt. eigenvalues --    1.51020   1.51711   1.53032   1.53570   1.54347
  Beta virt. eigenvalues --    1.55959   1.56992   1.58353   1.58577   1.58957
  Beta virt. eigenvalues --    1.60311   1.60932   1.61775   1.63087   1.64287
  Beta virt. eigenvalues --    1.64668   1.66617   1.67645   1.68773   1.69367
  Beta virt. eigenvalues --    1.69425   1.69917   1.70045   1.70589   1.71603
  Beta virt. eigenvalues --    1.71872   1.72396   1.72986   1.73683   1.74353
  Beta virt. eigenvalues --    1.75074   1.75329   1.75840   1.76293   1.76902
  Beta virt. eigenvalues --    1.77563   1.78001   1.79372   1.79801   1.80888
  Beta virt. eigenvalues --    1.81382   1.81895   1.82169   1.82979   1.83403
  Beta virt. eigenvalues --    1.84026   1.84493   1.84692   1.85162   1.85563
  Beta virt. eigenvalues --    1.85936   1.86195   1.86622   1.89832   1.89944
  Beta virt. eigenvalues --    1.89998   1.90673   1.90926   1.91379   1.92002
  Beta virt. eigenvalues --    1.93572   1.93869   1.94379   1.95860   1.96384
  Beta virt. eigenvalues --    1.96729   1.97936   1.98519   1.99888   2.00521
  Beta virt. eigenvalues --    2.00723   2.01368   2.02185   2.03473   2.03783
  Beta virt. eigenvalues --    2.04719   2.05184   2.05676   2.06074   2.06880
  Beta virt. eigenvalues --    2.07249   2.08227   2.09858   2.10434   2.11148
  Beta virt. eigenvalues --    2.11741   2.12211   2.12972   2.13214   2.13622
  Beta virt. eigenvalues --    2.14392   2.14677   2.15091   2.15764   2.16192
  Beta virt. eigenvalues --    2.16728   2.16933   2.17249   2.17601   2.18435
  Beta virt. eigenvalues --    2.19111   2.19554   2.20303   2.20716   2.21713
  Beta virt. eigenvalues --    2.22389   2.22655   2.22746   2.23640   2.24424
  Beta virt. eigenvalues --    2.24839   2.25116   2.25746   2.26159   2.26740
  Beta virt. eigenvalues --    2.27738   2.29382   2.29892   2.30243   2.30711
  Beta virt. eigenvalues --    2.31774   2.32332   2.32840   2.33165   2.33981
  Beta virt. eigenvalues --    2.34592   2.34722   2.34926   2.35981   2.37978
  Beta virt. eigenvalues --    2.38289   2.39086   2.39905   2.40475   2.41978
  Beta virt. eigenvalues --    2.42346   2.42526   2.42888   2.43179   2.43259
  Beta virt. eigenvalues --    2.45207   2.45378   2.46151   2.47046   2.48281
  Beta virt. eigenvalues --    2.49868   2.50425   2.52292   2.53184   2.54792
  Beta virt. eigenvalues --    2.55862   2.56320   2.57978   2.58652   2.58815
  Beta virt. eigenvalues --    2.59206   2.60272   2.60600   2.62326   2.64376
  Beta virt. eigenvalues --    2.67042   2.67914   2.69059   2.70162   2.70232
  Beta virt. eigenvalues --    2.70977   2.74754   2.75710   2.77509   2.78079
  Beta virt. eigenvalues --    2.78869   2.80215   2.80890   2.82256   2.84598
  Beta virt. eigenvalues --    2.86527   2.86848   2.88120   2.88808   2.89331
  Beta virt. eigenvalues --    2.90888   2.93729   2.94708   2.96074   2.96801
  Beta virt. eigenvalues --    3.02140   3.03874   3.06897   3.10272   3.12904
  Beta virt. eigenvalues --    3.14660   3.19566   3.19748   3.27163   3.29058
  Beta virt. eigenvalues --    3.30059   3.35337   3.35929   3.45068   3.48809
  Beta virt. eigenvalues --    3.51384   3.77692   3.93220   4.11195
          Condensed to atoms (all electrons):
          Atomic-Atomic Spin Densities.
 Mulliken charges and spin densities:
               1          2
     1  Fe   1.185587   4.297186
     2  N   -0.770032   0.092324
     3  N   -0.763753   0.086945
     4  N   -0.756728   0.089841
     5  N   -0.756893   0.095435
     6  C    0.327805   0.004622
     7  C    0.044434   0.026212
     8  C    0.048013   0.026039
     9  C    0.324764   0.005489
    10  C    0.336344   0.005913
    11  C    0.049364   0.024871
    12  C    0.010049   0.027931
    13  C    0.339871   0.004209
    14  C    0.338915   0.004890
    15  C    0.041298   0.025959
    16  C    0.020057   0.027159
    17  C    0.351765   0.003029
    18  C    0.342022   0.003017
    19  C    0.045356   0.026965
    20  C    0.047404   0.024522
    21  C    0.336192   0.004831
    22  C   -0.293335  -0.003116
    23  H    0.195756   0.000460
    24  C   -0.297106  -0.003867
    25  H    0.195680   0.000482
    26  C   -0.303541  -0.003243
    27  H    0.189282   0.000392
    28  C   -0.294502  -0.002256
    29  H    0.193012   0.000422
    30  C   -0.613312  -0.001271
    31  H    0.206791   0.000411
    32  H    0.209660   0.001274
    33  H    0.206546   0.001245
    34  C   -0.612659  -0.001313
    35  H    0.206186   0.001173
    36  H    0.209883   0.001347
    37  H    0.206437   0.000416
    38  C   -0.614909  -0.001303
    39  H    0.208633   0.001503
    40  H    0.200004   0.000871
    41  H    0.214448   0.000508
    42  C   -0.157016  -0.008881
    43  H    0.183246   0.000842
    44  C   -0.387142   0.016631
    45  H    0.191590  -0.000811
    46  H    0.196720  -0.000648
    47  C   -0.616204  -0.001463
    48  H    0.180329   0.001623
    49  H    0.207170   0.000707
    50  H    0.217495   0.000543
    51  C   -0.134367  -0.010269
    52  H    0.181904   0.000660
    53  C   -0.402938   0.019618
    54  H    0.170985  -0.000983
    55  H    0.198076  -0.000858
    56  C   -0.613815  -0.001357
    57  H    0.205513   0.001329
    58  H    0.207507   0.001226
    59  H    0.207004   0.000425
    60  C   -0.612797  -0.001182
    61  H    0.205731   0.000412
    62  H    0.208929   0.001205
    63  H    0.206920   0.001167
    64  C   -0.592603   0.000104
    65  H    0.215184   0.000115
    66  H    0.186421   0.000013
    67  H    0.208735   0.000002
    68  N   -0.616631   0.000370
    69  H    0.366981   0.000023
    70  C    0.297782   0.000537
    71  C    0.202498  -0.000119
    72  H    0.204223  -0.000004
    73  N   -0.483511   0.002841
    74  C   -0.085238  -0.000064
    75  H    0.181091   0.000031
    76  O   -0.841787   0.072582
    77  H    0.459382   0.002234
    78  H    0.497843  -0.000128
 Sum of Mulliken charges =   1.00000   5.00000
 Mulliken charges and spin densities with hydrogens summed into heavy atoms:
               1          2
     1  Fe   1.185587   4.297186
     2  N   -0.770032   0.092324
     3  N   -0.763753   0.086945
     4  N   -0.756728   0.089841
     5  N   -0.756893   0.095435
     6  C    0.327805   0.004622
     7  C    0.044434   0.026212
     8  C    0.048013   0.026039
     9  C    0.324764   0.005489
    10  C    0.336344   0.005913
    11  C    0.049364   0.024871
    12  C    0.010049   0.027931
    13  C    0.339871   0.004209
    14  C    0.338915   0.004890
    15  C    0.041298   0.025959
    16  C    0.020057   0.027159
    17  C    0.351765   0.003029
    18  C    0.342022   0.003017
    19  C    0.045356   0.026965
    20  C    0.047404   0.024522
    21  C    0.336192   0.004831
    22  C   -0.097578  -0.002655
    24  C   -0.101426  -0.003385
    26  C   -0.114259  -0.002850
    28  C   -0.101490  -0.001834
    30  C    0.009685   0.001659
    34  C    0.009847   0.001623
    38  C    0.008176   0.001580
    42  C    0.026231  -0.008038
    44  C    0.001168   0.015172
    47  C   -0.011211   0.001410
    51  C    0.047537  -0.009609
    53  C   -0.033878   0.017777
    56  C    0.006209   0.001623
    60  C    0.008783   0.001602
    64  C    0.017737   0.000233
    68  N   -0.249650   0.000394
    70  C    0.297782   0.000537
    71  C    0.406721  -0.000124
    73  N   -0.483511   0.002841
    74  C    0.095853  -0.000034
    76  O    0.115438   0.074688
 Electronic spatial extent (au):  <R**2>=          21424.0700
 Charge=              1.0000 electrons
 Dipole moment (field-independent basis, Debye):
    X=              1.3574    Y=              0.1995    Z=              1.0553  Tot=              1.7309
 Quadrupole moment (field-independent basis, Debye-Ang):
   XX=           -148.8691   YY=           -173.4861   ZZ=           -242.4626
   XY=              6.1000   XZ=             -3.5879   YZ=              2.0365
 Traceless Quadrupole moment (field-independent basis, Debye-Ang):
   XX=             39.4035   YY=             14.7865   ZZ=            -54.1900
   XY=              6.1000   XZ=             -3.5879   YZ=              2.0365
 Octapole moment (field-independent basis, Debye-Ang**2):
  XXX=             50.2868  YYY=              9.9965  ZZZ=             23.4203  XYY=            -25.4277
  XXY=              4.6988  XXZ=             86.7379  XZZ=              9.8565  YZZ=             -8.4295
  YYZ=            -27.8017  XYZ=             -0.9134
 Hexadecapole moment (field-independent basis, Debye-Ang**3):
 XXXX=         -11896.4782 YYYY=          -9569.7540 ZZZZ=          -2340.6721 XXXY=            161.9778
 XXXZ=             47.4697 YYYX=             57.8076 YYYZ=            100.7168 ZZZX=             47.8049
 ZZZY=            -18.9233 XXYY=          -3856.0805 XXZZ=          -2715.1260 YYZZ=          -2299.4066
 XXYZ=             30.3928 YYXZ=            -63.3308 ZZXY=             14.9322
 N-N= 5.844122213406D+03 E-N=-1.866129749061D+04  KE= 2.972892920487D+03
                          Isotropic Fermi Contact Couplings
        Atom                 a.u.       MegaHertz       Gauss      10(-4) cm-1
     1  Fe(57)             0.75711      21.96217       7.83665       7.32579
     2  N(14)              0.12731       8.22712       2.93564       2.74427
     3  N(14)              0.11924       7.70515       2.74939       2.57016
     4  N(14)              0.12790       8.26525       2.94925       2.75699
     5  N(14)              0.12359       7.98649       2.84978       2.66400
     6  C(13)              0.00532       1.19621       0.42684       0.39901
     7  C(13)              0.00658       1.47931       0.52785       0.49344
     8  C(13)              0.00651       1.46417       0.52245       0.48839
     9  C(13)              0.00559       1.25770       0.44878       0.41952
    10  C(13)              0.00547       1.23020       0.43897       0.41035
    11  C(13)              0.00623       1.40022       0.49963       0.46706
    12  C(13)              0.00682       1.53309       0.54704       0.51138
    13  C(13)              0.00561       1.26189       0.45027       0.42092
    14  C(13)              0.00533       1.19914       0.42788       0.39999
    15  C(13)              0.00665       1.49482       0.53339       0.49862
    16  C(13)              0.00684       1.53699       0.54844       0.51269
    17  C(13)              0.00513       1.15437       0.41191       0.38506
    18  C(13)              0.00528       1.18630       0.42330       0.39571
    19  C(13)              0.00670       1.50739       0.53787       0.50281
    20  C(13)              0.00632       1.42085       0.50700       0.47395
    21  C(13)              0.00555       1.24710       0.44499       0.41599
    22  C(13)             -0.00105      -0.23567      -0.08409      -0.07861
    23  H(1)               0.00016       0.14016       0.05001       0.04675
    24  C(13)             -0.00128      -0.28826      -0.10286      -0.09615
    25  H(1)               0.00016       0.14118       0.05038       0.04709
    26  C(13)             -0.00116      -0.26013      -0.09282      -0.08677
    27  H(1)               0.00014       0.12518       0.04467       0.04176
    28  C(13)             -0.00099      -0.22272      -0.07947      -0.07429
    29  H(1)               0.00014       0.12141       0.04332       0.04050
    30  C(13)             -0.00035      -0.07975      -0.02846      -0.02660
    31  H(1)               0.00016       0.14510       0.05178       0.04840
    32  H(1)               0.00066       0.59187       0.21119       0.19743
    33  H(1)               0.00063       0.56591       0.20193       0.18877
    34  C(13)             -0.00037      -0.08342      -0.02976      -0.02782
    35  H(1)               0.00059       0.52608       0.18772       0.17548
    36  H(1)               0.00070       0.62258       0.22215       0.20767
    37  H(1)               0.00017       0.14802       0.05282       0.04937
    38  C(13)             -0.00034      -0.07698      -0.02747      -0.02568
    39  H(1)               0.00079       0.70752       0.25246       0.23600
    40  H(1)               0.00043       0.38034       0.13572       0.12687
    41  H(1)               0.00019       0.16905       0.06032       0.05639
    42  C(13)             -0.00144      -0.32488      -0.11593      -0.10837
    43  H(1)               0.00034       0.30513       0.10888       0.10178
    44  C(13)              0.00266       0.59747       0.21319       0.19929
    45  H(1)              -0.00025      -0.22117      -0.07892      -0.07377
    46  H(1)              -0.00019      -0.17019      -0.06073      -0.05677
    47  C(13)             -0.00037      -0.08325      -0.02971      -0.02777
    48  H(1)               0.00077       0.69266       0.24716       0.23105
    49  H(1)               0.00035       0.31112       0.11102       0.10378
    50  H(1)               0.00020       0.18168       0.06483       0.06060
    51  C(13)             -0.00159      -0.35831      -0.12785      -0.11952
    52  H(1)               0.00024       0.21849       0.07796       0.07288
    53  C(13)              0.00285       0.64077       0.22864       0.21374
    54  H(1)              -0.00029      -0.26047      -0.09294      -0.08688
    55  H(1)              -0.00026      -0.22933      -0.08183      -0.07650
    56  C(13)             -0.00036      -0.08100      -0.02890      -0.02702
    57  H(1)               0.00068       0.60718       0.21666       0.20253
    58  H(1)               0.00063       0.56426       0.20134       0.18822
    59  H(1)               0.00017       0.14916       0.05322       0.04975
    60  C(13)             -0.00031      -0.07022      -0.02506      -0.02342
    61  H(1)               0.00016       0.14576       0.05201       0.04862
    62  H(1)               0.00062       0.55139       0.19675       0.18393
    63  H(1)               0.00060       0.53212       0.18988       0.17750
    64  C(13)              0.00006       0.01271       0.00453       0.00424
    65  H(1)               0.00005       0.04744       0.01693       0.01582
    66  H(1)               0.00003       0.03050       0.01088       0.01018
    67  H(1)               0.00001       0.00767       0.00274       0.00256
    68  N(14)              0.00025       0.01601       0.00571       0.00534
    69  H(1)               0.00001       0.01001       0.00357       0.00334
    70  C(13)              0.00014       0.03060       0.01092       0.01021
    71  C(13)              0.00020       0.04471       0.01595       0.01491
    72  H(1)               0.00001       0.00736       0.00263       0.00245
    73  N(14)              0.00441       0.28480       0.10162       0.09500
    74  C(13)             -0.00006      -0.01374      -0.00490      -0.00458
    75  H(1)               0.00001       0.00773       0.00276       0.00258
    76  O(17)              0.13415     -16.26464      -5.80363      -5.42530
    77  H(1)               0.00017       0.15449       0.05512       0.05153
    78  H(1)               0.00055       0.49542       0.17678       0.16526
 --------------------------------------------------------
       Center         ----  Spin Dipole Couplings  ----
                      3XX-RR        3YY-RR        3ZZ-RR
 --------------------------------------------------------
     1   Atom        0.133904      0.124736     -0.258640
     2   Atom        0.244975     -0.180688     -0.064287
     3   Atom       -0.161119      0.235323     -0.074204
     4   Atom        0.225124     -0.177256     -0.047868
     5   Atom       -0.182656      0.237035     -0.054379
     6   Atom        0.025948     -0.002627     -0.023321
     7   Atom        0.008406     -0.021446      0.013040
     8   Atom        0.009691     -0.022517      0.012826
     9   Atom        0.039264     -0.018548     -0.020716
    10   Atom       -0.005199      0.029462     -0.024263
    11   Atom       -0.019087      0.009521      0.009565
    12   Atom       -0.020769      0.009789      0.010980
    13   Atom       -0.018735      0.045120     -0.026385
    14   Atom        0.026872     -0.003126     -0.023747
    15   Atom        0.008966     -0.020482      0.011516
    16   Atom        0.009136     -0.022360      0.013224
    17   Atom        0.042962     -0.017381     -0.025581
    18   Atom       -0.002766      0.030874     -0.028107
    19   Atom       -0.020806      0.009886      0.010920
    20   Atom       -0.020347      0.012045      0.008303
    21   Atom       -0.018744      0.046643     -0.027899
    22   Atom        0.005449      0.016879     -0.022328
    23   Atom        0.001311      0.006800     -0.008112
    24   Atom        0.014055      0.006968     -0.021022
    25   Atom        0.005552      0.001845     -0.007396
    26   Atom        0.004687      0.016768     -0.021454
    27   Atom        0.001093      0.006760     -0.007853
    28   Atom        0.016369      0.005992     -0.022362
    29   Atom        0.006455      0.001749     -0.008204
    30   Atom        0.007239     -0.004154     -0.003085
    31   Atom        0.005405     -0.002900     -0.002505
    32   Atom        0.006133     -0.002356     -0.003776
    33   Atom        0.004313     -0.002420     -0.001894
    34   Atom        0.005398     -0.002022     -0.003376
    35   Atom        0.002788     -0.000437     -0.002351
    36   Atom        0.004414     -0.000645     -0.003769
    37   Atom        0.004694     -0.002122     -0.002572
    38   Atom       -0.001938      0.006408     -0.004469
    39   Atom       -0.001660      0.004423     -0.002763
    40   Atom        0.000469      0.003849     -0.004319
    41   Atom       -0.001897      0.005210     -0.003313
    42   Atom       -0.005931      0.011865     -0.005934
    43   Atom       -0.002777      0.006285     -0.003508
    44   Atom        0.000900     -0.000392     -0.000509
    45   Atom       -0.001957      0.003964     -0.002006
    46   Atom       -0.001490      0.003643     -0.002153
    47   Atom        0.005941     -0.001832     -0.004110
    48   Atom        0.004337     -0.000840     -0.003496
    49   Atom        0.003171     -0.000153     -0.003018
    50   Atom        0.004712     -0.002075     -0.002637
    51   Atom        0.012925     -0.001013     -0.011912
    52   Atom        0.006298     -0.002279     -0.004020
    53   Atom       -0.003555     -0.009932      0.013487
    54   Atom        0.003684     -0.001218     -0.002465
    55   Atom        0.003545     -0.001689     -0.001857
    56   Atom       -0.002264      0.006277     -0.004013
    57   Atom       -0.000420      0.004285     -0.003865
    58   Atom       -0.001074      0.003866     -0.002793
    59   Atom       -0.002273      0.005323     -0.003050
    60   Atom       -0.004039      0.008439     -0.004400
    61   Atom       -0.002911      0.006116     -0.003205
    62   Atom       -0.002054      0.005845     -0.003791
    63   Atom       -0.002692      0.006157     -0.003466
    64   Atom        0.002826     -0.002171     -0.000655
    65   Atom        0.001734     -0.001504     -0.000230
    66   Atom        0.002855     -0.001892     -0.000963
    67   Atom        0.002634     -0.001597     -0.001036
    68   Atom        0.004487     -0.003892     -0.000595
    69   Atom        0.003628     -0.002104     -0.001523
    70   Atom        0.004317     -0.004076     -0.000241
    71   Atom        0.005342     -0.004810     -0.000531
    72   Atom        0.002864     -0.001001     -0.001862
    73   Atom        0.011198     -0.013380      0.002181
    74   Atom        0.004919     -0.005919      0.001000
    75   Atom        0.002383     -0.004057      0.001673
    76   Atom       -0.191085     -0.159508      0.350593
    77   Atom       -0.020900     -0.042325      0.063225
    78   Atom        0.003250     -0.041573      0.038324
 --------------------------------------------------------
                        XY            XZ            YZ
 --------------------------------------------------------
     1   Atom       -0.020465     -0.088287     -0.006809
     2   Atom        0.046237     -0.053619     -0.014241
     3   Atom       -0.055504      0.038672     -0.027300
     4   Atom        0.047969     -0.078732     -0.001225
     5   Atom       -0.041095      0.013915      0.051380
     6   Atom        0.037985     -0.014358     -0.010498
     7   Atom        0.005974      0.000054     -0.001744
     8   Atom        0.000782     -0.000143     -0.000925
     9   Atom       -0.027575     -0.018790      0.007461
    10   Atom       -0.037047     -0.005130      0.011210
    11   Atom       -0.005293      0.007712      0.005367
    12   Atom       -0.000100      0.009243      0.003564
    13   Atom        0.027038     -0.002190     -0.007782
    14   Atom        0.037873     -0.010105     -0.007141
    15   Atom        0.007586      0.002495      0.004436
    16   Atom        0.001570     -0.000034      0.003141
    17   Atom       -0.027122     -0.010705      0.003048
    18   Atom       -0.039649     -0.005864      0.006913
    19   Atom       -0.007039      0.005704     -0.003035
    20   Atom       -0.001975      0.006712     -0.003196
    21   Atom        0.028200     -0.000852     -0.005935
    22   Atom        0.023084     -0.006224     -0.002919
    23   Atom        0.010715     -0.002165     -0.002156
    24   Atom       -0.022210     -0.011015      0.005682
    25   Atom       -0.010405     -0.004028      0.002916
    26   Atom        0.021651     -0.007349     -0.007952
    27   Atom        0.010413     -0.002467     -0.002940
    28   Atom       -0.022571     -0.005714      0.004291
    29   Atom       -0.010797     -0.002196      0.001655
    30   Atom       -0.003272     -0.003558      0.001022
    31   Atom       -0.000721     -0.002540      0.000226
    32   Atom       -0.003425     -0.001063      0.000080
    33   Atom       -0.002929     -0.004057      0.001779
    34   Atom        0.005573     -0.002857     -0.001626
    35   Atom        0.004376     -0.003266     -0.002492
    36   Atom        0.004893     -0.000630     -0.000046
    37   Atom        0.002545     -0.002331     -0.000757
    38   Atom       -0.005583     -0.000132      0.000938
    39   Atom       -0.003790     -0.001244      0.002144
    40   Atom       -0.005482      0.000257     -0.000335
    41   Atom       -0.002859      0.000165     -0.000597
    42   Atom        0.004536     -0.005124      0.000211
    43   Atom        0.003181     -0.001060     -0.002565
    44   Atom       -0.003768      0.010653     -0.004596
    45   Atom       -0.000258     -0.000596      0.001018
    46   Atom        0.001634      0.000052     -0.000899
    47   Atom        0.005555     -0.002146     -0.001249
    48   Atom        0.004369     -0.000143      0.000112
    49   Atom        0.004851     -0.002892     -0.002269
    50   Atom        0.002489     -0.002301     -0.000856
    51   Atom       -0.003272     -0.000012      0.003084
    52   Atom       -0.003800     -0.001668      0.000631
    53   Atom        0.000206     -0.004236     -0.006809
    54   Atom        0.000910     -0.000027      0.000255
    55   Atom       -0.002031     -0.000635     -0.000081
    56   Atom       -0.005663     -0.000852      0.001728
    57   Atom       -0.004852      0.000262     -0.000061
    58   Atom       -0.004489     -0.002139      0.002968
    59   Atom       -0.002482     -0.000457      0.001385
    60   Atom        0.003497      0.000333      0.000275
    61   Atom        0.000897      0.000021      0.000770
    62   Atom        0.003794      0.000922      0.001864
    63   Atom        0.002981     -0.000778     -0.001589
    64   Atom       -0.000650      0.002174     -0.000362
    65   Atom       -0.000358      0.001987     -0.000230
    66   Atom       -0.000238      0.001636     -0.000111
    67   Atom       -0.001409      0.002096     -0.000739
    68   Atom        0.002132      0.004491      0.001650
    69   Atom        0.002152      0.002696      0.000971
    70   Atom       -0.000183      0.004626      0.000023
    71   Atom        0.005361      0.008338      0.003478
    72   Atom        0.007383      0.006798      0.005430
    73   Atom        0.003410      0.015794      0.002735
    74   Atom       -0.001795      0.008556     -0.001359
    75   Atom       -0.003547      0.007621     -0.003448
    76   Atom       -0.014091      0.124943     -0.020370
    77   Atom        0.002387     -0.022115     -0.005091
    78   Atom        0.008348      0.042418      0.004847
 --------------------------------------------------------


 ---------------------------------------------------------------------------------
              Anisotropic Spin Dipole Couplings in Principal Axis System
 ---------------------------------------------------------------------------------

       Atom             a.u.   MegaHertz   Gauss  10(-4) cm-1        Axes

              Baa    -0.2779    -4.811    -1.717    -1.605  0.2109  0.0272  0.9771
     1 Fe(57) Bbb     0.1157     2.004     0.715     0.668  0.4324  0.8939 -0.1182
              Bcc     0.1621     2.807     1.002     0.936  0.8767 -0.4474 -0.1767
 
              Baa    -0.1863    -7.184    -2.563    -2.396 -0.0973  0.9926  0.0731
     2 N(14)  Bbb    -0.0730    -2.814    -1.004    -0.939  0.1739 -0.0554  0.9832
              Bcc     0.2592     9.998     3.568     3.335  0.9799  0.1084 -0.1672
 
              Baa    -0.1803    -6.954    -2.481    -2.319  0.9427  0.1051 -0.3166
     3 N(14)  Bbb    -0.0659    -2.543    -0.907    -0.848  0.3010  0.1409  0.9431
              Bcc     0.2462     9.497     3.389     3.168 -0.1437  0.9844 -0.1012
 
              Baa    -0.1834    -7.074    -2.524    -2.360 -0.1289  0.9895 -0.0659
     4 N(14)  Bbb    -0.0679    -2.617    -0.934    -0.873  0.2436  0.0960  0.9651
              Bcc     0.2513     9.692     3.458     3.233  0.9613  0.1083 -0.2534
 
              Baa    -0.1894    -7.304    -2.606    -2.436  0.9832  0.1121 -0.1440
     5 N(14)  Bbb    -0.0598    -2.308    -0.823    -0.770  0.1597 -0.1468  0.9762
              Bcc     0.2492     9.612     3.430     3.206 -0.0883  0.9828  0.1623
 
              Baa    -0.0290    -3.897    -1.390    -1.300 -0.5075  0.8266  0.2432
     6 C(13)  Bbb    -0.0272    -3.647    -1.301    -1.217  0.3157 -0.0842  0.9451
              Bcc     0.0562     7.544     2.692     2.516  0.8017  0.5564 -0.2182
 
              Baa    -0.0227    -3.043    -1.086    -1.015 -0.1886  0.9809  0.0482
     7 C(13)  Bbb     0.0095     1.280     0.457     0.427  0.9798  0.1846  0.0767
              Bcc     0.0131     1.764     0.629     0.588 -0.0663 -0.0617  0.9959
 
              Baa    -0.0226    -3.027    -1.080    -1.010 -0.0241  0.9994  0.0260
     8 C(13)  Bbb     0.0097     1.302     0.465     0.434  0.9984  0.0227  0.0525
              Bcc     0.0129     1.726     0.616     0.576 -0.0519 -0.0272  0.9983
 
              Baa    -0.0296    -3.971    -1.417    -1.325  0.3754  0.9267  0.0158
     9 C(13)  Bbb    -0.0261    -3.498    -1.248    -1.167  0.2315 -0.1103  0.9666
              Bcc     0.0557     7.469     2.665     2.491  0.8975 -0.3592 -0.2559
 
              Baa    -0.0296    -3.969    -1.416    -1.324  0.7245  0.5367 -0.4325
    10 C(13)  Bbb    -0.0253    -3.400    -1.213    -1.134  0.4432  0.1178  0.8887
              Bcc     0.0549     7.369     2.630     2.458 -0.5279  0.8355  0.1525
 
              Baa    -0.0224    -3.000    -1.070    -1.001  0.9440  0.2009 -0.2619
    11 C(13)  Bbb     0.0073     0.983     0.351     0.328 -0.3235  0.7205 -0.6134
              Bcc     0.0150     2.016     0.719     0.672  0.0655  0.6637  0.7451
 
[...]
 
              Baa    -0.0301    -4.039    -1.441    -1.347  0.6255  0.3264  0.7087
    18 C(13)  Bbb    -0.0280    -3.752    -1.339    -1.252 -0.5533 -0.4548  0.6979
              Bcc     0.0581     7.792     2.780     2.599 -0.5501  0.8286  0.1039
 
              Baa    -0.0231    -3.095    -1.105    -1.033  0.9702  0.1938 -0.1455
    19 C(13)  Bbb     0.0074     0.992     0.354     0.331 -0.0411  0.7234  0.6892
              Bcc     0.0157     2.103     0.750     0.702  0.2388 -0.6627  0.7098
 
              Baa    -0.0219    -2.937    -1.048    -0.980  0.9763  0.0367 -0.2132
    20 C(13)  Bbb     0.0072     0.968     0.346     0.323  0.1514  0.5879  0.7946
              Bcc     0.0147     1.969     0.702     0.657 -0.1545  0.8081 -0.5684
 
              Baa    -0.0301    -4.041    -1.442    -1.348  0.7547 -0.3215 -0.5719
    21 C(13)  Bbb    -0.0274    -3.679    -1.313    -1.227  0.5570 -0.1466  0.8175
              Bcc     0.0575     7.720     2.755     2.575  0.3467  0.9355 -0.0684
 
              Baa    -0.0238    -3.197    -1.141    -1.066  0.2707 -0.0847  0.9589
    22 C(13)  Bbb    -0.0118    -1.580    -0.564    -0.527  0.7379 -0.6214 -0.2632
              Bcc     0.0356     4.777     1.704     1.593  0.6182  0.7789 -0.1057
 
              Baa    -0.0086    -4.585    -1.636    -1.530  0.2616 -0.0471  0.9640
    23 H(1)   Bbb    -0.0069    -3.688    -1.316    -1.230  0.7481 -0.6212 -0.2333
              Bcc     0.0155     8.273     2.952     2.760  0.6099  0.7822 -0.1273
 
              Baa    -0.0242    -3.250    -1.160    -1.084  0.2961  0.0370  0.9544
    24 C(13)  Bbb    -0.0114    -1.525    -0.544    -0.509  0.5889  0.7796 -0.2130
              Bcc     0.0356     4.775     1.704     1.593  0.7520 -0.6252 -0.2091
 
              Baa    -0.0085    -4.561    -1.627    -1.521  0.2882  0.0199  0.9574
    25 H(1)   Bbb    -0.0068    -3.629    -1.295    -1.210  0.5939  0.7805 -0.1950
              Bcc     0.0153     8.190     2.922     2.732  0.7511 -0.6248 -0.2131
 
              Baa    -0.0236    -3.166    -1.130    -1.056  0.1811  0.0957  0.9788
    26 C(13)  Bbb    -0.0117    -1.565    -0.558    -0.522  0.7813 -0.6185 -0.0841
              Bcc     0.0353     4.731     1.688     1.578  0.5973  0.7799 -0.1868
 
              Baa    -0.0085    -4.538    -1.619    -1.514  0.1817  0.0650  0.9812
    27 H(1)   Bbb    -0.0068    -3.653    -1.304    -1.219  0.7790 -0.6184 -0.1033
              Bcc     0.0154     8.191     2.923     2.732  0.6001  0.7831 -0.1630
 
              Baa    -0.0233    -3.120    -1.113    -1.041  0.1074 -0.0627  0.9922
    28 C(13)  Bbb    -0.0120    -1.607    -0.573    -0.536  0.6207  0.7839 -0.0176
              Bcc     0.0352     4.727     1.687     1.577  0.7767 -0.6177 -0.1231
 
              Baa    -0.0085    -4.550    -1.624    -1.518  0.1247 -0.0287  0.9918
    29 H(1)   Bbb    -0.0069    -3.705    -1.322    -1.236  0.6210  0.7819 -0.0555
              Bcc     0.0155     8.255     2.946     2.754  0.7739 -0.6228 -0.1153
 
              Baa    -0.0050    -0.675    -0.241    -0.225  0.2357  0.9687 -0.0778
    30 C(13)  Bbb    -0.0042    -0.563    -0.201    -0.188  0.2982  0.0041  0.9545
              Bcc     0.0092     1.238     0.442     0.413  0.9249 -0.2482 -0.2879
 
              Baa    -0.0033    -1.735    -0.619    -0.579  0.2775 -0.0492  0.9595
    31 H(1)   Bbb    -0.0030    -1.580    -0.564    -0.527  0.0931  0.9954  0.0241
              Bcc     0.0062     3.315     1.183     1.106  0.9562 -0.0826 -0.2807
 
              Baa    -0.0040    -2.153    -0.768    -0.718  0.2426  0.4543  0.8572
    32 H(1)   Bbb    -0.0034    -1.815    -0.648    -0.605  0.2408  0.8277 -0.5069
              Bcc     0.0074     3.968     1.416     1.323  0.9398 -0.3294 -0.0915
 
              Baa    -0.0041    -2.170    -0.774    -0.724  0.2368 -0.4870  0.8407
    33 H(1)   Bbb    -0.0034    -1.829    -0.653    -0.610  0.4816  0.8104  0.3338
              Bcc     0.0075     3.999     1.427     1.334  0.8438 -0.3258 -0.4264
 
              Baa    -0.0050    -0.673    -0.240    -0.225 -0.4480  0.8884  0.1003
    34 C(13)  Bbb    -0.0042    -0.567    -0.202    -0.189  0.2699  0.0274  0.9625
              Bcc     0.0092     1.240     0.442     0.414  0.8523  0.4582 -0.2521
 
              Baa    -0.0041    -2.186    -0.780    -0.729  0.1552  0.4224  0.8930
    35 H(1)   Bbb    -0.0034    -1.838    -0.656    -0.613 -0.6381  0.7329 -0.2358
              Bcc     0.0075     4.024     1.436     1.342  0.7541  0.5333 -0.3833
 
              Baa    -0.0040    -2.140    -0.764    -0.714  0.3438 -0.4888  0.8017
    36 H(1)   Bbb    -0.0034    -1.819    -0.649    -0.607 -0.3909  0.7018  0.5955
              Bcc     0.0074     3.959     1.413     1.321  0.8538  0.5182 -0.0502
 
              Baa    -0.0033    -1.737    -0.620    -0.580  0.2718  0.0321  0.9618
    37 H(1)   Bbb    -0.0030    -1.583    -0.565    -0.528 -0.3003  0.9524  0.0531
              Bcc     0.0062     3.320     1.185     1.108  0.9143  0.3033 -0.2684
 
              Baa    -0.0050    -0.664    -0.237    -0.222  0.7114  0.3975 -0.5796
    38 C(13)  Bbb    -0.0043    -0.579    -0.207    -0.193  0.5434  0.2119  0.8123
              Bcc     0.0093     1.243     0.444     0.415 -0.4457  0.8928  0.0653
 
              Baa    -0.0036    -1.937    -0.691    -0.646  0.7679  0.1993  0.6088
    39 H(1)   Bbb    -0.0032    -1.731    -0.618    -0.577 -0.4810 -0.4484  0.7534
              Bcc     0.0069     3.668     1.309     1.223 -0.4231  0.8713  0.2484
 
              Baa    -0.0043    -2.312    -0.825    -0.771 -0.0292  0.0213  0.9993
    40 H(1)   Bbb    -0.0036    -1.909    -0.681    -0.637  0.8043  0.5942  0.0109
              Bcc     0.0079     4.221     1.506     1.408 -0.5936  0.8041 -0.0345
 
              Baa    -0.0034    -1.791    -0.639    -0.597  0.0667  0.0915  0.9936
    41 H(1)   Bbb    -0.0029    -1.548    -0.552    -0.516  0.9411  0.3250 -0.0931
              Bcc     0.0063     3.339     1.191     1.114 -0.3314  0.9413 -0.0644
 
              Baa    -0.0116    -1.551    -0.553    -0.517  0.7283 -0.1471  0.6693
    42 C(13)  Bbb    -0.0015    -0.195    -0.070    -0.065 -0.6393  0.2059  0.7409
              Bcc     0.0130     1.746     0.623     0.582  0.2468  0.9674 -0.0560
 
              Baa    -0.0043    -2.285    -0.815    -0.762  0.4646  0.0744  0.8824
    43 H(1)   Bbb    -0.0037    -1.961    -0.700    -0.654  0.8341 -0.3714 -0.4079
              Bcc     0.0080     4.246     1.515     1.416  0.2974  0.9255 -0.2346
 
              Baa    -0.0106    -1.416    -0.505    -0.472 -0.6621  0.0909  0.7439
    44 C(13)  Bbb    -0.0028    -0.381    -0.136    -0.127  0.3507  0.9148  0.2003
              Bcc     0.0134     1.797     0.641     0.600  0.6623 -0.3936  0.6376
 
              Baa    -0.0026    -1.403    -0.501    -0.468  0.6400 -0.0926  0.7627
    45 H(1)   Bbb    -0.0015    -0.812    -0.290    -0.271  0.7662  0.1519 -0.6244
              Bcc     0.0042     2.216     0.791     0.739 -0.0580  0.9840  0.1682
 
              Baa    -0.0025    -1.308    -0.467    -0.436 -0.4740  0.2516  0.8438
    46 H(1)   Bbb    -0.0018    -0.951    -0.339    -0.317  0.8378 -0.1662  0.5201
              Bcc     0.0042     2.258     0.806     0.753  0.2711  0.9534 -0.1320
 
              Baa    -0.0048    -0.642    -0.229    -0.214 -0.3342  0.8228  0.4596
    47 C(13)  Bbb    -0.0045    -0.605    -0.216    -0.202  0.3591 -0.3397  0.8693
              Bcc     0.0093     1.247     0.445     0.416  0.8714  0.4555 -0.1820
 
              Baa    -0.0036    -1.921    -0.686    -0.641  0.2658 -0.4550  0.8499
    48 H(1)   Bbb    -0.0032    -1.721    -0.614    -0.574 -0.4177  0.7402  0.5269
              Bcc     0.0068     3.643     1.300     1.215  0.8689  0.4950 -0.0067
 
              Baa    -0.0043    -2.290    -0.817    -0.764  0.1206  0.3648  0.9233
    49 H(1)   Bbb    -0.0036    -1.911    -0.682    -0.638 -0.6286  0.7479 -0.2134
              Bcc     0.0079     4.202     1.499     1.402  0.7683  0.5546 -0.3195
 
              Baa    -0.0033    -1.781    -0.635    -0.594  0.1844  0.2757  0.9434
    50 H(1)   Bbb    -0.0029    -1.532    -0.546    -0.511 -0.3591  0.9124 -0.1964
              Bcc     0.0062     3.312     1.182     1.105  0.9149  0.3026 -0.2673
 
              Baa    -0.0128    -1.711    -0.611    -0.571 -0.0330 -0.2626  0.9643
    51 C(13)  Bbb    -0.0009    -0.124    -0.044    -0.041  0.2221  0.9388  0.2632
              Bcc     0.0137     1.835     0.655     0.612  0.9745 -0.2229 -0.0273
 
              Baa    -0.0043    -2.286    -0.816    -0.762  0.1380 -0.0499  0.9892
    52 H(1)   Bbb    -0.0037    -1.985    -0.708    -0.662  0.3543  0.9351 -0.0023
              Bcc     0.0080     4.271     1.524     1.425  0.9249 -0.3508 -0.1468
 
              Baa    -0.0119    -1.593    -0.569    -0.531  0.1167  0.9541  0.2757
    53 C(13)  Bbb    -0.0043    -0.580    -0.207    -0.193  0.9716 -0.1672  0.1672
              Bcc     0.0162     2.173     0.775     0.725 -0.2056 -0.2483  0.9466
 
              Baa    -0.0025    -1.346    -0.480    -0.449  0.0359 -0.2159  0.9757
    54 H(1)   Bbb    -0.0013    -0.707    -0.252    -0.236 -0.1733  0.9602  0.2189
              Bcc     0.0038     2.053     0.732     0.685  0.9842  0.1770  0.0029
 
              Baa    -0.0025    -1.342    -0.479    -0.448  0.3276  0.8461  0.4205
    55 H(1)   Bbb    -0.0018    -0.949    -0.339    -0.317 -0.0553 -0.4271  0.9025
              Bcc     0.0043     2.292     0.818     0.764  0.9432 -0.3189 -0.0931
 
              Baa    -0.0051    -0.683    -0.244    -0.228  0.8944  0.4472 -0.0099
    56 C(13)  Bbb    -0.0043    -0.576    -0.205    -0.192  0.0725 -0.1230  0.9898
              Bcc     0.0094     1.258     0.449     0.420 -0.4414  0.8859  0.1424
 
              Baa    -0.0039    -2.104    -0.751    -0.702 -0.3179 -0.1805  0.9308
    57 H(1)   Bbb    -0.0034    -1.806    -0.645    -0.603  0.7854  0.4997  0.3652
              Bcc     0.0073     3.910     1.395     1.304 -0.5311  0.8472 -0.0171
 
              Baa    -0.0042    -2.262    -0.807    -0.755  0.5880  0.0297  0.8083
    58 H(1)   Bbb    -0.0035    -1.887    -0.673    -0.630  0.6442  0.5871 -0.4902
              Bcc     0.0078     4.150     1.481     1.384 -0.4891  0.8090  0.3261
 
              Baa    -0.0033    -1.752    -0.625    -0.584  0.1906 -0.1021  0.9763
    59 H(1)   Bbb    -0.0030    -1.604    -0.572    -0.535  0.9401  0.3054 -0.1516
              Bcc     0.0063     3.356     1.197     1.119 -0.2827  0.9467  0.1542
 
              Baa    -0.0051    -0.678    -0.242    -0.226  0.9026 -0.2265 -0.3660
    60 C(13)  Bbb    -0.0043    -0.578    -0.206    -0.193  0.3482 -0.1156  0.9303
              Bcc     0.0094     1.256     0.448     0.419  0.2530  0.9671  0.0255
 
              Baa    -0.0033    -1.749    -0.624    -0.583  0.1844 -0.0978  0.9780
    61 H(1)   Bbb    -0.0030    -1.595    -0.569    -0.532  0.9780 -0.0801 -0.1924
              Bcc     0.0063     3.344     1.193     1.115  0.0971  0.9920  0.0809
 
              Baa    -0.0042    -2.243    -0.800    -0.748 -0.2899 -0.0677  0.9547
    62 H(1)   Bbb    -0.0035    -1.890    -0.674    -0.630  0.8827 -0.4043  0.2394
              Bcc     0.0077     4.133     1.475     1.378  0.3698  0.9121  0.1770
 
              Baa    -0.0040    -2.113    -0.754    -0.705  0.6200 -0.0598  0.7823
    63 H(1)   Bbb    -0.0034    -1.809    -0.645    -0.603  0.7281 -0.3276 -0.6021
              Bcc     0.0074     3.922     1.399     1.308  0.2923  0.9429 -0.1596
 
              Baa    -0.0023    -0.304    -0.108    -0.101  0.0743  0.9897  0.1221
    64 C(13)  Bbb    -0.0017    -0.228    -0.081    -0.076 -0.4410 -0.0772  0.8942
              Bcc     0.0040     0.531     0.190     0.177  0.8944 -0.1203  0.4308
 
              Baa    -0.0015    -0.824    -0.294    -0.275  0.0342  0.9919  0.1222
    65 H(1)   Bbb    -0.0015    -0.781    -0.279    -0.261 -0.5327 -0.0853  0.8420
              Bcc     0.0030     1.605     0.573     0.535  0.8456 -0.0939  0.5255
 
              Baa    -0.0019    -1.017    -0.363    -0.339  0.0240  0.9969  0.0754
    66 H(1)   Bbb    -0.0016    -0.836    -0.298    -0.279 -0.3493 -0.0623  0.9349
              Bcc     0.0035     1.853     0.661     0.618  0.9367 -0.0488  0.3467
 
              Baa    -0.0021    -1.125    -0.401    -0.375 -0.0434  0.7810  0.6231
    67 H(1)   Bbb    -0.0019    -1.026    -0.366    -0.342 -0.4826 -0.5625  0.6714
              Bcc     0.0040     2.151     0.768     0.718  0.8748 -0.2715  0.4013
 
              Baa    -0.0046    -0.177    -0.063    -0.059 -0.0651  0.9460 -0.3174
    68 N(14)  Bbb    -0.0031    -0.121    -0.043    -0.040 -0.5415  0.2337  0.8075
              Bcc     0.0077     0.298     0.106     0.099  0.8382  0.2245  0.4971
 
              Baa    -0.0028    -1.519    -0.542    -0.507 -0.1640  0.9245 -0.3442
    69 H(1)   Bbb    -0.0027    -1.422    -0.507    -0.474 -0.4505  0.2402  0.8598
              Bcc     0.0055     2.941     1.049     0.981  0.8776  0.2960  0.3771
 
              Baa    -0.0041    -0.549    -0.196    -0.183  0.0736  0.9928 -0.0945
    70 C(13)  Bbb    -0.0031    -0.417    -0.149    -0.139 -0.5231  0.1191  0.8439
              Bcc     0.0072     0.966     0.345     0.322  0.8491 -0.0127  0.5281
 
              Baa    -0.0071    -0.956    -0.341    -0.319 -0.4451  0.8906  0.0931
    71 C(13)  Bbb    -0.0063    -0.852    -0.304    -0.284 -0.4520 -0.3132  0.8352
              Bcc     0.0135     1.808     0.645     0.603  0.7730  0.3297  0.5420
 
              Baa    -0.0069    -3.670    -1.310    -1.224  0.0344 -0.7012  0.7122
    72 H(1)   Bbb    -0.0066    -3.528    -1.259    -1.177  0.7263 -0.4720 -0.4998
              Bcc     0.0135     7.199     2.569     2.401  0.6866  0.5344  0.4930
 
              Baa    -0.0139    -0.536    -0.191    -0.179 -0.0750  0.9926 -0.0952
    73 N(14)  Bbb    -0.0097    -0.375    -0.134    -0.125 -0.6052  0.0306  0.7954
              Bcc     0.0236     0.911     0.325     0.304  0.7925  0.1172  0.5985
 
              Baa    -0.0062    -0.833    -0.297    -0.278  0.1841  0.9824 -0.0333
    74 C(13)  Bbb    -0.0058    -0.780    -0.278    -0.260 -0.6030  0.1396  0.7854
              Bcc     0.0120     1.613     0.575     0.538  0.7762 -0.1245  0.6180
 
              Baa    -0.0057    -3.029    -1.081    -1.011 -0.1392  0.8333  0.5351
    75 H(1)   Bbb    -0.0056    -2.976    -1.062    -0.993  0.7124  0.4595 -0.5303
              Bcc     0.0113     6.005     2.143     2.003  0.6878 -0.3074  0.6576
 
              Baa    -0.2200    15.919     5.680     5.310  0.9661  0.1557 -0.2060
    76 O(17)  Bbb    -0.1590    11.505     4.105     3.838 -0.1431  0.9869  0.0745
              Bcc     0.3790   -27.424    -9.786    -9.148  0.2149 -0.0425  0.9757
 
              Baa    -0.0427   -22.768    -8.124    -7.595 -0.0769  0.9965  0.0318
    77 H(1)   Bbb    -0.0263   -14.025    -5.004    -4.678  0.9677  0.0669  0.2429
              Bcc     0.0690    36.792    13.128    12.273 -0.2399 -0.0495  0.9695
 
              Baa    -0.0433   -23.076    -8.234    -7.697 -0.2314  0.9708  0.0627
    78 H(1)   Bbb    -0.0241   -12.873    -4.594    -4.294  0.7975  0.2262 -0.5593
              Bcc     0.0674    35.950    12.828    11.992  0.5571  0.0795  0.8266
 

 ---------------------------------------------------------------------------------

 Unable to Open any file for archive entry.
 1\1\GINC-BGN1020\SP\UAPFD\Gen\C34H36Fe1N6O1(1+,6)\BEBJONES\15-May-2024
 \0\\# apfd/gen scf=maxcycle=999 geom=check\\1ccb_III_H\\1,6\Fe,0,-5.65
 66076589,57.5058592935,111.6197351673\N,0,-6.6998600007,56.4441663255,
 112.9447276682\N,0,-6.6250309352,59.1539350211,112.1740085659\N,0,-4.4
 445371904,58.6198789457,110.4671748674\N,0,-4.6460669758,55.8843258542
 ,111.111600705\C,0,-6.6161283419,55.104964824,113.1691418026\C,0,-7.51
 64446557,54.7050803548,114.2267607169\C,0,-8.1705949932,55.8315720502,
 114.6184902041\C,0,-7.6416469209,56.9084144685,113.8127849973\C,0,-7.6
 078585032,59.2546451166,113.1125706993\C,0,-8.1836656431,60.5760191258
 ,113.1191743407\C,0,-7.4669215309,61.3101552003,112.214306025\C,0,-6.4
 875274382,60.4014561914,111.6494758473\C,0,-4.5612805092,59.9508371337
 ,110.207888215\C,0,-3.5149194788,60.3995701869,109.3304862406\C,0,-2.7
 242031245,59.3046438894,109.0811782449\C,0,-3.3733617871,58.1923636084
 ,109.7509376382\C,0,-3.6289123425,55.801321669,110.2125087949\C,0,-3.3
 210672609,54.4187726403,109.9147785356\C,0,-4.1138566635,53.6686292292
 ,110.7248974859\C,0,-4.9158730969,54.6029862563,111.4839719492\C,0,-5.
 8087342758,54.229326297,112.4687706358\H,0,-5.8802265404,53.1802669595
 ,112.7104106269\C,0,-8.0635267366,58.2185163992,113.9074957348\H,0,-8.
 8296291572,58.4436266443,114.6329059068\C,0,-5.5319722062,60.784934693
 5,110.73405791\H,0,-5.5168059889,61.8220179384,110.4361152275\C,0,-2.9
 868136885,56.8720464185,109.624113132\H,0,-2.1447561958,56.6475493558,
 108.9882189802\C,0,-9.2113915632,56.0046695158,115.6705409287\H,0,-9.4
 293508193,55.0581143262,116.1585919099\H,0,-10.1353445707,56.386339908
 2,115.235940542\H,0,-8.8762320585,56.7134214919,116.4281029232\C,0,-7.
 6562975927,53.308779836,114.7269823637\H,0,-6.6959381475,52.9323390343
 ,115.0793607342\H,0,-8.0073275592,52.6494438601,113.9329804451\H,0,-8.
 3658941922,53.2620759347,115.549149434\C,0,-9.3558538932,60.9935759019
 ,113.9357429888\H,0,-9.0551210528,61.229922297,114.9578429447\H,0,-10.
 0971547986,60.1970930986,113.9769867551\H,0,-9.8179202905,61.877327002
 8,113.5002950061\C,0,-7.6296000547,62.693829223,111.8222806999\H,0,-7.
 4272209893,62.9122571929,110.7798055409\C,0,-7.9917758421,63.681915673
 9,112.633511863\H,0,-8.157848417,63.5233476393,113.6848515404\H,0,-8.1
 089883019,64.6919998063,112.2774266378\C,0,-3.4108949906,61.7775103198
 ,108.7735053427\H,0,-2.9065580809,62.4553350458,109.4653998549\H,0,-4.
 4026359549,62.1817224468,108.5776373097\H,0,-2.8577021094,61.763199467
 6,107.8370710324\C,0,-1.5366295055,59.1940282093,108.2715924969\H,0,-1
 .3207429264,58.2014508171,107.8963951626\C,0,-0.689523789,60.173115299
 6,107.9615965668\H,0,-0.8049842219,61.1812442158,108.318964008\H,0,0.1
 689229313,59.9896736314,107.33666268\C,0,-2.2967383336,53.9812034477,1
 08.9252640388\H,0,-1.3044311432,54.3190555271,109.2259801581\H,0,-2.51
 33280898,54.3978950316,107.9417374659\H,0,-2.2778128337,52.8973818688,
 108.8421032001\C,0,-4.2056078517,52.1872289912,110.8521711611\H,0,-3.5
 314572069,51.6970122001,110.1543900818\H,0,-5.2206589563,51.8468358981
 ,110.6478549307\H,0,-3.9406019775,51.8733612983,111.8621069618\C,0,0.9
 684883567,59.9612913754,110.9605039213\H,0,1.7407262769,60.2582218552,
 111.673870147\H,0,0.9811140924,60.6596164465,110.1257076565\H,0,1.2110
 213407,58.9687243025,110.5884734913\N,0,-1.1873826511,61.0415806193,11
 1.6536435014\H,0,-1.0046486695,61.9292567149,111.2157229247\C,0,-0.366
 9677063,59.943876116,111.6079709956\C,0,-2.2989682972,60.6876694997,11
 2.3371720358\H,0,-3.1228093409,61.3470626458,112.5236478972\N,0,-2.233
 2547704,59.4489018979,112.7394703522\C,0,-1.0410994782,58.9689490864,1
 12.288433412\H,0,-0.7485277045,57.9590375017,112.4858771605\O,0,-4.229
 0000004,57.779,113.2519999995\H,0,-4.5109999996,57.369000001,114.07000
 00004\H,0,-3.5430000022,58.3349999996,113.152\\Version=ES64L-G16RevC.0
 2\State=6-A\HF=-2983.1795204\S2=8.761085\S2-1=0.\S2A=8.750036\RMSD=7.0
 02e-09\Dipole=0.5774861,0.3418004,0.1159334\Quadrupole=1.8449501,18.64
 64801,-20.4914302,6.9517563,-28.9390019,-7.7348148\PG=C01 [X(C34H36Fe1
 N6O1)]\\@
 The archive entry for this job was punched.


 A MAN THINKING OR WORKING IS ALWAYS ALONE, 
 LET HIM BE WHERE HE WILL.

                                    -- THOREAU
 Job cpu time:       0 days 12 hours 14 minutes 34.3 seconds.
 Elapsed time:       0 days  0 hours 12 minutes 27.0 seconds.
 File lengths (MBytes):  RWF=    430 Int=      0 D2E=      0 Chk=    227 Scr=      1
 Normal termination of Gaussian 16 at Wed May 15 15:57:35 2024.
