 Entering Gaussian System, Link 0=g16
 Input=1cce16.com
 Output=1cce16.log
 Initial command:
 /sw/chem/gaussian/g16_C02/a100/g16/l1.exe "/local/bebjones_7859535/Gau-50619.inp" -scrdir="/local/bebjones_7859535/"
 Entering Link 1 = /sw/chem/gaussian/g16_C02/a100/g16/l1.exe PID=     50620.
  
 Copyright (c) 1988-2021, Gaussian, Inc.  All Rights Reserved.
  
 This is part of the Gaussian(R) 16 program.  It is based on
 the Gaussian(R) 09 system (copyright 2009, Gaussian, Inc.),
 the Gaussian(R) 03 system (copyright 2003, Gaussian, Inc.),
 the Gaussian(R) 98 system (copyright 1998, Gaussian, Inc.),
 the Gaussian(R) 94 system (copyright 1995, Gaussian, Inc.),
 the Gaussian 92(TM) system (copyright 1992, Gaussian, Inc.),
 the Gaussian 90(TM) system (copyright 1990, Gaussian, Inc.),
 the Gaussian 88(TM) system (copyright 1988, Gaussian, Inc.),
 the Gaussian 86(TM) system (copyright 1986, Carnegie Mellon
 University), and the Gaussian 82(TM) system (copyright 1983,
 Carnegie Mellon University). Gaussian is a federally registered
 trademark of Gaussian, Inc.
  
 This software contains proprietary and confidential information,
 including trade secrets, belonging to Gaussian, Inc.
  
 This software is provided under written license and may be
 used, copied, transmitted, or stored only in accord with that
 written license.
  
 The following legend is applicable only to US Government
 contracts under FAR:
  
                    RESTRICTED RIGHTS LEGEND
  
 Use, reproduction and disclosure by the US Government is
 subject to restrictions as set forth in subparagraphs (a)
 and (c) of the Commercial Computer Software - Restricted
 Rights clause in FAR 52.227-19.
  
 Gaussian, Inc.
 340 Quinnipiac St., Bldg. 40, Wallingford CT 06492
  
  
 ---------------------------------------------------------------
 Warning -- This program may not be used in any manner that
 competes with the business of Gaussian, Inc. or will provide
 assistance to any competitor of Gaussian, Inc.  The licensee
 of this program is prohibited from giving any competitor of
 Gaussian, Inc. access to this program.  By using this program,
 the user acknowledges that Gaussian, Inc. is engaged in the
 business of creating and licensing software in the field of
 computational chemistry and represents and warrants to the
 licensee that it is not a competitor of Gaussian, Inc. and that
 it will not use this program in any manner prohibited above.
 ---------------------------------------------------------------
  

 Cite this work as:
 Gaussian 16, Revision C.02,
 M. J. Frisch, G. W. Trucks, H. B. Schlegel, G. E. Scuseria, 
 M. A. Robb, J. R. Cheeseman, G. Scalmani, V. Barone, 
 G. A. Petersson, H. Nakatsuji, X. Li, M. Caricato, A. V. Marenich, 
 J. Bloino, B. G. Janesko, R. Gomperts, B. Mennucci, H. P. Hratchian, 
 J. V. Ortiz, A. F. Izmaylov, J. L. Sonnenberg, D. Williams-Young, 
 F. Ding, F. Lipparini, F. Egidi, J. Goings, B. Peng, A. Petrone, 
 T. Henderson, D. Ranasinghe, V. G. Zakrzewski, J. Gao, N. Rega, 
 G. Zheng, W. Liang, M. Hada, M. Ehara, K. Toyota, R. Fukuda, 
 J. Hasegawa, M. Ishida, T. Nakajima, Y. Honda, O. Kitao, H. Nakai, 
 T. Vreven, K. Throssell, J. A. Montgomery, Jr., J. E. Peralta, 
 F. Ogliaro, M. J. Bearpark, J. J. Heyd, E. N. Brothers, K. N. Kudin, 
 V. N. Staroverov, T. A. Keith, R. Kobayashi, J. Normand, 
 K. Raghavachari, A. P. Rendell, J. C. Burant, S. S. Iyengar, 
 J. Tomasi, M. Cossi, J. M. Millam, M. Klene, C. Adamo, R. Cammi, 
 J. W. Ochterski, R. L. Martin, K. Morokuma, O. Farkas, 
 J. B. Foresman, and D. J. Fox, Gaussian, Inc., Wallingford CT, 2019.
 
 ******************************************
 Gaussian 16:  ES64L-G16RevC.02  7-Dec-2021
                15-May-2024 
 ******************************************
 %mem=16GB
 %CPU=0-71
 SetSPE:  set environment variable "OMP_PROC_BIND" = "true"
 SetSPE:  set environment variable "OMP_PLACES" = "{0},{1},{2},{3},{4},{5},{6},{7},{8},{9},{10},{11},{12},{13},{14},{15},{16},{17},{18},{19},{20},{21},{22},{23},{24},{25},{26},{27},{28},{29},{30},{31},{32},{33},{34},{35},{36},{37},{38},{39},{40},{41},{42},{43},{44},{45},{46},{47},{48},{49},{50},{51},{52},{53},{54},{55},{56},{57},{58},{59},{60},{61},{62},{63},{64},{65},{66},{67},{68},{69},{70},{71}"
 Will use up to   72 processors via shared memory.
 %gpucpu=0,1,2,3=0,1,2,3
 Will use    4 GPUs:
 Thread  CPU   GPU
      0    0     0
      1    1     1
      2    2     2
      3    3     3
      4    4    -1
      5    5    -1
      6    6    -1
      7    7    -1
      8    8    -1
      9    9    -1
     10   10    -1
     11   11    -1
     12   12    -1
     13   13    -1
     14   14    -1
     15   15    -1
     16   16    -1
     17   17    -1
     18   18    -1
     19   19    -1
     20   20    -1
     21   21    -1
     22   22    -1
     23   23    -1
     24   24    -1
     25   25    -1
     26   26    -1
     27   27    -1
     28   28    -1
     29   29    -1
     30   30    -1
     31   31    -1
     32   32    -1
     33   33    -1
     34   34    -1
     35   35    -1
     36   36    -1
     37   37    -1
     38   38    -1
     39   39    -1
     40   40    -1
     41   41    -1
     42   42    -1
     43   43    -1
     44   44    -1
     45   45    -1
     46   46    -1
     47   47    -1
     48   48    -1
     49   49    -1
     50   50    -1
     51   51    -1
     52   52    -1
     53   53    -1
     54   54    -1
     55   55    -1
     56   56    -1
     57   57    -1
     58   58    -1
     59   59    -1
     60   60    -1
     61   61    -1
     62   62    -1
     63   63    -1
     64   64    -1
     65   65    -1
     66   66    -1
     67   67    -1
     68   68    -1
     69   69    -1
     70   70    -1
     71   71    -1
 SetGPE:  set environment variable "OMP_PROC_BIND" = "true"
 SetGPE:  set environment variable "OMP_PLACES" = "{0},{1},{2},{3},{4},{5},{6},{7},{8},{9},{10},{11},{12},{13},{14},{15},{16},{17},{18},{19},{20},{21},{22},{23},{24},{25},{26},{27},{28},{29},{30},{31},{32},{33},{34},{35},{36},{37},{38},{39},{40},{41},{42},{43},{44},{45},{46},{47},{48},{49},{50},{51},{52},{53},{54},{55},{56},{57},{58},{59},{60},{61},{62},{63},{64},{65},{66},{67},{68},{69},{70},{71}"
 %oldchk=1cce_III_Dre.chk
 %chk=1cce_III_Hn.chk
 Properties for Device   0
 Minimum vector length:                              32
 Maximum vector length:                            1024
 Number of SMPs:                                    108
 Maximum number of threads per SMP:                2048
 Number of ASync Engines:                             5
 Memory:                                           9192980480
 Properties for Device   1
 Minimum vector length:                              32
 Maximum vector length:                            1024
 Number of SMPs:                                    108
 Maximum number of threads per SMP:                2048
 Number of ASync Engines:                             5
 Memory:                                           9192980480
 Properties for Device   2
 Minimum vector length:                              32
 Maximum vector length:                            1024
 Number of SMPs:                                    108
 Maximum number of threads per SMP:                2048
 Number of ASync Engines:                             5
 Memory:                                           9192980480
 Properties for Device   3
 Minimum vector length:                              32
 Maximum vector length:                            1024
 Number of SMPs:                                    108
 Maximum number of threads per SMP:                2048
 Number of ASync Engines:                             5
 Memory:                                           9192980480
   8273682432 words of memory will be used on each GPU.
 Copying data from "1cce_III_Dre.chk" to current chk file "1cce_III_Hn.chk"
 IOpt=  2 FromEx=T IUOpen= 4 IOptOp= 5 NList=   0 IFRang= 0 IUIn= 4 IUOut= 2.
 --------------------------------------------------------------
 # apfd/def2TZVP guess=read scf=maxcycle=999 geom=check pop=nbo
 --------------------------------------------------------------
 1/29=2,38=1,172=1/1;
 2/12=2,40=1/2;
 3/5=44,7=101,11=2,14=-4,25=1,30=1,74=-44,116=-2/1,2,3;
 4/5=1/1;
 5/5=2,7=999,38=6/2;
 6/7=2,8=2,9=2,10=2,28=1,40=1/1,7;
 99/5=1,9=1/99;
 ----------
 1cce_III_H
 ----------
 Structure from the checkpoint file:  "1cce_III_Hn.chk"
 Charge =  1 Multiplicity = 6
 Z-Matrix found in chk file.
 Fe,0,-5.6844926769,56.6766657594,111.9472348754
 N,0,-6.4291085702,55.7407120933,113.5546753978
 N,0,-6.7970121964,58.2949079986,112.4191491955
 N,0,-4.9822493082,57.6645352201,110.3504107662
 N,0,-4.5769939623,55.0865827919,111.5032210082
 C,0,-6.1800318367,54.4552888453,113.9194165249
 C,0,-6.7848621996,54.1606385125,115.1973248333
 C,0,-7.4358914101,55.2927331546,115.5822057302
 C,0,-7.1873896824,56.2726793958,114.5502155966
 C,0,-7.5160160064,58.4878962061,113.5571428119
 C,0,-8.181782037,59.7677005313,113.5358630427
 C,0,-7.8002306226,60.3781994343,112.3731929426
 C,0,-6.9011849556,59.4493456712,111.7134027102
 C,0,-5.2669653152,58.9365861061,109.9605030964
 C,0,-4.4637397505,59.3163063224,108.8281111879
 C,0,-3.7101952952,58.2173211905,108.5054568109
 C,0,-4.0777693472,57.1890763411,109.4563082905
 C,0,-3.9167306046,54.9002905354,110.3297912563
 C,0,-3.5503027737,53.5106071928,110.1581021167
 C,0,-4.0725261358,52.8468541779,111.2223474036
 C,0,-4.7316120697,53.8452471994,112.0369077514
 C,0,-5.4360183755,53.5475234607,113.1865430625
 H,0,-5.4033338993,52.5299299541,113.5439970362
 C,0,-7.6714712456,57.5655540892,114.5761626682
 H,0,-8.253810798,57.8613307129,115.4347989117
 C,0,-6.202419938,59.7582229464,110.5641543275
 H,0,-6.3615818517,60.7335586966,110.1308783719
 C,0,-3.59967676,55.8911044573,109.4206178032
 H,0,-2.9793098463,55.6144724487,108.5819859209
 C,0,-8.2225101105,55.5548300769,116.8203731089
 H,0,-8.266136349,54.6663837175,117.4453905502
 H,0,-9.2419524334,55.8492092568,116.5711880954
 H,0,-7.771075507,56.3604106282,117.4004005188
 C,0,-6.6896056996,52.8438786331,115.888275087
 H,0,-5.6467342742,52.5806174211,116.0656868491
 H,0,-7.1372431903,52.0573690696,115.2800441778
 H,0,-7.2039916896,52.8703611994,116.8457048148
 C,0,-9.1222042527,60.2617582406,114.5787414407
 H,0,-8.5760439147,60.6507736145,115.4403152026
 H,0,-9.7707998691,59.4586377002,114.9257122123
 H,0,-9.7412025173,61.0605647612,114.1755493245
 C,0,-8.171315615,61.6772141031,111.8538353868
 H,0,-8.2739699393,61.7400958023,110.7763036157
 C,0,-8.3749873166,62.766120457,112.5876219
 H,0,-8.2386490092,62.7701683109,113.6553455812
 H,0,-8.6601236466,63.7038877423,112.1400889093
 C,0,-4.4479634926,60.6678816779,108.2044410459
 H,0,-4.537192325,61.4432581495,108.9637813424
 H,0,-5.2777750008,60.7836624125,107.5047910219
 H,0,-3.5178217573,60.816459062,107.6598483765
 C,0,-2.7416334457,58.0442753126,107.4445937651
 H,0,-1.9108399145,57.3870830709,107.6740789672
 C,0,-2.8096421484,58.6051116668,106.2418325875
 H,0,-3.6361597719,59.2276884186,105.9459373418
 H,0,-2.0480379353,58.4393027097,105.498019435
 C,0,-2.7870272602,52.9797100478,108.9939225894
 H,0,-1.8142152846,53.4658386736,108.9201583639
 H,0,-3.3274850855,53.1637363396,108.0649391797
 H,0,-2.6278455947,51.9086468576,109.091530801
 C,0,-4.0278843038,51.3932040759,111.5464998694
 H,0,-3.5359841189,51.2286399784,112.5054971564
 H,0,-3.4825950901,50.8434110643,110.7834303656
 H,0,-5.0362098331,50.9835570667,111.609614476
 O,0,-4.284,57.394,113.195
 H,0,-4.496,57.028,114.054
 H,0,-3.592,57.918,113.002
 O,0,-7.101,55.961,110.708
 H,0,-7.003,56.426,109.877
 H,0,-7.69,55.318,110.885
 Recover connectivity data from disk.
 Stoichiometry    C30H32FeN4O2(1+,6)
 Framework group  C1[X(C30H32FeN4O2)]
 Deg. of freedom   201
 Full point group                 C1      NOp   1
 Largest Abelian subgroup         C1      NOp   1
 Largest concise Abelian subgroup C1      NOp   1
                         Standard orientation:                         
 ---------------------------------------------------------------------
 Center     Atomic      Atomic             Coordinates (Angstroms)
 Number     Number       Type             X           Y           Z
 ---------------------------------------------------------------------
      1         26           0       -0.116121   -0.194971    0.044932
      2          7           0       -2.015954   -0.830596    0.014203
      3          7           0       -0.786878    1.703593   -0.112078
      4          7           0        1.762740    0.503911    0.062924
      5          7           0        0.533288   -2.065624    0.220966
      6          6           0       -2.426841   -2.126174    0.020389
      7          6           0       -3.865431   -2.205284    0.119840
      8          6           0       -4.318351   -0.921516    0.140202
      9          6           0       -3.146271   -0.078452    0.089977
     10          6           0       -2.078011    2.122784   -0.031484
     11          6           0       -2.166663    3.553894   -0.191679
     12          6           0       -0.881724    4.005478   -0.314546
     13          6           0       -0.036705    2.829265   -0.220520
     14          6           0        2.175108    1.799471    0.011129
     15          6           0        3.602686    1.888608    0.171583
     16          6           0        4.059072    0.599958    0.275487
     17          6           0        2.888803   -0.246592    0.173795
     18          6           0        1.826711   -2.457932    0.076945
     19          6           0        1.912548   -3.887072   -0.135556
     20          6           0        0.632597   -4.339179   -0.192374
     21          6           0       -0.213457   -3.181948    0.006872
     22          6           0       -1.592593   -3.228411   -0.041252
     23          1           0       -2.057733   -4.197860   -0.131543
     24          6           0       -3.183014    1.301767    0.103351
     25          1           0       -4.150794    1.772731    0.177204
     26          6           0        1.341250    2.888140   -0.173364
     27          1           0        1.801062    3.862281   -0.236307
     28          6           0        2.929995   -1.629439    0.149015
     29          1           0        3.902875   -2.095747    0.121693
     30          6           0       -5.716215   -0.415020    0.239998
     31          1           0       -6.424496   -1.239315    0.267630
     32          1           0       -5.957014    0.215476   -0.615868
     33          1           0       -5.846846    0.179912    1.144529
     34          6           0       -4.635633   -3.480076    0.164967
     35          1           0       -4.316717   -4.088816    1.011188
     36          1           0       -4.475791   -4.058170   -0.745627
     37          1           0       -5.700751   -3.286179    0.264427
     38          6           0       -3.433962    4.332930   -0.247686
     39          1           0       -3.829923    4.501707    0.755640
     40          1           0       -4.189824    3.800088   -0.822855
     41          1           0       -3.257875    5.299915   -0.714319
     42          6           0       -0.397146    5.357322   -0.495033
     43          1           0        0.480621    5.461423   -1.122930
     44          6           0       -0.933450    6.442969    0.052134
     45          1           0       -1.774570    6.390135    0.721734
     46          1           0       -0.530330    7.425479   -0.129973
     47          6           0        4.376559    3.157132    0.260674
     48          1           0        3.820587    3.908801    0.818937
     49          1           0        4.582102    3.558575   -0.733357
     50          1           0        5.326164    2.980270    0.761464
     51          6           0        5.411410    0.112621    0.440324
     52          1           0        5.512613   -0.793042    1.027107
     53          6           0        6.499521    0.673187   -0.076954
     54          1           0        6.450969    1.545483   -0.705468
     55          1           0        7.480772    0.261265    0.091152
     56          6           0        3.189131   -4.638427   -0.295419
     57          1           0        3.817573   -4.517462    0.586938
     58          1           0        3.744938   -4.270798   -1.158494
     59          1           0        2.998536   -5.699407   -0.436972
     60          6           0        0.125923   -5.721677   -0.420733
     61          1           0       -0.476074   -6.054544    0.425153
     62          1           0        0.949837   -6.419086   -0.549862
     63          1           0       -0.497717   -5.758510   -1.314170
     64          8           0       -0.361359   -0.016531    2.030098
     65          1           0       -1.261340   -0.294491    2.202009
     66          1           0        0.236327    0.238004    2.637282
     67          8           0        0.114222   -0.366391   -1.948038
     68          1           0        0.951189    0.043588   -2.166652
     69          1           0       -0.439587   -0.768024   -2.516973
 ---------------------------------------------------------------------
 Rotational constants (GHZ):           0.1155186           0.1147241           0.0600531
 Standard basis: def2TZVP (5D, 7F)
 There are  1540 symmetry adapted cartesian basis functions of A   symmetry.
 There are  1353 symmetry adapted basis functions of A   symmetry.
  1353 basis functions,  2194 primitive gaussians,  1540 cartesian basis functions
   143 alpha electrons      138 beta electrons
       nuclear repulsion energy      4904.2612330629 Hartrees.
 NAtoms=   69 NActive=   69 NUniq=   69 SFac= 1.00D+00 NAtFMM=   60 NAOKFM=T Big=T
 Integral buffers will be    131072 words long.
 Raffenetti 2 integral format.
 Two-electron integral symmetry is turned on.
 R6APFD:  NTU= -4 IXU= 1 FactS= 1.050
 Nuclear repulsion after empirical dispersion term =     4904.1272682189 Hartrees.
 One-electron integrals computed using PRISM.
   1 Symmetry operations used in ECPInt.
 ECPInt:  NShTT=  145530 NPrTT=  450773 LenC2=  115111 LenP2D=  238849.
 LDataN:  DoStor=T MaxTD1= 6 Len=  172
 Number of processors reduced to  26 by ecpmxn.
 NBasis=  1353 RedAO= T EigKep=  3.64D-06  NBF=  1353
 NBsUse=  1353 1.00D-06 EigRej= -1.00D+00 NBFU=  1353
 Initial guess from the checkpoint file:  "1cce_III_Hn.chk"
 B after Tr=    -0.000000    0.000000   -0.000000
         Rot=    1.000000   -0.000000    0.000000   -0.000000 Ang=   0.00 deg.
 Initial guess <Sx>= 0.0000 <Sy>= 0.0000 <Sz>= 2.5000 <S**2>= 8.7634 S= 2.5022
 Requested convergence on RMS density matrix=1.00D-08 within 999 cycles.
 Requested convergence on MAX density matrix=1.00D-06.
 Requested convergence on             energy=1.00D-06.
 No special actions if energy rises.
 EnCoef did    15 forward-backward iterations
 EnCoef did    18 forward-backward iterations
 EnCoef did   100 forward-backward iterations
 EnCoef did    29 forward-backward iterations
 Restarting incremental Fock formation.
 Rare condition: small coef for last iteration:  0.000D+00
 Rare condition: small coef for last iteration:  0.000D+00
 EnCoef did   100 forward-backward iterations
 EnCoef did   100 forward-backward iterations
 Rare condition: small coef for last iteration:  0.170D-15
 EnCoef did   100 forward-backward iterations
 Rare condition: small coef for last iteration:  0.000D+00
 Rare condition: small coef for last iteration:  0.000D+00
 Rare condition: small coef for last iteration:  0.000D+00
 Restarting incremental Fock formation.
 Rare condition: small coef for last iteration:  0.000D+00
 Rare condition: small coef for last iteration:  0.000D+00
 Rare condition: small coef for last iteration:  0.000D+00
 Rare condition: small coef for last iteration:  0.000D+00
 Rare condition: small coef for last iteration:  0.000D+00
 Rare condition: small coef for last iteration:  0.000D+00
 Rare condition: small coef for last iteration:  0.000D+00
 Rare condition: small coef for last iteration:  0.000D+00
 Rare condition: small coef for last iteration:  0.000D+00
 Restarting incremental Fock formation.
 Rare condition: small coef for last iteration:  0.000D+00
 Rare condition: small coef for last iteration:  0.000D+00
 Rare condition: small coef for last iteration:  0.000D+00
 Rare condition: small coef for last iteration:  0.000D+00
 Rare condition: small coef for last iteration:  0.000D+00
 Rare condition: small coef for last iteration:  0.000D+00
 Rare condition: small coef for last iteration:  0.000D+00
 Rare condition: small coef for last iteration:  0.000D+00
 Rare condition: small coef for last iteration:  0.000D+00
 Restarting incremental Fock formation.
 Rare condition: small coef for last iteration:  0.000D+00
 Rare condition: small coef for last iteration:  0.000D+00
 Rare condition: small coef for last iteration:  0.000D+00
 Rare condition: small coef for last iteration:  0.000D+00
 Rare condition: small coef for last iteration:  0.000D+00
 Rare condition: small coef for last iteration:  0.000D+00
 Rare condition: small coef for last iteration:  0.000D+00
 Restarting incremental Fock formation.
 Restarting incremental Fock formation.
 Restarting incremental Fock formation.
 Restarting incremental Fock formation.
 Restarting incremental Fock formation.
 Restarting incremental Fock formation.
 Density matrix is not changing but DIIS error= 4.51D-04 CofLast= 4.92D-01.
 Restarting incremental Fock formation.
 Restarting incremental Fock formation.
 Restarting incremental Fock formation.
 Restarting incremental Fock formation.
 Restarting incremental Fock formation.
 SCF Done:  E(UAPFD) =  -2794.76487034     A.U. after  324 cycles
            NFock=324  Conv=0.28D-08     -V/T= 2.0029
 <Sx>= 0.0000 <Sy>= 0.0000 <Sz>= 2.5000 <S**2>= 8.7583 S= 2.5014
 <L.S>=  0.00000000000    
 Annihilation of the first spin contaminant:
 S**2 before annihilation     8.7583,   after     8.7500

 **********************************************************************

            Population analysis using the SCF Density.

 **********************************************************************

 Orbital symmetries:
 Alpha Orbitals:
       Occupied  (A) (A) (A) (A) (A) (A) (A) (A) (A) (A) (A) (A)
                 (A) (A) (A) (A) (A) (A) (A) (A) (A) (A) (A) (A)
                 (A) (A) (A) (A) (A) (A) (A) (A) (A) (A) (A) (A)
                 (A) (A) (A) (A) (A) (A) (A) (A) (A) (A) (A) (A)
                 (A) (A) (A) (A) (A) (A) (A) (A) (A) (A) (A) (A)
                 (A) (A) (A) (A) (A) (A) (A) (A) (A) (A) (A) (A)
                 (A) (A) (A) (A) (A) (A) (A) (A) (A) (A) (A) (A)
                 (A) (A) (A) (A) (A) (A) (A) (A) (A) (A) (A) (A)
                 (A) (A) (A) (A) (A) (A) (A) (A) (A) (A) (A) (A)
                 (A) (A) (A) (A) (A) (A) (A) (A) (A) (A) (A) (A)
                 (A) (A) (A) (A) (A) (A) (A) (A) (A) (A) (A) (A)
                 (A) (A) (A) (A) (A) (A) (A) (A) (A) (A) (A)
       Virtual   (A) (A) (A) (A) (A) (A) (A) (A) (A) (A) (A) (A)
                 (A) (A) (A) (A) (A) (A) (A) (A) (A) (A) (A) (A)
                 (A) (A) (A) (A) (A) (A) (A) (A) (A) (A) (A) (A)
                 (A) (A) (A) (A) (A) (A) (A) (A) (A) (A) (A) (A)
                 (A) (A) (A) (A) (A) (A) (A) (A) (A) (A) (A) (A)
                 (A) (A) (A) (A) (A) (A) (A) (A) (A) (A) (A) (A)
                 (A) (A) (A) (A) (A) (A) (A) (A) (A) (A) (A) (A)
                 (A) (A) (A) (A) (A) (A) (A) (A) (A) (A) (A) (A)
                 (A) (A) (A) (A) (A) (A) (A) (A) (A) (A) (A) (A)
                 (A) (A) (A) (A) (A) (A) (A) (A) (A) (A) (A) (A)
                 (A) (A) (A) (A) (A) (A) (A) (A) (A) (A) (A) (A)
                 (A) (A) (A) (A) (A) (A) (A) (A) (A) (A) (A) (A)
                 (A) (A) (A) (A) (A) (A) (A) (A) (A) (A) (A) (A)
                 (A) (A) (A) (A) (A) (A) (A) (A) (A) (A) (A) (A)
                 (A) (A) (A) (A) (A) (A) (A) (A) (A) (A) (A) (A)
                 (A) (A) (A) (A) (A) (A) (A) (A) (A) (A) (A) (A)
                 (A) (A) (A) (A) (A) (A) (A) (A) (A) (A) (A) (A)
                 (A) (A) (A) (A) (A) (A) (A) (A) (A) (A) (A) (A)
                 (A) (A) (A) (A) (A) (A) (A) (A) (A) (A) (A) (A)
                 (A) (A) (A) (A) (A) (A) (A) (A) (A) (A) (A) (A)
                 (A) (A) (A) (A) (A) (A) (A) (A) (A) (A) (A) (A)
                 (A) (A) (A) (A) (A) (A) (A) (A) (A) (A) (A) (A)
                 (A) (A) (A) (A) (A) (A) (A) (A) (A) (A) (A) (A)
                 (A) (A) (A) (A) (A) (A) (A) (A) (A) (A) (A) (A)
                 (A) (A) (A) (A) (A) (A) (A) (A) (A) (A) (A) (A)
                 (A) (A) (A) (A) (A) (A) (A) (A) (A) (A) (A) (A)
                 (A) (A) (A) (A) (A) (A) (A) (A) (A) (A) (A) (A)
                 (A) (A) (A) (A) (A) (A) (A) (A) (A) (A) (A) (A)
                 (A) (A) (A) (A) (A) (A) (A) (A) (A) (A) (A) (A)
                 (A) (A) (A) (A) (A) (A) (A) (A) (A) (A) (A) (A)
                 (A) (A) (A) (A) (A) (A) (A) (A) (A) (A) (A) (A)
                 (A) (A) (A) (A) (A) (A) (A) (A) (A) (A) (A) (A)
                 (A) (A) (A) (A) (A) (A) (A) (A) (A) (A) (A) (A)
                 (A) (A) (A) (A) (A) (A) (A) (A) (A) (A) (A) (A)
                 (A) (A) (A) (A) (A) (A) (A) (A) (A) (A) (A) (A)
                 (A) (A) (A) (A) (A) (A) (A) (A) (A) (A) (A) (A)
                 (A) (A) (A) (A) (A) (A) (A) (A) (A) (A) (A) (A)
                 (A) (A) (A) (A) (A) (A) (A) (A) (A) (A) (A) (A)
                 (A) (A) (A) (A) (A) (A) (A) (A) (A) (A) (A) (A)
                 (A) (A) (A) (A) (A) (A) (A) (A) (A) (A) (A) (A)
                 (A) (A) (A) (A) (A) (A) (A) (A) (A) (A) (A) (A)
                 (A) (A) (A) (A) (A) (A) (A) (A) (A) (A) (A) (A)
                 (A) (A) (A) (A) (A) (A) (A) (A) (A) (A) (A) (A)
                 (A) (A) (A) (A) (A) (A) (A) (A) (A) (A) (A) (A)
                 (A) (A) (A) (A) (A) (A) (A) (A) (A) (A) (A) (A)
                 (A) (A) (A) (A) (A) (A) (A) (A) (A) (A) (A) (A)
                 (A) (A) (A) (A) (A) (A) (A) (A) (A) (A) (A) (A)
                 (A) (A) (A) (A) (A) (A) (A) (A) (A) (A) (A) (A)
                 (A) (A) (A) (A) (A) (A) (A) (A) (A) (A) (A) (A)
                 (A) (A) (A) (A) (A) (A) (A) (A) (A) (A) (A) (A)
                 (A) (A) (A) (A) (A) (A) (A) (A) (A) (A) (A) (A)
                 (A) (A) (A) (A) (A) (A) (A) (A) (A) (A) (A) (A)
                 (A) (A) (A) (A) (A) (A) (A) (A) (A) (A) (A) (A)
                 (A) (A) (A) (A) (A) (A) (A) (A) (A) (A) (A) (A)
                 (A) (A) (A) (A) (A) (A) (A) (A) (A) (A) (A) (A)
                 (A) (A) (A) (A) (A) (A) (A) (A) (A) (A) (A) (A)
                 (A) (A) (A) (A) (A) (A) (A) (A) (A) (A) (A) (A)
                 (A) (A) (A) (A) (A) (A) (A) (A) (A) (A) (A) (A)
                 (A) (A) (A) (A) (A) (A) (A) (A) (A) (A) (A) (A)
                 (A) (A) (A) (A) (A) (A) (A) (A) (A) (A) (A) (A)
                 (A) (A) (A) (A) (A) (A) (A) (A) (A) (A) (A) (A)
                 (A) (A) (A) (A) (A) (A) (A) (A) (A) (A) (A) (A)
                 (A) (A) (A) (A) (A) (A) (A) (A) (A) (A) (A) (A)
                 (A) (A) (A) (A) (A) (A) (A) (A) (A) (A) (A) (A)
                 (A) (A) (A) (A) (A) (A) (A) (A) (A) (A) (A) (A)
                 (A) (A) (A) (A) (A) (A) (A) (A) (A) (A) (A) (A)
                 (A) (A) (A) (A) (A) (A) (A) (A) (A) (A) (A) (A)
                 (A) (A) (A) (A) (A) (A) (A) (A) (A) (A) (A) (A)
                 (A) (A) (A) (A) (A) (A) (A) (A) (A) (A) (A) (A)
                 (A) (A) (A) (A) (A) (A) (A) (A) (A) (A) (A) (A)
                 (A) (A) (A) (A) (A) (A) (A) (A) (A) (A) (A) (A)
                 (A) (A) (A) (A) (A) (A) (A) (A) (A) (A) (A) (A)
                 (A) (A) (A) (A) (A) (A) (A) (A) (A) (A) (A) (A)
                 (A) (A) (A) (A) (A) (A) (A) (A) (A) (A) (A) (A)
                 (A) (A) (A) (A) (A) (A) (A) (A) (A) (A) (A) (A)
                 (A) (A) (A) (A) (A) (A) (A) (A) (A) (A) (A) (A)
                 (A) (A) (A) (A) (A) (A) (A) (A) (A) (A) (A) (A)
                 (A) (A) (A) (A) (A) (A) (A) (A) (A) (A) (A) (A)
                 (A) (A) (A) (A) (A) (A) (A) (A) (A) (A) (A) (A)
                 (A) (A) (A) (A) (A) (A) (A) (A) (A) (A) (A) (A)
                 (A) (A) (A) (A) (A) (A) (A) (A) (A) (A) (A) (A)
                 (A) (A) (A) (A) (A) (A) (A) (A) (A) (A) (A) (A)
                 (A) (A) (A) (A) (A) (A) (A) (A) (A) (A) (A) (A)
                 (A) (A) (A) (A) (A) (A) (A) (A) (A) (A) (A) (A)
                 (A) (A) (A) (A) (A) (A) (A) (A) (A) (A) (A) (A)
                 (A) (A) (A) (A) (A) (A) (A) (A) (A) (A) (A) (A)
                 (A) (A) (A) (A) (A) (A) (A) (A) (A) (A) (A) (A)
                 (A) (A) (A) (A) (A) (A) (A) (A) (A) (A) (A) (A)
                 (A) (A) (A) (A) (A) (A) (A) (A) (A) (A) (A) (A)
                 (A) (A) (A) (A) (A) (A) (A) (A) (A) (A) (A) (A)
                 (A) (A) (A) (A) (A) (A) (A) (A) (A) (A) (A) (A)
                 (A) (A) (A) (A) (A) (A) (A) (A) (A) (A) (A) (A)
                 (A) (A) (A) (A) (A) (A) (A) (A) (A) (A) (A) (A)
                 (A) (A) (A) (A) (A) (A) (A) (A) (A) (A) (A) (A)
                 (A) (A) (A) (A) (A) (A) (A) (A) (A) (A) (A) (A)
                 (A) (A) (A) (A) (A) (A) (A) (A) (A) (A) (A) (A)
                 (A) (A) (A) (A) (A) (A) (A) (A) (A) (A) (A) (A)
                 (A) (A) (A) (A) (A) (A) (A) (A) (A) (A) (A) (A)
                 (A) (A) (A) (A) (A) (A) (A) (A) (A) (A) (A) (A)
                 (A) (A) (A) (A) (A) (A) (A) (A) (A) (A) (A) (A)
                 (A) (A) (A) (A) (A) (A) (A) (A) (A) (A)
 Beta  Orbitals:
       Occupied  (A) (A) (A) (A) (A) (A) (A) (A) (A) (A) (A) (A)
                 (A) (A) (A) (A) (A) (A) (A) (A) (A) (A) (A) (A)
                 (A) (A) (A) (A) (A) (A) (A) (A) (A) (A) (A) (A)
                 (A) (A) (A) (A) (A) (A) (A) (A) (A) (A) (A) (A)
                 (A) (A) (A) (A) (A) (A) (A) (A) (A) (A) (A) (A)
                 (A) (A) (A) (A) (A) (A) (A) (A) (A) (A) (A) (A)
                 (A) (A) (A) (A) (A) (A) (A) (A) (A) (A) (A) (A)
                 (A) (A) (A) (A) (A) (A) (A) (A) (A) (A) (A) (A)
                 (A) (A) (A) (A) (A) (A) (A) (A) (A) (A) (A) (A)
                 (A) (A) (A) (A) (A) (A) (A) (A) (A) (A) (A) (A)
                 (A) (A) (A) (A) (A) (A) (A) (A) (A) (A) (A) (A)
                 (A) (A) (A) (A) (A) (A)
       Virtual   (A) (A) (A) (A) (A) (A) (A) (A) (A) (A) (A) (A)
                 (A) (A) (A) (A) (A) (A) (A) (A) (A) (A) (A) (A)
                 (A) (A) (A) (A) (A) (A) (A) (A) (A) (A) (A) (A)
                 (A) (A) (A) (A) (A) (A) (A) (A) (A) (A) (A) (A)
                 (A) (A) (A) (A) (A) (A) (A) (A) (A) (A) (A) (A)
                 (A) (A) (A) (A) (A) (A) (A) (A) (A) (A) (A) (A)
                 (A) (A) (A) (A) (A) (A) (A) (A) (A) (A) (A) (A)
                 (A) (A) (A) (A) (A) (A) (A) (A) (A) (A) (A) (A)
                 (A) (A) (A) (A) (A) (A) (A) (A) (A) (A) (A) (A)
                 (A) (A) (A) (A) (A) (A) (A) (A) (A) (A) (A) (A)
                 (A) (A) (A) (A) (A) (A) (A) (A) (A) (A) (A) (A)
                 (A) (A) (A) (A) (A) (A) (A) (A) (A) (A) (A) (A)
                 (A) (A) (A) (A) (A) (A) (A) (A) (A) (A) (A) (A)
                 (A) (A) (A) (A) (A) (A) (A) (A) (A) (A) (A) (A)
                 (A) (A) (A) (A) (A) (A) (A) (A) (A) (A) (A) (A)
                 (A) (A) (A) (A) (A) (A) (A) (A) (A) (A) (A) (A)
                 (A) (A) (A) (A) (A) (A) (A) (A) (A) (A) (A) (A)
                 (A) (A) (A) (A) (A) (A) (A) (A) (A) (A) (A) (A)
                 (A) (A) (A) (A) (A) (A) (A) (A) (A) (A) (A) (A)
                 (A) (A) (A) (A) (A) (A) (A) (A) (A) (A) (A) (A)
                 (A) (A) (A) (A) (A) (A) (A) (A) (A) (A) (A) (A)
                 (A) (A) (A) (A) (A) (A) (A) (A) (A) (A) (A) (A)
                 (A) (A) (A) (A) (A) (A) (A) (A) (A) (A) (A) (A)
                 (A) (A) (A) (A) (A) (A) (A) (A) (A) (A) (A) (A)
                 (A) (A) (A) (A) (A) (A) (A) (A) (A) (A) (A) (A)
                 (A) (A) (A) (A) (A) (A) (A) (A) (A) (A) (A) (A)
                 (A) (A) (A) (A) (A) (A) (A) (A) (A) (A) (A) (A)
                 (A) (A) (A) (A) (A) (A) (A) (A) (A) (A) (A) (A)
                 (A) (A) (A) (A) (A) (A) (A) (A) (A) (A) (A) (A)
                 (A) (A) (A) (A) (A) (A) (A) (A) (A) (A) (A) (A)
                 (A) (A) (A) (A) (A) (A) (A) (A) (A) (A) (A) (A)
                 (A) (A) (A) (A) (A) (A) (A) (A) (A) (A) (A) (A)
                 (A) (A) (A) (A) (A) (A) (A) (A) (A) (A) (A) (A)
                 (A) (A) (A) (A) (A) (A) (A) (A) (A) (A) (A) (A)
                 (A) (A) (A) (A) (A) (A) (A) (A) (A) (A) (A) (A)
                 (A) (A) (A) (A) (A) (A) (A) (A) (A) (A) (A) (A)
                 (A) (A) (A) (A) (A) (A) (A) (A) (A) (A) (A) (A)
                 (A) (A) (A) (A) (A) (A) (A) (A) (A) (A) (A) (A)
                 (A) (A) (A) (A) (A) (A) (A) (A) (A) (A) (A) (A)
                 (A) (A) (A) (A) (A) (A) (A) (A) (A) (A) (A) (A)
                 (A) (A) (A) (A) (A) (A) (A) (A) (A) (A) (A) (A)
                 (A) (A) (A) (A) (A) (A) (A) (A) (A) (A) (A) (A)
                 (A) (A) (A) (A) (A) (A) (A) (A) (A) (A) (A) (A)
                 (A) (A) (A) (A) (A) (A) (A) (A) (A) (A) (A) (A)
                 (A) (A) (A) (A) (A) (A) (A) (A) (A) (A) (A) (A)
                 (A) (A) (A) (A) (A) (A) (A) (A) (A) (A) (A) (A)
                 (A) (A) (A) (A) (A) (A) (A) (A) (A) (A) (A) (A)
                 (A) (A) (A) (A) (A) (A) (A) (A) (A) (A) (A) (A)
                 (A) (A) (A) (A) (A) (A) (A) (A) (A) (A) (A) (A)
                 (A) (A) (A) (A) (A) (A) (A) (A) (A) (A) (A) (A)
                 (A) (A) (A) (A) (A) (A) (A) (A) (A) (A) (A) (A)
                 (A) (A) (A) (A) (A) (A) (A) (A) (A) (A) (A) (A)
                 (A) (A) (A) (A) (A) (A) (A) (A) (A) (A) (A) (A)
                 (A) (A) (A) (A) (A) (A) (A) (A) (A) (A) (A) (A)
                 (A) (A) (A) (A) (A) (A) (A) (A) (A) (A) (A) (A)
                 (A) (A) (A) (A) (A) (A) (A) (A) (A) (A) (A) (A)
                 (A) (A) (A) (A) (A) (A) (A) (A) (A) (A) (A) (A)
                 (A) (A) (A) (A) (A) (A) (A) (A) (A) (A) (A) (A)
                 (A) (A) (A) (A) (A) (A) (A) (A) (A) (A) (A) (A)
                 (A) (A) (A) (A) (A) (A) (A) (A) (A) (A) (A) (A)
                 (A) (A) (A) (A) (A) (A) (A) (A) (A) (A) (A) (A)
                 (A) (A) (A) (A) (A) (A) (A) (A) (A) (A) (A) (A)
                 (A) (A) (A) (A) (A) (A) (A) (A) (A) (A) (A) (A)
                 (A) (A) (A) (A) (A) (A) (A) (A) (A) (A) (A) (A)
                 (A) (A) (A) (A) (A) (A) (A) (A) (A) (A) (A) (A)
                 (A) (A) (A) (A) (A) (A) (A) (A) (A) (A) (A) (A)
                 (A) (A) (A) (A) (A) (A) (A) (A) (A) (A) (A) (A)
                 (A) (A) (A) (A) (A) (A) (A) (A) (A) (A) (A) (A)
                 (A) (A) (A) (A) (A) (A) (A) (A) (A) (A) (A) (A)
                 (A) (A) (A) (A) (A) (A) (A) (A) (A) (A) (A) (A)
                 (A) (A) (A) (A) (A) (A) (A) (A) (A) (A) (A) (A)
                 (A) (A) (A) (A) (A) (A) (A) (A) (A) (A) (A) (A)
                 (A) (A) (A) (A) (A) (A) (A) (A) (A) (A) (A) (A)
                 (A) (A) (A) (A) (A) (A) (A) (A) (A) (A) (A) (A)
                 (A) (A) (A) (A) (A) (A) (A) (A) (A) (A) (A) (A)
                 (A) (A) (A) (A) (A) (A) (A) (A) (A) (A) (A) (A)
                 (A) (A) (A) (A) (A) (A) (A) (A) (A) (A) (A) (A)
                 (A) (A) (A) (A) (A) (A) (A) (A) (A) (A) (A) (A)
                 (A) (A) (A) (A) (A) (A) (A) (A) (A) (A) (A) (A)
                 (A) (A) (A) (A) (A) (A) (A) (A) (A) (A) (A) (A)
                 (A) (A) (A) (A) (A) (A) (A) (A) (A) (A) (A) (A)
                 (A) (A) (A) (A) (A) (A) (A) (A) (A) (A) (A) (A)
                 (A) (A) (A) (A) (A) (A) (A) (A) (A) (A) (A) (A)
                 (A) (A) (A) (A) (A) (A) (A) (A) (A) (A) (A) (A)
                 (A) (A) (A) (A) (A) (A) (A) (A) (A) (A) (A) (A)
                 (A) (A) (A) (A) (A) (A) (A) (A) (A) (A) (A) (A)
                 (A) (A) (A) (A) (A) (A) (A) (A) (A) (A) (A) (A)
                 (A) (A) (A) (A) (A) (A) (A) (A) (A) (A) (A) (A)
                 (A) (A) (A) (A) (A) (A) (A) (A) (A) (A) (A) (A)
                 (A) (A) (A) (A) (A) (A) (A) (A) (A) (A) (A) (A)
                 (A) (A) (A) (A) (A) (A) (A) (A) (A) (A) (A) (A)
                 (A) (A) (A) (A) (A) (A) (A) (A) (A) (A) (A) (A)
                 (A) (A) (A) (A) (A) (A) (A) (A) (A) (A) (A) (A)
                 (A) (A) (A) (A) (A) (A) (A) (A) (A) (A) (A) (A)
                 (A) (A) (A) (A) (A) (A) (A) (A) (A) (A) (A) (A)
                 (A) (A) (A) (A) (A) (A) (A) (A) (A) (A) (A) (A)
                 (A) (A) (A) (A) (A) (A) (A) (A) (A) (A) (A) (A)
                 (A) (A) (A) (A) (A) (A) (A) (A) (A) (A) (A) (A)
                 (A) (A) (A) (A) (A) (A) (A) (A) (A) (A) (A) (A)
                 (A) (A) (A) (A) (A) (A) (A) (A) (A) (A) (A) (A)
                 (A) (A) (A) (A) (A) (A) (A) (A) (A) (A) (A) (A)
                 (A) (A) (A)
 The electronic state is 6-A.
 Alpha  occ. eigenvalues -- -256.44094 -30.35038 -26.18126 -26.17896 -26.17863
 Alpha  occ. eigenvalues --  -19.32981 -19.32746 -14.46402 -14.46346 -14.45634
 Alpha  occ. eigenvalues --  -14.45577 -10.33936 -10.33741 -10.33678 -10.33678
 Alpha  occ. eigenvalues --  -10.33512 -10.33484 -10.33436 -10.33395 -10.30992
 Alpha  occ. eigenvalues --  -10.30761 -10.30671 -10.30634 -10.30440 -10.30417
 Alpha  occ. eigenvalues --  -10.30414 -10.30396 -10.30392 -10.30353 -10.30276
 Alpha  occ. eigenvalues --  -10.30137 -10.29597 -10.29315 -10.28695 -10.28679
 Alpha  occ. eigenvalues --  -10.28462 -10.28438 -10.28407 -10.28383 -10.28146
 Alpha  occ. eigenvalues --  -10.28066  -3.80536  -2.57472  -2.56993  -2.56881
 Alpha  occ. eigenvalues --   -1.21497  -1.21193  -1.10229  -1.09502  -1.08830
 Alpha  occ. eigenvalues --   -1.08130  -0.94552  -0.93335  -0.92852  -0.92496
 Alpha  occ. eigenvalues --   -0.92121  -0.91741  -0.91628  -0.87640  -0.86403
 Alpha  occ. eigenvalues --   -0.86225  -0.85194  -0.83757  -0.82138  -0.81113
 Alpha  occ. eigenvalues --   -0.79633  -0.79327  -0.79105  -0.76821  -0.76417
 Alpha  occ. eigenvalues --   -0.76153  -0.75946  -0.71705  -0.71003  -0.69926
 Alpha  occ. eigenvalues --   -0.69440  -0.66191  -0.65712  -0.65380  -0.64969
 Alpha  occ. eigenvalues --   -0.64731  -0.63371  -0.62993  -0.62868  -0.62496
 Alpha  occ. eigenvalues --   -0.59596  -0.59483  -0.59387  -0.59159  -0.58112
 Alpha  occ. eigenvalues --   -0.57880  -0.57185  -0.56771  -0.55840  -0.55733
 Alpha  occ. eigenvalues --   -0.54929  -0.54885  -0.54540  -0.54437  -0.54240
 Alpha  occ. eigenvalues --   -0.53839  -0.53522  -0.53147  -0.52681  -0.52346
 Alpha  occ. eigenvalues --   -0.51487  -0.51328  -0.51270  -0.51124  -0.50968
 Alpha  occ. eigenvalues --   -0.50549  -0.50428  -0.50307  -0.50075  -0.49829
 Alpha  occ. eigenvalues --   -0.49430  -0.49192  -0.48921  -0.48512  -0.48359
 Alpha  occ. eigenvalues --   -0.48006  -0.47821  -0.47171  -0.46766  -0.46146
 Alpha  occ. eigenvalues --   -0.45888  -0.44751  -0.44309  -0.43922  -0.43697
 Alpha  occ. eigenvalues --   -0.43015  -0.41362  -0.40700  -0.40102  -0.38734
 Alpha  occ. eigenvalues --   -0.38427  -0.35541  -0.35008  -0.34009  -0.33736
 Alpha  occ. eigenvalues --   -0.33216  -0.30921  -0.29908
 Alpha virt. eigenvalues --   -0.18917  -0.18777  -0.13103  -0.09808  -0.09723
 Alpha virt. eigenvalues --   -0.08752  -0.07302  -0.06579  -0.04918  -0.04117
 Alpha virt. eigenvalues --   -0.03787  -0.03648  -0.03132  -0.02951  -0.02029
 Alpha virt. eigenvalues --   -0.01891  -0.01212  -0.00521  -0.00359   0.00186
 Alpha virt. eigenvalues --    0.00693   0.01055   0.01351   0.01725   0.01801
 Alpha virt. eigenvalues --    0.02189   0.02299   0.02512   0.02651   0.02804
 Alpha virt. eigenvalues --    0.02944   0.03296   0.03685   0.03942   0.04215
 Alpha virt. eigenvalues --    0.04279   0.04566   0.04704   0.05145   0.05200
 Alpha virt. eigenvalues --    0.05730   0.06047   0.06371   0.06506   0.06875
 Alpha virt. eigenvalues --    0.07277   0.07353   0.07581   0.07693   0.07842
 Alpha virt. eigenvalues --    0.08278   0.08372   0.08646   0.09108   0.09931
 Alpha virt. eigenvalues --    0.10220   0.10340   0.10721   0.10748   0.10781
 Alpha virt. eigenvalues --    0.11077   0.11536   0.11883   0.12098   0.12396
 Alpha virt. eigenvalues --    0.12524   0.12716   0.12785   0.13469   0.13754
 Alpha virt. eigenvalues --    0.14141   0.14661   0.14992   0.15630   0.15825
 Alpha virt. eigenvalues --    0.15895   0.16216   0.16715   0.16783   0.17003
 Alpha virt. eigenvalues --    0.17177   0.17303   0.17638   0.18035   0.18612
 Alpha virt. eigenvalues --    0.18754   0.19171   0.19432   0.19672   0.19831
 Alpha virt. eigenvalues --    0.20152   0.20372   0.20492   0.20788   0.21019
 Alpha virt. eigenvalues --    0.21346   0.21791   0.22336   0.22437   0.22780
 Alpha virt. eigenvalues --    0.23065   0.23289   0.23565   0.23696   0.23911
 Alpha virt. eigenvalues --    0.24007   0.24702   0.25105   0.25455   0.25556
 Alpha virt. eigenvalues --    0.25765   0.26279   0.26455   0.26648   0.26972
 Alpha virt. eigenvalues --    0.27403   0.27865   0.27944   0.28458   0.28648
 Alpha virt. eigenvalues --    0.28764   0.29164   0.29362   0.29605   0.30049
 Alpha virt. eigenvalues --    0.30255   0.30613   0.30830   0.31018   0.31305
 Alpha virt. eigenvalues --    0.31470   0.31783   0.31882   0.32128   0.32677
 Alpha virt. eigenvalues --    0.33028   0.33230   0.33295   0.33915   0.34323
 Alpha virt. eigenvalues --    0.34380   0.34976   0.35351   0.35547   0.35781
 Alpha virt. eigenvalues --    0.36131   0.36407   0.36952   0.37085   0.37316
 Alpha virt. eigenvalues --    0.37402   0.37850   0.38009   0.38260   0.38542
 Alpha virt. eigenvalues --    0.39008   0.39177   0.39260   0.39363   0.39829
 Alpha virt. eigenvalues --    0.39852   0.40050   0.40307   0.40724   0.40834
 Alpha virt. eigenvalues --    0.41402   0.41507   0.41677   0.41756   0.41970
 Alpha virt. eigenvalues --    0.41996   0.42288   0.42419   0.42866   0.43039
 Alpha virt. eigenvalues --    0.43274   0.43688   0.43855   0.44046   0.44226
 Alpha virt. eigenvalues --    0.44298   0.44432   0.44631   0.45045   0.45454
 Alpha virt. eigenvalues --    0.45513   0.46005   0.46458   0.46612   0.46881
 Alpha virt. eigenvalues --    0.47308   0.47545   0.47826   0.48204   0.48890
 Alpha virt. eigenvalues --    0.48950   0.49802   0.49848   0.50341   0.50620
 Alpha virt. eigenvalues --    0.51156   0.51379   0.52018   0.52164   0.52492
 Alpha virt. eigenvalues --    0.52645   0.52815   0.53393   0.53623   0.53650
 Alpha virt. eigenvalues --    0.53977   0.54300   0.54766   0.55051   0.55440
 Alpha virt. eigenvalues --    0.55909   0.56143   0.56450   0.56829   0.57004
 Alpha virt. eigenvalues --    0.57108   0.57586   0.57694   0.58359   0.58666
 Alpha virt. eigenvalues --    0.59013   0.59339   0.59733   0.59929   0.60314
 Alpha virt. eigenvalues --    0.60832   0.60995   0.61369   0.61895   0.62341
 Alpha virt. eigenvalues --    0.62672   0.62864   0.62993   0.63113   0.63848
 Alpha virt. eigenvalues --    0.64170   0.64441   0.64831   0.65235   0.65414
 Alpha virt. eigenvalues --    0.65810   0.66221   0.66972   0.67110   0.67606
 Alpha virt. eigenvalues --    0.68086   0.68261   0.68752   0.69032   0.69242
 Alpha virt. eigenvalues --    0.69530   0.70995   0.71621   0.71803   0.72074
 Alpha virt. eigenvalues --    0.72318   0.73129   0.73522   0.73639   0.74217
 Alpha virt. eigenvalues --    0.74392   0.74964   0.75353   0.75820   0.76194
 Alpha virt. eigenvalues --    0.76584   0.77273   0.77438   0.77991   0.78330
 Alpha virt. eigenvalues --    0.79291   0.79649   0.79741   0.80359   0.80460
 Alpha virt. eigenvalues --    0.81157   0.81321   0.81831   0.82444   0.82668
 Alpha virt. eigenvalues --    0.83350   0.83826   0.84262   0.84608   0.84824
 Alpha virt. eigenvalues --    0.85175   0.85515   0.86235   0.86572   0.86904
 Alpha virt. eigenvalues --    0.86999   0.87412   0.87585   0.88156   0.88962
 Alpha virt. eigenvalues --    0.89391   0.89597   0.89811   0.90115   0.90591
 Alpha virt. eigenvalues --    0.90961   0.91112   0.91239   0.91682   0.91968
 Alpha virt. eigenvalues --    0.92348   0.92612   0.92924   0.93226   0.93836
 Alpha virt. eigenvalues --    0.93882   0.94084   0.94512   0.94808   0.95393
 Alpha virt. eigenvalues --    0.95756   0.96262   0.97377   0.97926   0.98199
 Alpha virt. eigenvalues --    0.98748   0.98916   0.99641   1.00468   1.00729
 Alpha virt. eigenvalues --    1.01805   1.02300   1.02901   1.03404   1.04152
 Alpha virt. eigenvalues --    1.04501   1.05290   1.05490   1.06192   1.06675
 Alpha virt. eigenvalues --    1.06838   1.07053   1.07932   1.08270   1.08921
 Alpha virt. eigenvalues --    1.09271   1.09504   1.10075   1.10260   1.10443
 Alpha virt. eigenvalues --    1.11137   1.11287   1.11855   1.12348   1.13187
 Alpha virt. eigenvalues --    1.13249   1.13896   1.14320   1.14776   1.15673
 Alpha virt. eigenvalues --    1.16188   1.16260   1.16530   1.16865   1.17341
 Alpha virt. eigenvalues --    1.17633   1.17944   1.18217   1.18406   1.19516
 Alpha virt. eigenvalues --    1.19560   1.19813   1.20986   1.21213   1.21514
 Alpha virt. eigenvalues --    1.21827   1.22680   1.23054   1.24233   1.24775
 Alpha virt. eigenvalues --    1.25716   1.26371   1.26757   1.27318   1.27669
 Alpha virt. eigenvalues --    1.29307   1.29608   1.29957   1.30229   1.31076
 Alpha virt. eigenvalues --    1.31828   1.32506   1.32630   1.33754   1.34159
 Alpha virt. eigenvalues --    1.34369   1.34874   1.35038   1.35453   1.36213
 Alpha virt. eigenvalues --    1.36438   1.36892   1.37034   1.37601   1.38137
 Alpha virt. eigenvalues --    1.38428   1.38886   1.39189   1.39417   1.40073
 Alpha virt. eigenvalues --    1.40118   1.40271   1.40784   1.41154   1.41801
 Alpha virt. eigenvalues --    1.41991   1.42530   1.42824   1.42990   1.43478
 Alpha virt. eigenvalues --    1.43745   1.44146   1.44467   1.45154   1.45310
 Alpha virt. eigenvalues --    1.45380   1.45696   1.45795   1.46122   1.46279
 Alpha virt. eigenvalues --    1.46442   1.46772   1.47162   1.47411   1.47798
 Alpha virt. eigenvalues --    1.47915   1.48289   1.48539   1.48960   1.49479
 Alpha virt. eigenvalues --    1.49673   1.50460   1.51021   1.51155   1.51413
 Alpha virt. eigenvalues --    1.51939   1.52244   1.52293   1.52486   1.52954
 Alpha virt. eigenvalues --    1.53192   1.53432   1.54173   1.54979   1.55286
 Alpha virt. eigenvalues --    1.55752   1.55771   1.56343   1.56498   1.56863
 Alpha virt. eigenvalues --    1.57124   1.57457   1.58076   1.58593   1.58963
 Alpha virt. eigenvalues --    1.59227   1.59456   1.59667   1.60346   1.60979
 Alpha virt. eigenvalues --    1.61415   1.62048   1.62462   1.62557   1.63381
 Alpha virt. eigenvalues --    1.63660   1.63841   1.64682   1.64951   1.66507
 Alpha virt. eigenvalues --    1.66915   1.68185   1.68576   1.68753   1.69542
 Alpha virt. eigenvalues --    1.69961   1.70318   1.70984   1.72004   1.72103
 Alpha virt. eigenvalues --    1.72546   1.73151   1.73738   1.73831   1.74671
 Alpha virt. eigenvalues --    1.74801   1.75862   1.76685   1.76788   1.77576
 Alpha virt. eigenvalues --    1.77641   1.78118   1.78343   1.78546   1.79165
 Alpha virt. eigenvalues --    1.79615   1.80049   1.80601   1.81176   1.81270
 Alpha virt. eigenvalues --    1.81578   1.82789   1.83702   1.84564   1.85068
 Alpha virt. eigenvalues --    1.85649   1.86045   1.86290   1.87207   1.87625
 Alpha virt. eigenvalues --    1.87721   1.88530   1.88994   1.89227   1.89807
 Alpha virt. eigenvalues --    1.90322   1.90533   1.90652   1.91145   1.91640
 Alpha virt. eigenvalues --    1.92065   1.92540   1.93262   1.93824   1.94700
 Alpha virt. eigenvalues --    1.95109   1.96124   1.96530   1.97588   1.98060
 Alpha virt. eigenvalues --    1.98583   1.98808   1.99400   1.99731   2.00073
 Alpha virt. eigenvalues --    2.00699   2.01697   2.02133   2.02331   2.03068
 Alpha virt. eigenvalues --    2.03558   2.03897   2.04587   2.04923   2.05353
 Alpha virt. eigenvalues --    2.05586   2.05836   2.07333   2.07676   2.07992
 Alpha virt. eigenvalues --    2.08220   2.08853   2.10069   2.10567   2.11248
 Alpha virt. eigenvalues --    2.11374   2.11677   2.12405   2.13289   2.13678
 Alpha virt. eigenvalues --    2.13844   2.14794   2.15283   2.15494   2.15695
 Alpha virt. eigenvalues --    2.16323   2.16744   2.17376   2.18215   2.18409
 Alpha virt. eigenvalues --    2.18714   2.18933   2.19728   2.19828   2.20131
 Alpha virt. eigenvalues --    2.21075   2.21925   2.22029   2.22568   2.24013
 Alpha virt. eigenvalues --    2.24904   2.25370   2.25850   2.26066   2.26713
 Alpha virt. eigenvalues --    2.27099   2.27313   2.27763   2.27932   2.28239
 Alpha virt. eigenvalues --    2.28807   2.29133   2.29369   2.29944   2.30575
 Alpha virt. eigenvalues --    2.31094   2.31703   2.32371   2.32616   2.33184
 Alpha virt. eigenvalues --    2.33587   2.34099   2.34774   2.34868   2.35161
 Alpha virt. eigenvalues --    2.35568   2.36337   2.36740   2.37007   2.37922
 Alpha virt. eigenvalues --    2.38601   2.39629   2.39882   2.40525   2.40930
 Alpha virt. eigenvalues --    2.41825   2.42753   2.43140   2.43673   2.43868
 Alpha virt. eigenvalues --    2.44579   2.44880   2.44945   2.45191   2.45999
 Alpha virt. eigenvalues --    2.46441   2.46707   2.46964   2.47160   2.47834
 Alpha virt. eigenvalues --    2.48012   2.48404   2.48749   2.49340   2.49675
 Alpha virt. eigenvalues --    2.50149   2.50438   2.50692   2.50827   2.51162
 Alpha virt. eigenvalues --    2.52294   2.52942   2.52958   2.53754   2.54210
 Alpha virt. eigenvalues --    2.54695   2.55042   2.55169   2.55767   2.56301
 Alpha virt. eigenvalues --    2.56548   2.56948   2.57885   2.57963   2.58435
 Alpha virt. eigenvalues --    2.58809   2.59103   2.59653   2.59804   2.60162
 Alpha virt. eigenvalues --    2.61093   2.61331   2.61635   2.62120   2.62289
 Alpha virt. eigenvalues --    2.63308   2.63540   2.63839   2.64413   2.64560
 Alpha virt. eigenvalues --    2.65998   2.66514   2.66677   2.67269   2.67594
 Alpha virt. eigenvalues --    2.67924   2.68327   2.69191   2.69553   2.69921
 Alpha virt. eigenvalues --    2.70513   2.70802   2.71527   2.71944   2.72011
 Alpha virt. eigenvalues --    2.72508   2.73023   2.73111   2.73680   2.74118
 Alpha virt. eigenvalues --    2.74705   2.75031   2.75399   2.76326   2.76460
 Alpha virt. eigenvalues --    2.76759   2.77005   2.77454   2.77971   2.78598
 Alpha virt. eigenvalues --    2.79109   2.79282   2.79570   2.80008   2.81011
 Alpha virt. eigenvalues --    2.81712   2.82177   2.82321   2.82580   2.83024
 Alpha virt. eigenvalues --    2.83747   2.84190   2.84484   2.84920   2.85266
 Alpha virt. eigenvalues --    2.85440   2.85984   2.86101   2.87196   2.87317
 Alpha virt. eigenvalues --    2.87580   2.88870   2.89037   2.89318   2.89974
 Alpha virt. eigenvalues --    2.90450   2.90477   2.91483   2.91944   2.92336
 Alpha virt. eigenvalues --    2.93338   2.93579   2.94113   2.94796   2.95190
 Alpha virt. eigenvalues --    2.95781   2.95996   2.96795   2.97137   2.97187
 Alpha virt. eigenvalues --    2.97469   2.97954   2.98237   2.98401   2.98789
 Alpha virt. eigenvalues --    2.99366   2.99505   2.99837   3.00136   3.00874
 Alpha virt. eigenvalues --    3.01313   3.01527   3.01972   3.02298   3.02462
 Alpha virt. eigenvalues --    3.02761   3.03417   3.03520   3.04526   3.04857
 Alpha virt. eigenvalues --    3.05437   3.05806   3.06102   3.06258   3.06792
 Alpha virt. eigenvalues --    3.06972   3.07357   3.08022   3.08218   3.08449
 Alpha virt. eigenvalues --    3.08945   3.09435   3.09829   3.10232   3.10492
 Alpha virt. eigenvalues --    3.10849   3.11317   3.11361   3.12087   3.12409
 Alpha virt. eigenvalues --    3.12874   3.12920   3.13085   3.13823   3.13968
 Alpha virt. eigenvalues --    3.14172   3.14644   3.14979   3.15179   3.15434
 Alpha virt. eigenvalues --    3.15871   3.16334   3.16514   3.16763   3.17076
 Alpha virt. eigenvalues --    3.17868   3.18132   3.18547   3.18991   3.19237
 Alpha virt. eigenvalues --    3.19546   3.19665   3.20055   3.20407   3.20585
 Alpha virt. eigenvalues --    3.20969   3.21118   3.21348   3.21959   3.22403
 Alpha virt. eigenvalues --    3.22513   3.22655   3.23305   3.23454   3.23850
 Alpha virt. eigenvalues --    3.24133   3.24383   3.24455   3.25043   3.25230
 Alpha virt. eigenvalues --    3.25683   3.25822   3.25876   3.26277   3.26419
 Alpha virt. eigenvalues --    3.26915   3.27179   3.27401   3.27874   3.27976
 Alpha virt. eigenvalues --    3.28166   3.28606   3.28950   3.29507   3.30109
 Alpha virt. eigenvalues --    3.30551   3.31329   3.31777   3.31896   3.32651
 Alpha virt. eigenvalues --    3.32914   3.33202   3.33470   3.33957   3.34370
 Alpha virt. eigenvalues --    3.34593   3.35243   3.36040   3.36328   3.36619
 Alpha virt. eigenvalues --    3.37534   3.38425   3.38802   3.39425   3.39850
 Alpha virt. eigenvalues --    3.40108   3.40951   3.41457   3.41986   3.42272
 Alpha virt. eigenvalues --    3.42571   3.43136   3.44037   3.44538   3.45040
 Alpha virt. eigenvalues --    3.45846   3.46230   3.46586   3.47118   3.47381
 Alpha virt. eigenvalues --    3.48205   3.48464   3.49793   3.50017   3.50390
 Alpha virt. eigenvalues --    3.50799   3.51377   3.52461   3.52682   3.53253
 Alpha virt. eigenvalues --    3.54165   3.54603   3.55174   3.55973   3.56657
 Alpha virt. eigenvalues --    3.57131   3.57580   3.58217   3.58783   3.59313
 Alpha virt. eigenvalues --    3.60058   3.60289   3.60687   3.60764   3.61251
 Alpha virt. eigenvalues --    3.61728   3.61826   3.62640   3.62997   3.63310
 Alpha virt. eigenvalues --    3.63691   3.63969   3.64399   3.64870   3.65619
 Alpha virt. eigenvalues --    3.66358   3.66824   3.67520   3.68115   3.68684
 Alpha virt. eigenvalues --    3.69276   3.70043   3.70474   3.70994   3.71194
 Alpha virt. eigenvalues --    3.71709   3.72778   3.73818   3.74589   3.74926
 Alpha virt. eigenvalues --    3.75196   3.75881   3.77139   3.77422   3.78025
 Alpha virt. eigenvalues --    3.78706   3.78866   3.80148   3.80398   3.81062
 Alpha virt. eigenvalues --    3.81593   3.81883   3.82188   3.84189   3.84587
 Alpha virt. eigenvalues --    3.85316   3.85810   3.86235   3.86693   3.86763
 Alpha virt. eigenvalues --    3.87887   3.88340   3.88462   3.89467   3.89886
 Alpha virt. eigenvalues --    3.90625   3.91286   3.92163   3.92931   3.93389
 Alpha virt. eigenvalues --    3.93549   3.94192   3.94996   3.95352   3.95754
 Alpha virt. eigenvalues --    3.96478   3.97236   3.97998   3.98289   3.98424
 Alpha virt. eigenvalues --    3.99408   4.00152   4.01206   4.01454   4.02217
 Alpha virt. eigenvalues --    4.02937   4.03549   4.04482   4.05208   4.05328
 Alpha virt. eigenvalues --    4.05652   4.06857   4.07359   4.07766   4.08614
 Alpha virt. eigenvalues --    4.08881   4.09405   4.09914   4.10011   4.10855
 Alpha virt. eigenvalues --    4.11084   4.12130   4.13113   4.13524   4.14132
 Alpha virt. eigenvalues --    4.15130   4.16318   4.16711   4.18333   4.18745
 Alpha virt. eigenvalues --    4.20252   4.20455   4.21102   4.22055   4.22465
 Alpha virt. eigenvalues --    4.22698   4.23378   4.23912   4.24660   4.26329
 Alpha virt. eigenvalues --    4.27205   4.27843   4.28511   4.29361   4.29785
 Alpha virt. eigenvalues --    4.29995   4.30459   4.31293   4.31666   4.32422
 Alpha virt. eigenvalues --    4.33057   4.33487   4.34226   4.34886   4.35464
 Alpha virt. eigenvalues --    4.35753   4.36761   4.37064   4.38445   4.39054
 Alpha virt. eigenvalues --    4.40501   4.40851   4.42425   4.43066   4.44065
 Alpha virt. eigenvalues --    4.44889   4.45511   4.46571   4.46704   4.47492
 Alpha virt. eigenvalues --    4.50312   4.51051   4.52113   4.52908   4.53933
 Alpha virt. eigenvalues --    4.55948   4.56289   4.56349   4.57575   4.57778
 Alpha virt. eigenvalues --    4.59978   4.60286   4.62265   4.62653   4.63489
 Alpha virt. eigenvalues --    4.65495   4.66182   4.67851   4.67957   4.69410
 Alpha virt. eigenvalues --    4.70576   4.70870   4.71829   4.72618   4.72871
 Alpha virt. eigenvalues --    4.73094   4.73498   4.75272   4.75847   4.76572
 Alpha virt. eigenvalues --    4.78341   4.79321   4.80402   4.81671   4.82390
 Alpha virt. eigenvalues --    4.82678   4.83868   4.84696   4.86452   4.88194
 Alpha virt. eigenvalues --    4.88739   4.89313   4.89430   4.90883   4.91979
 Alpha virt. eigenvalues --    4.93176   4.93674   4.94969   4.95543   4.96683
 Alpha virt. eigenvalues --    4.97412   4.99678   5.01065   5.01455   5.01748
 Alpha virt. eigenvalues --    5.03480   5.03996   5.05813   5.06424   5.07605
 Alpha virt. eigenvalues --    5.08264   5.10089   5.10254   5.11358   5.12796
 Alpha virt. eigenvalues --    5.14444   5.15321   5.16257   5.18068   5.20083
 Alpha virt. eigenvalues --    5.23187   5.23853   5.24367   5.24892   5.25608
 Alpha virt. eigenvalues --    5.26324   5.27293   5.28192   5.28672   5.30384
 Alpha virt. eigenvalues --    5.34957   5.35149   5.36091   5.36480   5.38070
 Alpha virt. eigenvalues --    5.38919   5.39245   5.39882   5.42860   5.45155
 Alpha virt. eigenvalues --    5.46710   5.48104   5.49568   5.50485   5.50849
 Alpha virt. eigenvalues --    5.51669   5.54318   5.55469   5.56125   5.56711
 Alpha virt. eigenvalues --    5.62975   5.63648   5.64108   5.65571   5.70546
 Alpha virt. eigenvalues --    5.71893   5.75142   5.78440   5.87337   5.87994
 Alpha virt. eigenvalues --    5.89765   5.95899   5.97292   5.97790   5.99656
 Alpha virt. eigenvalues --    6.05523   6.08133   6.09420   6.13041   6.20841
 Alpha virt. eigenvalues --    6.21133   6.27602   6.28423   6.36104   6.37447
 Alpha virt. eigenvalues --    6.40079   6.42629   6.43532   6.44191   6.65618
 Alpha virt. eigenvalues --    6.81560   6.86061   7.10788   7.17654  22.25232
 Alpha virt. eigenvalues --   22.26088  22.36102  22.36793  22.43376  22.44246
 Alpha virt. eigenvalues --   22.52032  22.53068  22.72822  22.76522  22.78476
 Alpha virt. eigenvalues --   22.81211  22.82393  22.83705  22.84836  22.91841
 Alpha virt. eigenvalues --   22.92281  23.02526  23.15070  23.18296  23.19638
 Alpha virt. eigenvalues --   23.27362  23.30142  23.38669  23.39832  23.43927
 Alpha virt. eigenvalues --   23.62379  23.67550  23.67825  23.76935  32.72150
 Alpha virt. eigenvalues --   32.79513  32.80768  32.94790  43.51794  44.09579
  Beta  occ. eigenvalues -- -256.43940 -30.25291 -26.09918 -26.09796 -26.09748
  Beta  occ. eigenvalues --  -19.32722 -19.32486 -14.46095 -14.46033 -14.45336
  Beta  occ. eigenvalues --  -14.45275 -10.33915 -10.33717 -10.33660 -10.33658
  Beta  occ. eigenvalues --  -10.33494 -10.33457 -10.33412 -10.33374 -10.30950
  Beta  occ. eigenvalues --  -10.30722 -10.30635 -10.30597 -10.30420 -10.30417
  Beta  occ. eigenvalues --  -10.30411 -10.30404 -10.30399 -10.30319 -10.30242
  Beta  occ. eigenvalues --  -10.30104 -10.29605 -10.29320 -10.28694 -10.28678
  Beta  occ. eigenvalues --  -10.28461 -10.28438 -10.28407 -10.28365 -10.28146
  Beta  occ. eigenvalues --  -10.28053  -3.57598  -2.32960  -2.32550  -2.32383
  Beta  occ. eigenvalues --   -1.21010  -1.20718  -1.09843  -1.09117  -1.08471
  Beta  occ. eigenvalues --   -1.07738  -0.94492  -0.93150  -0.92694  -0.92305
  Beta  occ. eigenvalues --   -0.91954  -0.91601  -0.91536  -0.87574  -0.86325
  Beta  occ. eigenvalues --   -0.86171  -0.85132  -0.83722  -0.82032  -0.80971
  Beta  occ. eigenvalues --   -0.79441  -0.79210  -0.78895  -0.76385  -0.76207
  Beta  occ. eigenvalues --   -0.76037  -0.75830  -0.71510  -0.70838  -0.69772
  Beta  occ. eigenvalues --   -0.69003  -0.66054  -0.65397  -0.64498  -0.64434
  Beta  occ. eigenvalues --   -0.62801  -0.62664  -0.62306  -0.60297  -0.60127
  Beta  occ. eigenvalues --   -0.59105  -0.59074  -0.58180  -0.56238  -0.55760
  Beta  occ. eigenvalues --   -0.55710  -0.55505  -0.55272  -0.54539  -0.54305
  Beta  occ. eigenvalues --   -0.54158  -0.54008  -0.53574  -0.53106  -0.52803
  Beta  occ. eigenvalues --   -0.51636  -0.51460  -0.51277  -0.51255  -0.51188
  Beta  occ. eigenvalues --   -0.50955  -0.50684  -0.50579  -0.50374  -0.50113
  Beta  occ. eigenvalues --   -0.49906  -0.49221  -0.49128  -0.48881  -0.48588
  Beta  occ. eigenvalues --   -0.48411  -0.48250  -0.47943  -0.47259  -0.46944
  Beta  occ. eigenvalues --   -0.46703  -0.45784  -0.45113  -0.44488  -0.43818
  Beta  occ. eigenvalues --   -0.43728  -0.43082  -0.42224  -0.40548  -0.39999
  Beta  occ. eigenvalues --   -0.38751  -0.38461  -0.35552  -0.34792  -0.33927
  Beta  occ. eigenvalues --   -0.33120  -0.30822  -0.29801
  Beta virt. eigenvalues --   -0.22875  -0.21893  -0.21260  -0.17833  -0.17767
  Beta virt. eigenvalues --   -0.15688  -0.13123  -0.12957  -0.09631  -0.09148
  Beta virt. eigenvalues --   -0.08560  -0.07120  -0.06302  -0.04868  -0.04086
  Beta virt. eigenvalues --   -0.03702  -0.03276  -0.03039  -0.02635  -0.01973
  Beta virt. eigenvalues --   -0.01822  -0.01112  -0.00380  -0.00319   0.00302
  Beta virt. eigenvalues --    0.00747   0.01126   0.01397   0.01819   0.01835
  Beta virt. eigenvalues --    0.02300   0.02384   0.02602   0.02760   0.02969
  Beta virt. eigenvalues --    0.03013   0.03359   0.03741   0.04019   0.04266
  Beta virt. eigenvalues --    0.04360   0.04618   0.04761   0.05232   0.05255
  Beta virt. eigenvalues --    0.05763   0.06119   0.06463   0.06559   0.06941
  Beta virt. eigenvalues --    0.07325   0.07411   0.07642   0.07907   0.07923
  Beta virt. eigenvalues --    0.08336   0.08455   0.08694   0.09237   0.09999
  Beta virt. eigenvalues --    0.10278   0.10393   0.10773   0.10810   0.10920
  Beta virt. eigenvalues --    0.11244   0.11639   0.11968   0.12161   0.12503
  Beta virt. eigenvalues --    0.12597   0.12833   0.13255   0.13686   0.14022
  Beta virt. eigenvalues --    0.14639   0.14870   0.15436   0.15834   0.15991
  Beta virt. eigenvalues --    0.16261   0.16498   0.16838   0.17012   0.17133
  Beta virt. eigenvalues --    0.17618   0.17640   0.17818   0.18319   0.18851
  Beta virt. eigenvalues --    0.18984   0.19291   0.19608   0.19835   0.19975
  Beta virt. eigenvalues --    0.20349   0.20542   0.20720   0.21027   0.21355
  Beta virt. eigenvalues --    0.21503   0.21890   0.22574   0.22909   0.23009
  Beta virt. eigenvalues --    0.23421   0.23505   0.23770   0.23880   0.24110
  Beta virt. eigenvalues --    0.24211   0.24900   0.25271   0.25678   0.25744
  Beta virt. eigenvalues --    0.25954   0.26508   0.26732   0.26985   0.27560
  Beta virt. eigenvalues --    0.27657   0.28053   0.28169   0.28583   0.28874
  Beta virt. eigenvalues --    0.29028   0.29357   0.29510   0.29771   0.30135
  Beta virt. eigenvalues --    0.30376   0.30687   0.31051   0.31123   0.31464
  Beta virt. eigenvalues --    0.31719   0.31882   0.31985   0.32327   0.32791
  Beta virt. eigenvalues --    0.33158   0.33338   0.33510   0.34057   0.34434
  Beta virt. eigenvalues --    0.34621   0.35037   0.35515   0.35624   0.35846
  Beta virt. eigenvalues --    0.36227   0.36608   0.37061   0.37191   0.37410
  Beta virt. eigenvalues --    0.37478   0.37934   0.38101   0.38396   0.38620
  Beta virt. eigenvalues --    0.39164   0.39329   0.39392   0.39514   0.39961
  Beta virt. eigenvalues --    0.40058   0.40215   0.40474   0.40816   0.41027
  Beta virt. eigenvalues --    0.41527   0.41637   0.41774   0.41874   0.42095
  Beta virt. eigenvalues --    0.42191   0.42399   0.42575   0.42996   0.43114
  Beta virt. eigenvalues --    0.43387   0.43894   0.44044   0.44125   0.44345
  Beta virt. eigenvalues --    0.44561   0.44601   0.44821   0.45300   0.45612
  Beta virt. eigenvalues --    0.45725   0.46253   0.46613   0.46819   0.47075
  Beta virt. eigenvalues --    0.47431   0.47736   0.48004   0.48457   0.49010
  Beta virt. eigenvalues --    0.49158   0.49982   0.50040   0.50590   0.50828
  Beta virt. eigenvalues --    0.51282   0.51628   0.52186   0.52333   0.52593
  Beta virt. eigenvalues --    0.52883   0.52985   0.53539   0.53809   0.53878
  Beta virt. eigenvalues --    0.54091   0.54458   0.54899   0.55215   0.55564
  Beta virt. eigenvalues --    0.56012   0.56273   0.56642   0.57023   0.57137
  Beta virt. eigenvalues --    0.57210   0.57760   0.57815   0.58542   0.58829
  Beta virt. eigenvalues --    0.59156   0.59508   0.60016   0.60338   0.60525
  Beta virt. eigenvalues --    0.60938   0.61164   0.61563   0.62137   0.62441
  Beta virt. eigenvalues --    0.62775   0.63056   0.63164   0.63243   0.63919
  Beta virt. eigenvalues --    0.64342   0.64567   0.64953   0.65348   0.65561
  Beta virt. eigenvalues --    0.65945   0.66378   0.67115   0.67241   0.67682
  Beta virt. eigenvalues --    0.68187   0.68422   0.68839   0.69187   0.69462
  Beta virt. eigenvalues --    0.69660   0.71169   0.71723   0.71887   0.72183
  Beta virt. eigenvalues --    0.72492   0.73366   0.73723   0.73787   0.74375
  Beta virt. eigenvalues --    0.74500   0.75146   0.75485   0.75929   0.76382
  Beta virt. eigenvalues --    0.76765   0.77383   0.77596   0.78185   0.78515
  Beta virt. eigenvalues --    0.79530   0.79773   0.79867   0.80541   0.80653
  Beta virt. eigenvalues --    0.81276   0.81538   0.82139   0.82573   0.83009
  Beta virt. eigenvalues --    0.83457   0.83905   0.84392   0.84725   0.84938
  Beta virt. eigenvalues --    0.85311   0.85565   0.86370   0.86661   0.86998
  Beta virt. eigenvalues --    0.87372   0.87600   0.87987   0.88350   0.89072
  Beta virt. eigenvalues --    0.89562   0.89841   0.89981   0.90191   0.90954
  Beta virt. eigenvalues --    0.91075   0.91441   0.91530   0.91963   0.92272
  Beta virt. eigenvalues --    0.92602   0.92755   0.93069   0.93348   0.94043
  Beta virt. eigenvalues --    0.94359   0.94534   0.94829   0.95437   0.95646
  Beta virt. eigenvalues --    0.96120   0.96670   0.97731   0.98160   0.98863
  Beta virt. eigenvalues --    0.99084   0.99219   1.00404   1.00615   1.01068
  Beta virt. eigenvalues --    1.02302   1.02825   1.03545   1.03733   1.04290
  Beta virt. eigenvalues --    1.05076   1.05553   1.05705   1.06304   1.06917
  Beta virt. eigenvalues --    1.06953   1.07257   1.08076   1.08540   1.09103
  Beta virt. eigenvalues --    1.09558   1.09770   1.10339   1.10418   1.10951
  Beta virt. eigenvalues --    1.11384   1.11555   1.12371   1.12588   1.13329
  Beta virt. eigenvalues --    1.13617   1.14114   1.14768   1.15154   1.15931
  Beta virt. eigenvalues --    1.16399   1.16500   1.16780   1.17044   1.17454
  Beta virt. eigenvalues --    1.17957   1.18207   1.18550   1.18558   1.19703
  Beta virt. eigenvalues --    1.19919   1.20003   1.21277   1.21357   1.21642
  Beta virt. eigenvalues --    1.22010   1.23077   1.23313   1.24582   1.25542
  Beta virt. eigenvalues --    1.25861   1.26574   1.27033   1.27561   1.28038
  Beta virt. eigenvalues --    1.29559   1.29875   1.30217   1.30387   1.31202
  Beta virt. eigenvalues --    1.32000   1.32800   1.33005   1.33984   1.34288
  Beta virt. eigenvalues --    1.34538   1.35048   1.35238   1.35824   1.36323
  Beta virt. eigenvalues --    1.36569   1.37010   1.37194   1.37743   1.38391
  Beta virt. eigenvalues --    1.38573   1.38991   1.39279   1.39921   1.40189
  Beta virt. eigenvalues --    1.40248   1.40497   1.41182   1.41350   1.41920
  Beta virt. eigenvalues --    1.42466   1.42808   1.42935   1.43287   1.43609
  Beta virt. eigenvalues --    1.43858   1.44281   1.44583   1.45252   1.45366
  Beta virt. eigenvalues --    1.45466   1.45751   1.45856   1.46245   1.46427
  Beta virt. eigenvalues --    1.46508   1.46827   1.47259   1.47524   1.47851
  Beta virt. eigenvalues --    1.48014   1.48373   1.48612   1.49063   1.49584
  Beta virt. eigenvalues --    1.49763   1.50555   1.51147   1.51260   1.51579
  Beta virt. eigenvalues --    1.52009   1.52306   1.52422   1.52705   1.53051
  Beta virt. eigenvalues --    1.53303   1.53507   1.54263   1.55079   1.55422
  Beta virt. eigenvalues --    1.55864   1.55902   1.56457   1.56623   1.56969
  Beta virt. eigenvalues --    1.57183   1.57575   1.58152   1.58728   1.59064
  Beta virt. eigenvalues --    1.59332   1.59554   1.59786   1.60421   1.61068
  Beta virt. eigenvalues --    1.61530   1.62133   1.62565   1.62627   1.63495
  Beta virt. eigenvalues --    1.63748   1.63924   1.64825   1.65142   1.66621
  Beta virt. eigenvalues --    1.67127   1.68257   1.68764   1.68843   1.69623
  Beta virt. eigenvalues --    1.70082   1.70485   1.71139   1.72100   1.72276
  Beta virt. eigenvalues --    1.72680   1.73234   1.73804   1.73946   1.74770
  Beta virt. eigenvalues --    1.74932   1.75970   1.76820   1.76926   1.77659
  Beta virt. eigenvalues --    1.77795   1.78221   1.78508   1.78602   1.79310
  Beta virt. eigenvalues --    1.79854   1.80264   1.80830   1.81327   1.81460
  Beta virt. eigenvalues --    1.81883   1.83055   1.84111   1.84760   1.85273
  Beta virt. eigenvalues --    1.85937   1.86217   1.86565   1.87511   1.87761
  Beta virt. eigenvalues --    1.87964   1.88673   1.89120   1.89461   1.90011
  Beta virt. eigenvalues --    1.90489   1.90669   1.90954   1.91386   1.92032
  Beta virt. eigenvalues --    1.92409   1.92897   1.93516   1.94156   1.95116
  Beta virt. eigenvalues --    1.95387   1.96273   1.96979   1.97855   1.98326
  Beta virt. eigenvalues --    1.98803   1.99020   1.99669   1.99854   2.00292
  Beta virt. eigenvalues --    2.00944   2.01858   2.02393   2.02525   2.03343
  Beta virt. eigenvalues --    2.03852   2.04044   2.04824   2.05038   2.05500
  Beta virt. eigenvalues --    2.05789   2.06327   2.07642   2.08036   2.08313
  Beta virt. eigenvalues --    2.08498   2.09306   2.10794   2.11080   2.11537
  Beta virt. eigenvalues --    2.11818   2.12032   2.12619   2.13764   2.14007
  Beta virt. eigenvalues --    2.14425   2.15157   2.15548   2.15602   2.15923
  Beta virt. eigenvalues --    2.16446   2.16896   2.17517   2.18555   2.18615
  Beta virt. eigenvalues --    2.18873   2.19059   2.19969   2.20112   2.20430
  Beta virt. eigenvalues --    2.21372   2.22157   2.22224   2.22803   2.24149
  Beta virt. eigenvalues --    2.25044   2.25487   2.25938   2.26235   2.27020
  Beta virt. eigenvalues --    2.27288   2.27425   2.28019   2.28137   2.28368
  Beta virt. eigenvalues --    2.28925   2.29257   2.29460   2.30132   2.30816
  Beta virt. eigenvalues --    2.31297   2.32061   2.32764   2.32787   2.33391
  Beta virt. eigenvalues --    2.34076   2.34553   2.34998   2.35216   2.35500
  Beta virt. eigenvalues --    2.35854   2.36403   2.36905   2.37145   2.38083
  Beta virt. eigenvalues --    2.38884   2.39808   2.40073   2.40771   2.41224
  Beta virt. eigenvalues --    2.41995   2.42874   2.43268   2.43891   2.44254
  Beta virt. eigenvalues --    2.44865   2.45011   2.45080   2.45326   2.46145
  Beta virt. eigenvalues --    2.46543   2.46780   2.47108   2.47300   2.47955
  Beta virt. eigenvalues --    2.48174   2.48584   2.49109   2.49442   2.49838
  Beta virt. eigenvalues --    2.50416   2.50765   2.50858   2.50992   2.51447
  Beta virt. eigenvalues --    2.52485   2.53120   2.53209   2.53998   2.54410
  Beta virt. eigenvalues --    2.54887   2.55199   2.55675   2.55928   2.56507
  Beta virt. eigenvalues --    2.56753   2.57205   2.57975   2.58071   2.58817
  Beta virt. eigenvalues --    2.58961   2.59400   2.59883   2.60131   2.60499
  Beta virt. eigenvalues --    2.61319   2.61569   2.61979   2.62632   2.63088
  Beta virt. eigenvalues --    2.63626   2.63875   2.64178   2.64548   2.64819
  Beta virt. eigenvalues --    2.66447   2.66676   2.66811   2.67559   2.67987
  Beta virt. eigenvalues --    2.68212   2.68498   2.69584   2.69625   2.70251
  Beta virt. eigenvalues --    2.70632   2.71073   2.71677   2.72119   2.72210
  Beta virt. eigenvalues --    2.72645   2.73209   2.73265   2.73844   2.74306
  Beta virt. eigenvalues --    2.74929   2.75174   2.75632   2.76580   2.76696
  Beta virt. eigenvalues --    2.76934   2.77184   2.77596   2.78139   2.78797
  Beta virt. eigenvalues --    2.79304   2.79407   2.79683   2.80180   2.81172
  Beta virt. eigenvalues --    2.82003   2.82397   2.82611   2.82722   2.83303
  Beta virt. eigenvalues --    2.83945   2.84397   2.84652   2.85148   2.85542
  Beta virt. eigenvalues --    2.85696   2.86442   2.86515   2.87289   2.87602
  Beta virt. eigenvalues --    2.87887   2.88961   2.89290   2.89468   2.90310
  Beta virt. eigenvalues --    2.90567   2.90599   2.91825   2.92132   2.92560
  Beta virt. eigenvalues --    2.93423   2.93698   2.94469   2.95031   2.95306
  Beta virt. eigenvalues --    2.95956   2.96190   2.96984   2.97271   2.97363
  Beta virt. eigenvalues --    2.97641   2.98252   2.98426   2.98539   2.98994
  Beta virt. eigenvalues --    2.99532   2.99673   3.00028   3.00296   3.01039
  Beta virt. eigenvalues --    3.01552   3.01671   3.02123   3.02507   3.02589
  Beta virt. eigenvalues --    3.02858   3.03563   3.03706   3.04605   3.05027
  Beta virt. eigenvalues --    3.05534   3.05932   3.06281   3.06391   3.06939
  Beta virt. eigenvalues --    3.07105   3.07492   3.08151   3.08309   3.08576
  Beta virt. eigenvalues --    3.09072   3.09557   3.09920   3.10334   3.10670
  Beta virt. eigenvalues --    3.10945   3.11445   3.11521   3.12200   3.12543
  Beta virt. eigenvalues --    3.12976   3.13063   3.13273   3.13968   3.14127
  Beta virt. eigenvalues --    3.14323   3.14746   3.15069   3.15286   3.15569
  Beta virt. eigenvalues --    3.15957   3.16484   3.16645   3.16833   3.17195
  Beta virt. eigenvalues --    3.18042   3.18256   3.18717   3.19114   3.19328
  Beta virt. eigenvalues --    3.19641   3.19804   3.20139   3.20461   3.20668
  Beta virt. eigenvalues --    3.21061   3.21225   3.21450   3.22083   3.22482
  Beta virt. eigenvalues --    3.22659   3.22830   3.23403   3.23619   3.24039
  Beta virt. eigenvalues --    3.24231   3.24542   3.24702   3.25266   3.25405
  Beta virt. eigenvalues --    3.25796   3.25926   3.26044   3.26517   3.26678
  Beta virt. eigenvalues --    3.26994   3.27281   3.27617   3.28011   3.28159
  Beta virt. eigenvalues --    3.28447   3.28707   3.29117   3.29793   3.30346
  Beta virt. eigenvalues --    3.30780   3.31659   3.31901   3.32018   3.32798
  Beta virt. eigenvalues --    3.33247   3.33349   3.33639   3.34118   3.34545
  Beta virt. eigenvalues --    3.34857   3.35363   3.36215   3.36442   3.36828
  Beta virt. eigenvalues --    3.37759   3.38659   3.38967   3.39656   3.40002
  Beta virt. eigenvalues --    3.40620   3.41219   3.41890   3.42291   3.42723
  Beta virt. eigenvalues --    3.42984   3.43636   3.44352   3.44706   3.45255
  Beta virt. eigenvalues --    3.46105   3.46748   3.47051   3.47516   3.48010
  Beta virt. eigenvalues --    3.48555   3.48969   3.49956   3.50382   3.50714
  Beta virt. eigenvalues --    3.51327   3.51863   3.52669   3.53013   3.53682
  Beta virt. eigenvalues --    3.54517   3.55254   3.55603   3.56230   3.57266
  Beta virt. eigenvalues --    3.57677   3.58017   3.58812   3.59042   3.59612
  Beta virt. eigenvalues --    3.60386   3.60815   3.60968   3.61626   3.61769
  Beta virt. eigenvalues --    3.62064   3.62780   3.62981   3.63652   3.63869
  Beta virt. eigenvalues --    3.64353   3.64580   3.65265   3.65535   3.66639
  Beta virt. eigenvalues --    3.66953   3.67935   3.68572   3.69044   3.69506
  Beta virt. eigenvalues --    3.70301   3.70893   3.71695   3.72226   3.72466
  Beta virt. eigenvalues --    3.73098   3.73926   3.74773   3.75374   3.75791
  Beta virt. eigenvalues --    3.76185   3.76627   3.77619   3.78295   3.78658
  Beta virt. eigenvalues --    3.79371   3.79989   3.80740   3.81237   3.81684
  Beta virt. eigenvalues --    3.82617   3.83381   3.85072   3.85768   3.86058
  Beta virt. eigenvalues --    3.86815   3.87619   3.88103   3.88429   3.88879
  Beta virt. eigenvalues --    3.89340   3.89836   3.90309   3.91709   3.91894
  Beta virt. eigenvalues --    3.92640   3.93177   3.93560   3.94439   3.94538
  Beta virt. eigenvalues --    3.95305   3.95760   3.96013   3.97132   3.97608
  Beta virt. eigenvalues --    3.98587   3.98880   3.99107   4.00657   4.00745
  Beta virt. eigenvalues --    4.01289   4.01905   4.03095   4.03207   4.03918
  Beta virt. eigenvalues --    4.04676   4.05362   4.05711   4.06412   4.07145
  Beta virt. eigenvalues --    4.07807   4.08121   4.09028   4.10012   4.10269
  Beta virt. eigenvalues --    4.11357   4.11668   4.12213   4.12832   4.13175
  Beta virt. eigenvalues --    4.13561   4.14825   4.15125   4.15617   4.16226
  Beta virt. eigenvalues --    4.16543   4.17330   4.18467   4.19400   4.20130
  Beta virt. eigenvalues --    4.20838   4.21615   4.22143   4.23105   4.23439
  Beta virt. eigenvalues --    4.23811   4.24329   4.24640   4.25181   4.26714
  Beta virt. eigenvalues --    4.27856   4.28368   4.29311   4.29760   4.30082
  Beta virt. eigenvalues --    4.30989   4.31525   4.32310   4.32552   4.33003
  Beta virt. eigenvalues --    4.33599   4.34383   4.34451   4.35306   4.35754
  Beta virt. eigenvalues --    4.36243   4.37081   4.38576   4.38692   4.39204
  Beta virt. eigenvalues --    4.40709   4.41311   4.42633   4.43289   4.44238
  Beta virt. eigenvalues --    4.45156   4.45747   4.46751   4.46884   4.47676
  Beta virt. eigenvalues --    4.50470   4.51666   4.52709   4.53663   4.54151
  Beta virt. eigenvalues --    4.56153   4.56441   4.56523   4.57712   4.57986
  Beta virt. eigenvalues --    4.60328   4.60953   4.62351   4.62751   4.63604
  Beta virt. eigenvalues --    4.65624   4.66399   4.68143   4.69231   4.69661
  Beta virt. eigenvalues --    4.70719   4.71054   4.72049   4.72791   4.73047
  Beta virt. eigenvalues --    4.73226   4.73994   4.75485   4.75972   4.76760
  Beta virt. eigenvalues --    4.78604   4.79555   4.80780   4.82002   4.82848
  Beta virt. eigenvalues --    4.83161   4.84308   4.85065   4.86735   4.88528
  Beta virt. eigenvalues --    4.89198   4.89601   4.89745   4.91330   4.92252
  Beta virt. eigenvalues --    4.93475   4.94063   4.95104   4.95722   4.96972
  Beta virt. eigenvalues --    4.97574   5.00080   5.01322   5.01862   5.01909
  Beta virt. eigenvalues --    5.03813   5.04381   5.05977   5.06877   5.07955
  Beta virt. eigenvalues --    5.08465   5.10405   5.10533   5.11936   5.13327
  Beta virt. eigenvalues --    5.14997   5.15833   5.16774   5.18750   5.20404
  Beta virt. eigenvalues --    5.23296   5.24255   5.24740   5.25237   5.25890
  Beta virt. eigenvalues --    5.26705   5.27687   5.28559   5.29057   5.30634
  Beta virt. eigenvalues --    5.35444   5.35676   5.36440   5.36861   5.38442
  Beta virt. eigenvalues --    5.39217   5.39582   5.40187   5.43686   5.45450
  Beta virt. eigenvalues --    5.46912   5.48397   5.49682   5.50767   5.51185
  Beta virt. eigenvalues --    5.52040   5.54587   5.55799   5.56413   5.57021
  Beta virt. eigenvalues --    5.63240   5.63954   5.64358   5.65784   5.70991
  Beta virt. eigenvalues --    5.72301   5.75533   5.79073   5.87790   5.88418
  Beta virt. eigenvalues --    5.90213   5.96768   5.98174   5.98474   6.00487
  Beta virt. eigenvalues --    6.05724   6.08462   6.09761   6.13573   6.21063
  Beta virt. eigenvalues --    6.21339   6.28051   6.28579   6.36705   6.37883
  Beta virt. eigenvalues --    6.40819   6.43053   6.44038   6.45029   6.66299
  Beta virt. eigenvalues --    6.82034   6.86562   7.11165   7.18043  22.25244
  Beta virt. eigenvalues --   22.26099  22.36104  22.36795  22.43378  22.44248
  Beta virt. eigenvalues --   22.52033  22.53069  22.72837  22.76530  22.78492
  Beta virt. eigenvalues --   22.81235  22.82423  22.83718  22.84858  22.91840
  Beta virt. eigenvalues --   22.92280  23.02522  23.15109  23.18329  23.19675
  Beta virt. eigenvalues --   23.27395  23.30173  23.38706  23.39865  23.43964
  Beta virt. eigenvalues --   23.62414  23.67582  23.67856  23.76966  32.72471
  Beta virt. eigenvalues --   32.79843  32.81093  32.95127  43.52056  44.09842
          Condensed to atoms (all electrons):
          Atomic-Atomic Spin Densities.
 Mulliken charges and spin densities:
               1          2
     1  Fe   0.052581   4.397515
     2  N   -0.156211   0.062894
     3  N   -0.002427   0.056380
[...]
  1199. RY*(   7) O  64                  0.00003     2.06573   
  1200. RY*(   8) O  64                  0.00000     3.23798   
  1201. RY*(   9) O  64                  0.00001     3.55047   
  1202. RY*(  10) O  64                  0.00001     2.44267   
  1203. RY*(  11) O  64                  0.00000     6.10160   
  1204. RY*(  12) O  64                  0.00000    42.14163   
  1205. RY*(  13) O  64                  0.00000     6.45165   
  1206. RY*(  14) O  64                  0.00000     2.65907   
  1207. RY*(  15) O  64                  0.00000     6.31976   
  1208. RY*(  16) O  64                  0.00001     2.60207   
  1209. RY*(  17) O  64                  0.00000     6.16779   
  1210. RY*(  18) O  64                  0.00001     2.24202   
  1211. RY*(  19) O  64                  0.00000     6.20255   
  1212. RY*(  20) O  64                  0.00000     5.17790   
  1213. RY*(  21) O  64                  0.00000     5.53151   
  1214. RY*(  22) O  64                  0.00000     5.03779   
  1215. RY*(  23) O  64                  0.00000     5.36439   
  1216. RY*(  24) O  64                  0.00000     5.32961   
  1217. RY*(  25) O  64                  0.00000     5.29578   
  1218. RY*(  26) O  64                  0.00000     5.39842   
  1219. RY*(   1) H  65                  0.00042     0.90881   
  1220. RY*(   2) H  65                  0.00035     1.90137   
  1221. RY*(   3) H  65                  0.00022     1.86352   
  1222. RY*(   4) H  65                  0.00007     2.07902   
  1223. RY*(   5) H  65                  0.00001     2.85572   
  1224. RY*(   1) H  66                  0.00050     0.95298   
  1225. RY*(   2) H  66                  0.00038     1.90441   
  1226. RY*(   3) H  66                  0.00025     1.62526   
  1227. RY*(   4) H  66                  0.00009     2.21770   
  1228. RY*(   5) H  66                  0.00001     2.87643   
  1348. BD*(   1) O  64 - H  65          0.00450     0.27586   
  1349. BD*(   1) O  64 - H  66          0.00326     0.90798   
       -------------------------------
              Total Lewis    4.82646  ( 99.7600%)
        Valence non-Lewis    0.00776  (  0.1604%)
        Rydberg non-Lewis    0.00385  (  0.0796%)
       -------------------------------
            Total unit  2    4.83807  (100.0000%)
           Charge unit  2    0.16193
 
 Molecular unit  3  (H2O)
    88. BD (   1) O  67 - H  68          0.98738    -0.98477  1264(v),1263(v),1350(g)
                                                    1351(g),1261(v),1325(r)
                                                    1349(r),138(r),1316(r)
                                                    1322(r),1236(g),1312(r)
                                                    1323(r),135(r),1327(r)
                                                    1237(g),137(r),136(r)
                                                    1329(r),1319(r),1233(g)
                                                    1262(v),1326(r),1242(g)
                                                    1240(g),1238(g),1336(r)
                                                    1339(r),1337(r),1330(r)
                                                    1232(g),1260(v),1324(r)
                                                    1334(r),1235(g),1331(r)
                                                    1328(r),1333(r),1265(r)
                                                    144(r),159(r),150(r),1195(r)
                                                    1267(r),145(r),1338(r)
                                                    172(r),164(r),1193(r)
                                                    1315(r),160(r),171(r)
                                                    1276(r),1306(r),1266(r)
                                                    1279(r),179(r),1308(r)
                                                    1268(r),252(r),962(r)
                                                    1321(r),1282(r),158(r)
                                                    198(r),951(r),163(r),162(r)
    89. BD (   1) O  67 - H  69          0.99259    -1.02021  1263(g),1264(g),1351(g)
                                                    1350(g),1325(r),1349(r)
                                                    1316(r),1322(r),1323(r)
                                                    1261(g),1262(g),1236(g)
                                                    1312(r),1327(r),1237(g)
                                                    1319(r),1238(g),1329(r)
                                                    1242(g),1326(r),138(r)
                                                    1233(g),137(r),1240(g)
                                                    1339(r),1337(r),1324(r)
                                                    1260(g),1336(r),1333(r)
                                                    1232(g),1235(g),1330(r)
                                                    1328(r),1252(g),135(r)
                                                    1251(g),1239(g),1248(g)
                                                    1241(g),1334(r),136(r)
                                                    1254(g),1257(v),164(r)
                                                    1245(g),1249(g),159(r)
                                                    1231(g),1243(g),1315(r)
                                                    145(r),1306(r),1308(r)
                                                    163(r),153(r),962(r),199(r)
                                                    1282(r),1321(r),144(r)
                                                    1279(r),158(r),226(r),161(r)
                                                    951(r),139(r),156(r),228(r)
                                                    1313(r),1228(r),157(r)
                                                    223(r),1195(r),1318(r)
                                                    1314(r),1201(r),162(r)
                                                    1332(r),1194(r),1178(r)
                                                    149(r),1273(r),861(r)
                                                    1283(r),231(r),1126(r)
                                                    1320(r),1197(r),1128(r)
                                                    1265(r),1266(r),197(r)
                                                    224(r),864(r),1171(r),166(r)
                                                    1338(r),1343(r),205(r)
                                                    1269(r),1317(r),681(r)
                                                    287(r),151(r),1208(r),150(r)
                                                    1276(r),252(r)
   134. CR (   1) O  67                  0.99990   -19.10242  1351(g),1264(v),1263(v)
                                                    1350(g),1236(g),1349(r)
                                                    1325(r),1237(g),1316(r)
                                                    1262(v),1261(v),1322(r)
                                                    1323(r),1238(g),1242(g)
                                                    1312(r),1327(r),1319(r)
                                                    1233(g),1240(g),1329(r)
                                                    1326(r),1252(g),1337(r)
                                                    138(r),1232(g),1235(g)
                                                    1324(r),1260(v),1239(g)
                                                    1339(r),1336(r),1241(g)
                                                    1251(g),1333(r),1248(g)
                                                    1254(g),137(r),1330(r)
                                                    1245(g),1328(r),164(r)
                                                    1243(g),1249(g),159(r)
                                                    135(r),1334(r),136(r)
                                                    1234(g),163(r),153(r),158(r)
                                                    1250(g),1228(r),1257(v)
                                                    161(r),1230(g),1308(r)
                                                    1315(r),962(r),951(r),162(r)
                                                    1282(r),157(r),156(r)
                                                    1321(r),1306(r),1279(r)
                                                    1201(r),1265(r),1313(r)
                                                    864(r),861(r),1126(r),155(r)
                                                    1171(r),147(r),148(r)
                                                    1128(r),1200(r),1318(r)
                                                    1266(r),1178(r),681(r)
                                                    166(r),1314(r),1332(r)
                                                    1268(r),287(r),199(r)
                                                    1197(r),1206(r),151(r)
                                                    1269(r),1320(r),1276(r)
                                                    222(r),1273(r),1208(r)
                                                    869(r),1283(r),312(r),191(r)
                                                    656(r),1338(r),185(r)
                                                    1016(r),1343(r),1227(r)
                                                    871(r),1014(r),1317(r)
                                                    647(r),313(r),1170(r)
                                                    1046(r),150(r),299(r),662(r)
                                                    655(r),295(r)
   142. LP (   1) O  67                  0.96997    -0.48489  1261(v),1350(g),1264(v)
                                                    1325(r),136(r),135(r)
                                                    1349(r),1322(r),1331(r)
                                                    1329(r),1316(r),1312(r)
                                                    1326(r),1236(g),1336(r)
                                                    1266(r),1268(r),1240(g)
                                                    1237(g),1334(r),1260(v)
                                                    1256(v),1233(g),1330(r)
                                                    1332(r),1327(r),1246(g)
                                                    1338(r),1319(r),1339(r)
                                                    139(r),1335(r),1273(r)
                                                    1323(r),151(r),257(r)
                                                    1345(r),1324(r),1308(r)
                                                    253(r),205(r),259(r),159(r)
                                                    1315(r),1193(r)
   143. LP (   2) O  67                  0.87796    -0.61989  1263(v),1351(g),1264(v)
                                                    138(r),137(r),1349(r)
                                                    1325(r),1316(r),1323(r)
                                                    1322(r),1327(r),135(r)
                                                    1312(r),1350(g),1319(r)
                                                    1236(g),1262(v),136(r)
                                                    1238(g),1237(g),1242(g)
                                                    1329(r),1233(g),1326(r)
                                                    1324(r),1339(r),1337(r)
                                                    1240(g),1261(v),1333(r)
                                                    1328(r),1235(g),1336(r)
                                                    1246(g),1257(v),1252(g)
                                                    1330(r),1232(g),1331(r)
                                                    1230(g),252(r),199(r)
                                                    1260(v),150(r),1248(g)
                                                    139(r),1332(r),223(r),163(r)
                                                    1279(r),164(r),1315(r)
                                                    197(r),153(r),226(r),1306(r)
                                                    171(r),1276(r),159(r)
                                                    1265(r),157(r),200(r),249(r)
                                                    962(r),1282(r),1321(r)
                                                    172(r),174(r),162(r),951(r)
                                                    224(r),1266(r),1318(r)
                                                    1273(r),1308(r),1314(r)
                                                    145(r),1313(r),1275(r)
                                                    158(r),1201(r),1271(r)
                                                    1277(r),1334(r),161(r)
                                                    1272(r),1345(r),1274(r)
                                                    1228(r),1283(r),1178(r)
                                                    156(r),1343(r),782(r),152(r)
                                                    1267(r),1210(r)
  1229. RY*(   1) O  67                  0.00052     0.59689   
  1230. RY*(   2) O  67                  0.00045     1.12015   
  1231. RY*(   3) O  67                  0.00033     1.17118   
  1232. RY*(   4) O  67                  0.00012     1.45094   
  1233. RY*(   5) O  67                  0.00005     2.18467   
  1234. RY*(   6) O  67                  0.00002     3.91891   
  1235. RY*(   7) O  67                  0.00002     2.23396   
  1236. RY*(   8) O  67                  0.00000     4.19429   
  1237. RY*(   9) O  67                  0.00001     4.45702   
  1238. RY*(  10) O  67                  0.00001     3.02596   
  1239. RY*(  11) O  67                  0.00000     6.24486   
  1240. RY*(  12) O  67                  0.00001     2.68032   
  1241. RY*(  13) O  67                  0.00000     6.46484   
  1242. RY*(  14) O  67                  0.00000     3.17776   
  1243. RY*(  15) O  67                  0.00000     6.34076   
  1244. RY*(  16) O  67                  0.00000    42.11440   
  1245. RY*(  17) O  67                  0.00000     6.17217   
  1246. RY*(  18) O  67                  0.00001     2.36004   
  1247. RY*(  19) O  67                  0.00000     6.22676   
  1248. RY*(  20) O  67                  0.00000     5.28186   
  1249. RY*(  21) O  67                  0.00000     5.45576   
  1250. RY*(  22) O  67                  0.00000     5.08920   
  1251. RY*(  23) O  67                  0.00000     5.32445   
  1252. RY*(  24) O  67                  0.00000     5.62493   
  1253. RY*(  25) O  67                  0.00000     5.25022   
  1254. RY*(  26) O  67                  0.00000     5.55914   
  1255. RY*(   1) H  68                  0.00040     0.91058   
  1256. RY*(   2) H  68                  0.00035     1.82304   
  1257. RY*(   3) H  68                  0.00022     1.88141   
  1258. RY*(   4) H  68                  0.00006     2.05076   
  1259. RY*(   5) H  68                  0.00001     2.83390   
  1260. RY*(   1) H  69                  0.00047     0.95833   
  1261. RY*(   2) H  69                  0.00038     0.63384   
  1262. RY*(   3) H  69                  0.00025     1.59829   
  1263. RY*(   4) H  69                  0.00009     0.27459   
  1264. RY*(   5) H  69                  0.00001     2.62793   
  1350. BD*(   1) O  67 - H  68          0.00426     3.11917   
  1351. BD*(   1) O  67 - H  69          0.00327     4.26114   
       -------------------------------
              Total Lewis    4.82779  ( 99.7664%)
        Valence non-Lewis    0.00753  (  0.1557%)
        Rydberg non-Lewis    0.00377  (  0.0780%)
       -------------------------------
            Total unit  3    4.83910  (100.0000%)
           Charge unit  3    0.16090
 Unable to Open any file for archive entry.
 1\1\GINC-BGN1020\SP\UAPFD\def2TZVP\C30H32Fe1N4O2(1+,6)\BEBJONES\15-May
 -2024\0\\# apfd/def2TZVP guess=read scf=maxcycle=999 geom=check pop=nb
 o\\1cce_III_H\\1,6\Fe,0,-5.6844926769,56.6766657594,111.9472348754\N,0
 ,-6.4291085702,55.7407120933,113.5546753978\N,0,-6.7970121964,58.29490
 79986,112.4191491955\N,0,-4.9822493082,57.6645352201,110.3504107662\N,
 0,-4.5769939623,55.0865827919,111.5032210082\C,0,-6.1800318367,54.4552
 888453,113.9194165249\C,0,-6.7848621996,54.1606385125,115.1973248333\C
 ,0,-7.4358914101,55.2927331546,115.5822057302\C,0,-7.1873896824,56.272
 6793958,114.5502155966\C,0,-7.5160160064,58.4878962061,113.5571428119\
 C,0,-8.181782037,59.7677005313,113.5358630427\C,0,-7.8002306226,60.378
 1994343,112.3731929426\C,0,-6.9011849556,59.4493456712,111.7134027102\
 C,0,-5.2669653152,58.9365861061,109.9605030964\C,0,-4.4637397505,59.31
 63063224,108.8281111879\C,0,-3.7101952952,58.2173211905,108.5054568109
 \C,0,-4.0777693472,57.1890763411,109.4563082905\C,0,-3.9167306046,54.9
 002905354,110.3297912563\C,0,-3.5503027737,53.5106071928,110.158102116
 7\C,0,-4.0725261358,52.8468541779,111.2223474036\C,0,-4.7316120697,53.
 8452471994,112.0369077514\C,0,-5.4360183755,53.5475234607,113.18654306
 25\H,0,-5.4033338993,52.5299299541,113.5439970362\C,0,-7.6714712456,57
 .5655540892,114.5761626682\H,0,-8.253810798,57.8613307129,115.43479891
 17\C,0,-6.202419938,59.7582229464,110.5641543275\H,0,-6.3615818517,60.
 7335586966,110.1308783719\C,0,-3.59967676,55.8911044573,109.4206178032
 \H,0,-2.9793098463,55.6144724487,108.5819859209\C,0,-8.2225101105,55.5
 548300769,116.8203731089\H,0,-8.266136349,54.6663837175,117.4453905502
 \H,0,-9.2419524334,55.8492092568,116.5711880954\H,0,-7.771075507,56.36
 04106282,117.4004005188\C,0,-6.6896056996,52.8438786331,115.888275087\
 H,0,-5.6467342742,52.5806174211,116.0656868491\H,0,-7.1372431903,52.05
 73690696,115.2800441778\H,0,-7.2039916896,52.8703611994,116.8457048148
 \C,0,-9.1222042527,60.2617582406,114.5787414407\H,0,-8.5760439147,60.6
 507736145,115.4403152026\H,0,-9.7707998691,59.4586377002,114.925712212
 3\H,0,-9.7412025173,61.0605647612,114.1755493245\C,0,-8.171315615,61.6
 772141031,111.8538353868\H,0,-8.2739699393,61.7400958023,110.776303615
 7\C,0,-8.3749873166,62.766120457,112.5876219\H,0,-8.2386490092,62.7701
 683109,113.6553455812\H,0,-8.6601236466,63.7038877423,112.1400889093\C
 ,0,-4.4479634926,60.6678816779,108.2044410459\H,0,-4.537192325,61.4432
 581495,108.9637813424\H,0,-5.2777750008,60.7836624125,107.5047910219\H
 ,0,-3.5178217573,60.816459062,107.6598483765\C,0,-2.7416334457,58.0442
 753126,107.4445937651\H,0,-1.9108399145,57.3870830709,107.6740789672\C
 ,0,-2.8096421484,58.6051116668,106.2418325875\H,0,-3.6361597719,59.227
 6884186,105.9459373418\H,0,-2.0480379353,58.4393027097,105.498019435\C
 ,0,-2.7870272602,52.9797100478,108.9939225894\H,0,-1.8142152846,53.465
 8386736,108.9201583639\H,0,-3.3274850855,53.1637363396,108.0649391797\
 H,0,-2.6278455947,51.9086468576,109.091530801\C,0,-4.0278843038,51.393
 2040759,111.5464998694\H,0,-3.5359841189,51.2286399784,112.5054971564\
 H,0,-3.4825950901,50.8434110643,110.7834303656\H,0,-5.0362098331,50.98
 35570667,111.609614476\O,0,-4.284,57.394,113.195\H,0,-4.496,57.028,114
 .054\H,0,-3.592,57.918,113.002\O,0,-7.101,55.961,110.708\H,0,-7.003,56
 .426,109.877\H,0,-7.69,55.318,110.885\\Version=ES64L-G16RevC.02\State=
 6-A\HF=-2794.7648703\S2=8.758251\S2-1=0.\S2A=8.75002\RMSD=2.826e-09\Di
 pole=-0.0525066,-0.4549045,0.2060295\Quadrupole=-15.204808,8.699797,6.
 505011,-7.0371682,-14.9076798,-6.242029\PG=C01 [X(C30H32Fe1N4O2)]\\@
 The archive entry for this job was punched.


 PICNIC:  A SNACK IN THE GRASS.
 Job cpu time:       6 days 16 hours 58 minutes 19.3 seconds.
 Elapsed time:       0 days  2 hours 26 minutes 41.3 seconds.
 File lengths (MBytes):  RWF=   1688 Int=      0 D2E=      0 Chk=    155 Scr=      1
 Normal termination of Gaussian 16 at Wed May 15 15:08:17 2024.
