 Entering Gaussian System, Link 0=g16
 Input=1ccj16re.com
 Output=1ccj16re.log
 Initial command:
 /sw/chem/gaussian/g16_C02/a100/g16/l1.exe "/local/bebjones_7880036/Gau-200810.inp" -scrdir="/local/bebjones_7880036/"
 Entering Link 1 = /sw/chem/gaussian/g16_C02/a100/g16/l1.exe PID=    200811.
  
 Copyright (c) 1988-2021, Gaussian, Inc.  All Rights Reserved.
  
 This is part of the Gaussian(R) 16 program.  It is based on
 the Gaussian(R) 09 system (copyright 2009, Gaussian, Inc.),
 the Gaussian(R) 03 system (copyright 2003, Gaussian, Inc.),
 the Gaussian(R) 98 system (copyright 1998, Gaussian, Inc.),
 the Gaussian(R) 94 system (copyright 1995, Gaussian, Inc.),
 the Gaussian 92(TM) system (copyright 1992, Gaussian, Inc.),
 the Gaussian 90(TM) system (copyright 1990, Gaussian, Inc.),
 the Gaussian 88(TM) system (copyright 1988, Gaussian, Inc.),
 the Gaussian 86(TM) system (copyright 1986, Carnegie Mellon
 University), and the Gaussian 82(TM) system (copyright 1983,
 Carnegie Mellon University). Gaussian is a federally registered
 trademark of Gaussian, Inc.
  
 This software contains proprietary and confidential information,
 including trade secrets, belonging to Gaussian, Inc.
  
 This software is provided under written license and may be
 used, copied, transmitted, or stored only in accord with that
 written license.
  
 The following legend is applicable only to US Government
 contracts under FAR:
  
                    RESTRICTED RIGHTS LEGEND
  
 Use, reproduction and disclosure by the US Government is
 subject to restrictions as set forth in subparagraphs (a)
 and (c) of the Commercial Computer Software - Restricted
 Rights clause in FAR 52.227-19.
  
 Gaussian, Inc.
 340 Quinnipiac St., Bldg. 40, Wallingford CT 06492
  
  
 ---------------------------------------------------------------
 Warning -- This program may not be used in any manner that
 competes with the business of Gaussian, Inc. or will provide
 assistance to any competitor of Gaussian, Inc.  The licensee
 of this program is prohibited from giving any competitor of
 Gaussian, Inc. access to this program.  By using this program,
 the user acknowledges that Gaussian, Inc. is engaged in the
 business of creating and licensing software in the field of
 computational chemistry and represents and warrants to the
 licensee that it is not a competitor of Gaussian, Inc. and that
 it will not use this program in any manner prohibited above.
 ---------------------------------------------------------------
  

 Cite this work as:
 Gaussian 16, Revision C.02,
 M. J. Frisch, G. W. Trucks, H. B. Schlegel, G. E. Scuseria, 
 M. A. Robb, J. R. Cheeseman, G. Scalmani, V. Barone, 
 G. A. Petersson, H. Nakatsuji, X. Li, M. Caricato, A. V. Marenich, 
 J. Bloino, B. G. Janesko, R. Gomperts, B. Mennucci, H. P. Hratchian, 
 J. V. Ortiz, A. F. Izmaylov, J. L. Sonnenberg, D. Williams-Young, 
 F. Ding, F. Lipparini, F. Egidi, J. Goings, B. Peng, A. Petrone, 
 T. Henderson, D. Ranasinghe, V. G. Zakrzewski, J. Gao, N. Rega, 
 G. Zheng, W. Liang, M. Hada, M. Ehara, K. Toyota, R. Fukuda, 
 J. Hasegawa, M. Ishida, T. Nakajima, Y. Honda, O. Kitao, H. Nakai, 
 T. Vreven, K. Throssell, J. A. Montgomery, Jr., J. E. Peralta, 
 F. Ogliaro, M. J. Bearpark, J. J. Heyd, E. N. Brothers, K. N. Kudin, 
 V. N. Staroverov, T. A. Keith, R. Kobayashi, J. Normand, 
 K. Raghavachari, A. P. Rendell, J. C. Burant, S. S. Iyengar, 
 J. Tomasi, M. Cossi, J. M. Millam, M. Klene, C. Adamo, R. Cammi, 
 J. W. Ochterski, R. L. Martin, K. Morokuma, O. Farkas, 
 J. B. Foresman, and D. J. Fox, Gaussian, Inc., Wallingford CT, 2019.
 
 ******************************************
 Gaussian 16:  ES64L-G16RevC.02  7-Dec-2021
                28-May-2024 
 ******************************************
 %mem=16GB
 %CPU=0-71
 SetSPE:  set environment variable "OMP_PROC_BIND" = "true"
 SetSPE:  set environment variable "OMP_PLACES" = "{0},{1},{2},{3},{4},{5},{6},{7},{8},{9},{10},{11},{12},{13},{14},{15},{16},{17},{18},{19},{20},{21},{22},{23},{24},{25},{26},{27},{28},{29},{30},{31},{32},{33},{34},{35},{36},{37},{38},{39},{40},{41},{42},{43},{44},{45},{46},{47},{48},{49},{50},{51},{52},{53},{54},{55},{56},{57},{58},{59},{60},{61},{62},{63},{64},{65},{66},{67},{68},{69},{70},{71}"
 Will use up to   72 processors via shared memory.
 %gpucpu=0,1,2,3=0,1,2,3
 Will use    4 GPUs:
 Thread  CPU   GPU
      0    0     0
      1    1     1
      2    2     2
      3    3     3
      4    4    -1
      5    5    -1
      6    6    -1
      7    7    -1
      8    8    -1
      9    9    -1
     10   10    -1
     11   11    -1
     12   12    -1
     13   13    -1
     14   14    -1
     15   15    -1
     16   16    -1
     17   17    -1
     18   18    -1
     19   19    -1
     20   20    -1
     21   21    -1
     22   22    -1
     23   23    -1
     24   24    -1
     25   25    -1
     26   26    -1
     27   27    -1
     28   28    -1
     29   29    -1
     30   30    -1
     31   31    -1
     32   32    -1
     33   33    -1
     34   34    -1
     35   35    -1
     36   36    -1
     37   37    -1
     38   38    -1
     39   39    -1
     40   40    -1
     41   41    -1
     42   42    -1
     43   43    -1
     44   44    -1
     45   45    -1
     46   46    -1
     47   47    -1
     48   48    -1
     49   49    -1
     50   50    -1
     51   51    -1
     52   52    -1
     53   53    -1
     54   54    -1
     55   55    -1
     56   56    -1
     57   57    -1
     58   58    -1
     59   59    -1
     60   60    -1
     61   61    -1
     62   62    -1
     63   63    -1
     64   64    -1
     65   65    -1
     66   66    -1
     67   67    -1
     68   68    -1
     69   69    -1
     70   70    -1
     71   71    -1
 SetGPE:  set environment variable "OMP_PROC_BIND" = "true"
 SetGPE:  set environment variable "OMP_PLACES" = "{0},{1},{2},{3},{4},{5},{6},{7},{8},{9},{10},{11},{12},{13},{14},{15},{16},{17},{18},{19},{20},{21},{22},{23},{24},{25},{26},{27},{28},{29},{30},{31},{32},{33},{34},{35},{36},{37},{38},{39},{40},{41},{42},{43},{44},{45},{46},{47},{48},{49},{50},{51},{52},{53},{54},{55},{56},{57},{58},{59},{60},{61},{62},{63},{64},{65},{66},{67},{68},{69},{70},{71}"
 %oldchk=1ccj_III_D.chk
 %chk=1ccj_III_Dre.chk
 Properties for Device   0
 Minimum vector length:                              32
 Maximum vector length:                            1024
 Number of SMPs:                                    108
 Maximum number of threads per SMP:                2048
 Number of ASync Engines:                             5
 Memory:                                           9192980480
 Properties for Device   1
 Minimum vector length:                              32
 Maximum vector length:                            1024
 Number of SMPs:                                    108
 Maximum number of threads per SMP:                2048
 Number of ASync Engines:                             5
 Memory:                                           9192980480
 Properties for Device   2
 Minimum vector length:                              32
 Maximum vector length:                            1024
 Number of SMPs:                                    108
 Maximum number of threads per SMP:                2048
 Number of ASync Engines:                             5
 Memory:                                           9192980480
 Properties for Device   3
 Minimum vector length:                              32
 Maximum vector length:                            1024
 Number of SMPs:                                    108
 Maximum number of threads per SMP:                2048
 Number of ASync Engines:                             5
 Memory:                                           9192980480
   8273682432 words of memory will be used on each GPU.
 Copying data from "1ccj_III_D.chk" to current chk file "1ccj_III_Dre.chk"
 IOpt=  2 FromEx=T IUOpen= 4 IOptOp= 5 NList=   0 IFRang= 0 IUIn= 4 IUOut= 2.
 --------------------------------------
 # apfd/gen scf=maxcycle=999 geom=check
 --------------------------------------
 1/29=2,38=1,172=1/1;
 2/12=2,40=1/2;
 3/5=7,11=2,14=-4,25=1,30=1,74=-44/1,2,3;
 4//1;
 5/5=2,7=999,38=5/2;
 6/7=2,8=2,9=2,10=2,28=1/1;
 99/5=1,9=1/99;
 ----------
 1ccj_III_H
 ----------
 Structure from the checkpoint file:  "1ccj_III_Dre.chk"
 Charge =  1 Multiplicity = 6
 Z-Matrix found in chk file.
 Fe,0,28.4550988387,93.9702799758,52.805535107
 N,0,29.4173283552,95.6102343936,52.2170689363
 N,0,29.5448898147,93.9138618082,54.4923523223
 N,0,27.387954698,92.4043944133,53.4874246331
 N,0,27.2984276784,94.0338666693,51.1827422532
 C,0,29.1655454101,96.3392641528,51.0972124307
 C,0,29.9674283977,97.5412535075,51.0815850308
 C,0,30.7470995826,97.496533115,52.1968368877
 C,0,30.3713581687,96.2947647237,52.9065663653
 C,0,30.5152108305,94.8002481426,54.8522671198
 C,0,31.1211852461,94.4199305469,56.1023755511
 C,0,30.5261370132,93.2434168766,56.475230031
 C,0,29.5112712242,92.9768699316,55.4729258072
 C,0,27.6141608331,91.6828060031,54.6191915592
 C,0,26.6496429159,90.6207665081,54.7565704073
 C,0,25.8345873985,90.6991248597,53.6588403051
 C,0,26.3464748573,91.7981717302,52.8624823176
 C,0,26.3561220184,93.1322398841,50.8081815724
 C,0,25.9362527785,93.365542439,49.4431468159
 C,0,26.5719786719,94.4978794412,49.0402770347
 C,0,27.4332336217,94.8908422892,50.1356044816
 C,0,28.2808424901,95.9815679439,50.0949493694
 H,0,28.2353689121,96.616424583,49.2229679439
 C,0,30.8983976425,95.9163025165,54.1261875513
 H,0,31.6725966974,96.5410576694,54.5454399671
 C,0,28.6210603769,91.9243112746,55.535768772
 H,0,28.7098037326,91.2407472285,56.365924814
 C,0,25.8576897919,92.1238041294,51.6105090478
 H,0,25.066713178,91.50997368,51.2066912585
 C,0,31.7639868633,98.4746156875,52.6781945931
 H,0,31.8895998586,99.2849053914,51.9642757355
 H,0,32.7293629622,97.9871015558,52.815791333
 H,0,31.4641429485,98.9035865269,53.6350664591
 C,0,29.9178590158,98.5716061306,50.0057854291
 H,0,28.9008885255,98.9424787158,49.8787492787
 H,0,30.2439451477,98.1501997802,49.0543501723
 H,0,30.5620768501,99.4139132693,50.245845796
 C,0,32.1584612641,95.2042846937,56.8282492425
 H,0,31.9664735148,96.2724161741,56.7372234824
 H,0,33.154158843,95.0050735704,56.4277491196
 H,0,32.1544156758,94.939411604,57.8836449032
 C,0,30.7636443059,92.4316854703,57.6471331415
 H,0,29.8994226783,91.9097053985,58.0404628384
 C,0,31.9366178713,92.2723645236,58.2524823432
 H,0,32.8400714583,92.7245544624,57.8826561525
 H,0,32.0371377305,91.6573042954,59.1313986371
 C,0,26.5461350767,89.7014328612,55.9234076953
 H,0,26.7776488074,90.2247517844,56.8497062072
 H,0,27.2428430519,88.867298246,55.8235571371
 H,0,25.5373208453,89.2996179306,55.9940006428
 C,0,24.6876852744,89.8926444982,53.3049817284
 H,0,23.9049071571,90.4093562856,52.7614074615
 C,0,24.5319832137,88.602451369,53.5846871574
 H,0,25.2946429639,88.0268598753,54.0791552877
 H,0,23.6396364512,88.0686056333,53.3020383068
 C,0,24.9451957587,92.5251927404,48.7132445295
 H,0,23.960300491,92.6026522687,49.1754443073
 H,0,25.2447185292,91.4775218715,48.7321779473
 H,0,24.8610178682,92.8394364123,47.675777113
 C,0,26.4904998293,95.2126135556,47.7349990894
 H,0,25.7690815933,94.7346672596,47.0767548682
 H,0,27.4607489823,95.2185044285,47.2373944625
 H,0,26.1823489347,96.2474219356,47.8856677653
 O,0,27.056,95.45,53.813
 H,0,27.456,96.286,53.572
 H,0,26.359,95.337,54.353
 C,0,30.9468815522,90.0504570119,49.7146781601
 H,0,31.5338347196,89.2927763248,50.2338210252
 H,0,31.5052458248,90.370916033,48.8352987672
 H,0,30.0121655939,89.6038471315,49.3907059299
 N,0,31.6557849291,91.9951298106,51.1236434188
 H,0,32.6429824008,91.8829759197,50.9609801558
 C,0,30.6640656815,91.2030017644,50.6071293162
 C,0,31.0666441517,92.9458532411,51.8835733041
 H,0,31.5996715772,93.7078248989,52.4136739963
 N,0,29.763112186,92.8036212157,51.8796646457
 C,0,29.4975723394,91.7225558022,51.0911157222
 H,0,28.4922206905,91.3940736753,50.9258852956
 Recover connectivity data from disk.
 Stoichiometry    C34H36FeN6O(1+,6)
 Framework group  C1[X(C34H36FeN6O)]
 Deg. of freedom   228
 Full point group                 C1      NOp   1
 Largest Abelian subgroup         C1      NOp   1
 Largest concise Abelian subgroup C1      NOp   1
                         Standard orientation:                         
 ---------------------------------------------------------------------
 Center     Atomic      Atomic             Coordinates (Angstroms)
 Number     Number       Type             X           Y           Z
 ---------------------------------------------------------------------
      1         26           0        0.087907   -0.192095   -0.408148
      2          7           0        1.452779   -1.640417   -0.374710
      3          7           0        1.536367    1.199242   -0.359937
      4          7           0       -1.270247    1.282738   -0.598026
      5          7           0       -1.377085   -1.538518   -0.535939
      6          6           0        1.217577   -2.977178   -0.456611
      7          6           0        2.460807   -3.707844   -0.549042
      8          6           0        3.456221   -2.782212   -0.471393
      9          6           0        2.806476   -1.493807   -0.387783
     10          6           0        2.877767    0.962038   -0.326407
     11          6           0        3.616394    2.195946   -0.245671
     12          6           0        2.684121    3.197903   -0.180593
     13          6           0        1.392893    2.547088   -0.302180
     14          6           0       -1.043977    2.623854   -0.543560
     15          6           0       -2.272231    3.362003   -0.697257
     16          6           0       -3.266340    2.428955   -0.826227
     17          6           0       -2.614542    1.137564   -0.718581
     18          6           0       -2.713387   -1.303017   -0.534789
     19          6           0       -3.451483   -2.534211   -0.351993
     20          6           0       -2.527969   -3.532088   -0.350634
     21          6           0       -1.235078   -2.888064   -0.448551
     22          6           0       -0.032941   -3.569599   -0.436129
     23          1           0       -0.071201   -4.648474   -0.430950
     24          6           0        3.477377   -0.286764   -0.350118
     25          1           0        4.556318   -0.321109   -0.336569
     26          6           0        0.191463    3.221982   -0.375589
     27          1           0        0.215283    4.298415   -0.304744
     28          6           0       -3.301804   -0.062009   -0.685695
     29          1           0       -4.379984   -0.022470   -0.723972
     30          6           0        4.933529   -2.978422   -0.509789
     31          1           0        5.182302   -4.035971   -0.551387
     32          1           0        5.399834   -2.551920    0.378585
     33          1           0        5.365125   -2.489613   -1.384041
     34          6           0        2.558230   -5.189791   -0.674627
     35          1           0        1.993673   -5.537698   -1.539583
     36          1           0        2.151814   -5.678387    0.211513
     37          1           0        3.593072   -5.501530   -0.793145
     38          6           0        5.100951    2.312022   -0.271458
     39          1           0        5.531719    1.583260   -0.956582
     40          1           0        5.526445    2.137180    0.718433
     41          1           0        5.390606    3.308881   -0.597658
     42          6           0        2.884169    4.626099   -0.086206
     43          1           0        2.140355    5.238730   -0.581660
     44          6           0        3.879821    5.226341    0.558842
     45          1           0        4.621783    4.675761    1.110050
     46          1           0        3.971252    6.299725    0.578418
     47          6           0       -2.377168    4.845009   -0.781405
     48          1           0       -1.528020    5.262790   -1.319826
     49          1           0       -2.397388    5.290013    0.214946
     50          1           0       -3.290813    5.125893   -1.301502
     51          6           0       -4.685190    2.618515   -1.031029
     52          1           0       -5.175675    1.856669   -1.626194
     53          6           0       -5.409276    3.625202   -0.552116
     54          1           0       -4.987011    4.383770    0.083274
     55          1           0       -6.463237    3.709661   -0.759954
     56          6           0       -4.936666   -2.618310   -0.260899
     57          1           0       -5.397600   -2.320016   -1.203348
     58          1           0       -5.309795   -1.956903    0.520767
     59          1           0       -5.253416   -3.632955   -0.032125
     60          6           0       -2.728221   -5.003351   -0.222115
     61          1           0       -3.786772   -5.246755   -0.173246
     62          1           0       -2.245304   -5.380899    0.679704
     63          1           0       -2.297377   -5.522879   -1.078240
     64          8           0        0.356237   -0.327858   -2.660170
     65          1           0        1.012535   -1.021345   -2.733150
     66          1           0        0.024249    0.154266   -3.329138
     67          6           0       -1.661390   -0.191138    4.889714
     68          1           0       -1.456575    0.694664    5.490970
     69          1           0       -1.452532   -1.071407    5.497396
     70          1           0       -2.713313   -0.193556    4.622201
     71          7           0        0.534045   -0.250446    3.687206
     72          1           0        1.102568   -0.290487    4.517131
     73          6           0       -0.834803   -0.195192    3.656202
     74          6           0        0.973427   -0.242245    2.408405
     75          1           0        2.005513   -0.277664    2.126855
     76          7           0       -0.033459   -0.184968    1.570348
     77          6           0       -1.164959   -0.153563    2.331759
     78          1           0       -2.133496   -0.104018    1.878533
 ---------------------------------------------------------------------
 Rotational constants (GHZ):           0.0938141           0.0916855           0.0593012
 General basis read from cards:  (5D, 7F)
 There are   723 symmetry adapted cartesian basis functions of A   symmetry.
 There are   679 symmetry adapted basis functions of A   symmetry.
   679 basis functions,  1378 primitive gaussians,   723 cartesian basis functions
   160 alpha electrons      155 beta electrons
       nuclear repulsion energy      5972.8801771350 Hartrees.
 NAtoms=   78 NActive=   78 NUniq=   78 SFac= 1.00D+00 NAtFMM=   60 NAOKFM=T Big=T
 Integral buffers will be    131072 words long.
 Raffenetti 2 integral format.
 Two-electron integral symmetry is turned on.
 R6APFD:  NTU= -4 IXU= 1 FactS= 1.050
 Nuclear repulsion after empirical dispersion term =     5972.7268592112 Hartrees.
 One-electron integrals computed using PRISM.
 NBasis=   679 RedAO= T EigKep=  2.57D-04  NBF=   679
 NBsUse=   679 1.00D-06 EigRej= -1.00D+00 NBFU=   679
 ExpMin= 4.20D-02 ExpMax= 3.01D+05 ExpMxC= 2.91D+03 IAcc=3 IRadAn=         5 AccDes= 0.00D+00
 Harris functional with IExCor= 3731 and IRadAn=       5 diagonalized for initial guess.
 HarFok:  IExCor= 3731 AccDes= 0.00D+00 IRadAn=         5 IDoV= 1 UseB2=F ITyADJ=14
 ICtDFT=  3500011 ScaDFX=  1.000000  1.000000  1.000000  1.000000
 FoFCou: FMM=F IPFlag=           0 FMFlag=      100000 FMFlg1=        2001
         NFxFlg=           0 DoJE=T BraDBF=F KetDBF=T FulRan=T
         wScrn=  0.000000 ICntrl=       500 IOpCl=  0 I1Cent=   200000004 NGrid=           0
         NMat0=    1 NMatS0=      1 NMatT0=    0 NMatD0=    1 NMtDS0=    0 NMtDT0=    0
 Petite list used in FoFCou.
 Initial guess <Sx>= 0.0000 <Sy>= 0.0000 <Sz>= 2.5000 <S**2>= 8.7500 S= 2.5000
 Requested convergence on RMS density matrix=1.00D-08 within 999 cycles.
 Requested convergence on MAX density matrix=1.00D-06.
 Requested convergence on             energy=1.00D-06.
 No special actions if energy rises.
 EnCoef did   100 forward-backward iterations
 EnCoef did   100 forward-backward iterations
 EnCoef did   100 forward-backward iterations
 EnCoef did   100 forward-backward iterations
 EnCoef did     3 forward-backward iterations
 EnCoef did    11 forward-backward iterations
 EnCoef did     5 forward-backward iterations
 EnCoef did     4 forward-backward iterations
 Restarting incremental Fock formation.
 SCF Done:  E(UAPFD) =  -2983.20916790     A.U. after   31 cycles
            NFock= 31  Conv=0.88D-08     -V/T= 2.0034
 <Sx>= 0.0000 <Sy>= 0.0000 <Sz>= 2.5000 <S**2>= 8.7584 S= 2.5014
 <L.S>=  0.00000000000    
 Annihilation of the first spin contaminant:
 S**2 before annihilation     8.7584,   after     8.7500

 **********************************************************************

            Population analysis using the SCF Density.

 **********************************************************************

 Orbital symmetries:
 Alpha Orbitals:
       Occupied  (A) (A) (A) (A) (A) (A) (A) (A) (A) (A) (A) (A)
                 (A) (A) (A) (A) (A) (A) (A) (A) (A) (A) (A) (A)
                 (A) (A) (A) (A) (A) (A) (A) (A) (A) (A) (A) (A)
                 (A) (A) (A) (A) (A) (A) (A) (A) (A) (A) (A) (A)
                 (A) (A) (A) (A) (A) (A) (A) (A) (A) (A) (A) (A)
                 (A) (A) (A) (A) (A) (A) (A) (A) (A) (A) (A) (A)
                 (A) (A) (A) (A) (A) (A) (A) (A) (A) (A) (A) (A)
                 (A) (A) (A) (A) (A) (A) (A) (A) (A) (A) (A) (A)
                 (A) (A) (A) (A) (A) (A) (A) (A) (A) (A) (A) (A)
                 (A) (A) (A) (A) (A) (A) (A) (A) (A) (A) (A) (A)
                 (A) (A) (A) (A) (A) (A) (A) (A) (A) (A) (A) (A)
                 (A) (A) (A) (A) (A) (A) (A) (A) (A) (A) (A) (A)
                 (A) (A) (A) (A) (A) (A) (A) (A) (A) (A) (A) (A)
                 (A) (A) (A) (A)
       Virtual   (A) (A) (A) (A) (A) (A) (A) (A) (A) (A) (A) (A)
                 (A) (A) (A) (A) (A) (A) (A) (A) (A) (A) (A) (A)
                 (A) (A) (A) (A) (A) (A) (A) (A) (A) (A) (A) (A)
                 (A) (A) (A) (A) (A) (A) (A) (A) (A) (A) (A) (A)
                 (A) (A) (A) (A) (A) (A) (A) (A) (A) (A) (A) (A)
                 (A) (A) (A) (A) (A) (A) (A) (A) (A) (A) (A) (A)
                 (A) (A) (A) (A) (A) (A) (A) (A) (A) (A) (A) (A)
                 (A) (A) (A) (A) (A) (A) (A) (A) (A) (A) (A) (A)
                 (A) (A) (A) (A) (A) (A) (A) (A) (A) (A) (A) (A)
                 (A) (A) (A) (A) (A) (A) (A) (A) (A) (A) (A) (A)
                 (A) (A) (A) (A) (A) (A) (A) (A) (A) (A) (A) (A)
                 (A) (A) (A) (A) (A) (A) (A) (A) (A) (A) (A) (A)
                 (A) (A) (A) (A) (A) (A) (A) (A) (A) (A) (A) (A)
                 (A) (A) (A) (A) (A) (A) (A) (A) (A) (A) (A) (A)
                 (A) (A) (A) (A) (A) (A) (A) (A) (A) (A) (A) (A)
                 (A) (A) (A) (A) (A) (A) (A) (A) (A) (A) (A) (A)
                 (A) (A) (A) (A) (A) (A) (A) (A) (A) (A) (A) (A)
                 (A) (A) (A) (A) (A) (A) (A) (A) (A) (A) (A) (A)
                 (A) (A) (A) (A) (A) (A) (A) (A) (A) (A) (A) (A)
                 (A) (A) (A) (A) (A) (A) (A) (A) (A) (A) (A) (A)
                 (A) (A) (A) (A) (A) (A) (A) (A) (A) (A) (A) (A)
                 (A) (A) (A) (A) (A) (A) (A) (A) (A) (A) (A) (A)
                 (A) (A) (A) (A) (A) (A) (A) (A) (A) (A) (A) (A)
                 (A) (A) (A) (A) (A) (A) (A) (A) (A) (A) (A) (A)
                 (A) (A) (A) (A) (A) (A) (A) (A) (A) (A) (A) (A)
                 (A) (A) (A) (A) (A) (A) (A) (A) (A) (A) (A) (A)
                 (A) (A) (A) (A) (A) (A) (A) (A) (A) (A) (A) (A)
                 (A) (A) (A) (A) (A) (A) (A) (A) (A) (A) (A) (A)
                 (A) (A) (A) (A) (A) (A) (A) (A) (A) (A) (A) (A)
                 (A) (A) (A) (A) (A) (A) (A) (A) (A) (A) (A) (A)
                 (A) (A) (A) (A) (A) (A) (A) (A) (A) (A) (A) (A)
                 (A) (A) (A) (A) (A) (A) (A) (A) (A) (A) (A) (A)
                 (A) (A) (A) (A) (A) (A) (A) (A) (A) (A) (A) (A)
                 (A) (A) (A) (A) (A) (A) (A) (A) (A) (A) (A) (A)
                 (A) (A) (A) (A) (A) (A) (A) (A) (A) (A) (A) (A)
                 (A) (A) (A) (A) (A) (A) (A) (A) (A) (A) (A) (A)
                 (A) (A) (A) (A) (A) (A) (A) (A) (A) (A) (A) (A)
                 (A) (A) (A) (A) (A) (A) (A) (A) (A) (A) (A) (A)
                 (A) (A) (A) (A) (A) (A) (A) (A) (A) (A) (A) (A)
                 (A) (A) (A) (A) (A) (A) (A) (A) (A) (A) (A) (A)
                 (A) (A) (A) (A) (A) (A) (A) (A) (A) (A) (A) (A)
                 (A) (A) (A) (A) (A) (A) (A) (A) (A) (A) (A) (A)
                 (A) (A) (A) (A) (A) (A) (A) (A) (A) (A) (A) (A)
                 (A) (A) (A)
 Beta  Orbitals:
       Occupied  (A) (A) (A) (A) (A) (A) (A) (A) (A) (A) (A) (A)
                 (A) (A) (A) (A) (A) (A) (A) (A) (A) (A) (A) (A)
                 (A) (A) (A) (A) (A) (A) (A) (A) (A) (A) (A) (A)
                 (A) (A) (A) (A) (A) (A) (A) (A) (A) (A) (A) (A)
                 (A) (A) (A) (A) (A) (A) (A) (A) (A) (A) (A) (A)
                 (A) (A) (A) (A) (A) (A) (A) (A) (A) (A) (A) (A)
                 (A) (A) (A) (A) (A) (A) (A) (A) (A) (A) (A) (A)
                 (A) (A) (A) (A) (A) (A) (A) (A) (A) (A) (A) (A)
                 (A) (A) (A) (A) (A) (A) (A) (A) (A) (A) (A) (A)
                 (A) (A) (A) (A) (A) (A) (A) (A) (A) (A) (A) (A)
                 (A) (A) (A) (A) (A) (A) (A) (A) (A) (A) (A) (A)
                 (A) (A) (A) (A) (A) (A) (A) (A) (A) (A) (A) (A)
                 (A) (A) (A) (A) (A) (A) (A) (A) (A) (A) (A)
       Virtual   (A) (A) (A) (A) (A) (A) (A) (A) (A) (A) (A) (A)
                 (A) (A) (A) (A) (A) (A) (A) (A) (A) (A) (A) (A)
                 (A) (A) (A) (A) (A) (A) (A) (A) (A) (A) (A) (A)
                 (A) (A) (A) (A) (A) (A) (A) (A) (A) (A) (A) (A)
                 (A) (A) (A) (A) (A) (A) (A) (A) (A) (A) (A) (A)
                 (A) (A) (A) (A) (A) (A) (A) (A) (A) (A) (A) (A)
                 (A) (A) (A) (A) (A) (A) (A) (A) (A) (A) (A) (A)
                 (A) (A) (A) (A) (A) (A) (A) (A) (A) (A) (A) (A)
                 (A) (A) (A) (A) (A) (A) (A) (A) (A) (A) (A) (A)
                 (A) (A) (A) (A) (A) (A) (A) (A) (A) (A) (A) (A)
                 (A) (A) (A) (A) (A) (A) (A) (A) (A) (A) (A) (A)
                 (A) (A) (A) (A) (A) (A) (A) (A) (A) (A) (A) (A)
                 (A) (A) (A) (A) (A) (A) (A) (A) (A) (A) (A) (A)
                 (A) (A) (A) (A) (A) (A) (A) (A) (A) (A) (A) (A)
                 (A) (A) (A) (A) (A) (A) (A) (A) (A) (A) (A) (A)
                 (A) (A) (A) (A) (A) (A) (A) (A) (A) (A) (A) (A)
                 (A) (A) (A) (A) (A) (A) (A) (A) (A) (A) (A) (A)
                 (A) (A) (A) (A) (A) (A) (A) (A) (A) (A) (A) (A)
                 (A) (A) (A) (A) (A) (A) (A) (A) (A) (A) (A) (A)
                 (A) (A) (A) (A) (A) (A) (A) (A) (A) (A) (A) (A)
                 (A) (A) (A) (A) (A) (A) (A) (A) (A) (A) (A) (A)
                 (A) (A) (A) (A) (A) (A) (A) (A) (A) (A) (A) (A)
                 (A) (A) (A) (A) (A) (A) (A) (A) (A) (A) (A) (A)
                 (A) (A) (A) (A) (A) (A) (A) (A) (A) (A) (A) (A)
                 (A) (A) (A) (A) (A) (A) (A) (A) (A) (A) (A) (A)
                 (A) (A) (A) (A) (A) (A) (A) (A) (A) (A) (A) (A)
                 (A) (A) (A) (A) (A) (A) (A) (A) (A) (A) (A) (A)
                 (A) (A) (A) (A) (A) (A) (A) (A) (A) (A) (A) (A)
                 (A) (A) (A) (A) (A) (A) (A) (A) (A) (A) (A) (A)
                 (A) (A) (A) (A) (A) (A) (A) (A) (A) (A) (A) (A)
                 (A) (A) (A) (A) (A) (A) (A) (A) (A) (A) (A) (A)
                 (A) (A) (A) (A) (A) (A) (A) (A) (A) (A) (A) (A)
                 (A) (A) (A) (A) (A) (A) (A) (A) (A) (A) (A) (A)
                 (A) (A) (A) (A) (A) (A) (A) (A) (A) (A) (A) (A)
                 (A) (A) (A) (A) (A) (A) (A) (A) (A) (A) (A) (A)
                 (A) (A) (A) (A) (A) (A) (A) (A) (A) (A) (A) (A)
                 (A) (A) (A) (A) (A) (A) (A) (A) (A) (A) (A) (A)
                 (A) (A) (A) (A) (A) (A) (A) (A) (A) (A) (A) (A)
                 (A) (A) (A) (A) (A) (A) (A) (A) (A) (A) (A) (A)
                 (A) (A) (A) (A) (A) (A) (A) (A) (A) (A) (A) (A)
                 (A) (A) (A) (A) (A) (A) (A) (A) (A) (A) (A) (A)
                 (A) (A) (A) (A) (A) (A) (A) (A) (A) (A) (A) (A)
                 (A) (A) (A) (A) (A) (A) (A) (A) (A) (A) (A) (A)
                 (A) (A) (A) (A) (A) (A) (A) (A)
 The electronic state is 6-A.
 Alpha  occ. eigenvalues -- -256.41486 -30.32600 -26.15597 -26.15481 -26.15451
 Alpha  occ. eigenvalues --  -19.29543 -14.53793 -14.49017 -14.46276 -14.45970
 Alpha  occ. eigenvalues --  -14.45858 -14.45718 -10.37845 -10.35019 -10.33293
 Alpha  occ. eigenvalues --  -10.33268 -10.33253 -10.33141 -10.33138 -10.33017
 Alpha  occ. eigenvalues --  -10.32986 -10.32983 -10.32410 -10.30348 -10.30289
 Alpha  occ. eigenvalues --  -10.30254 -10.30241 -10.30218 -10.30213 -10.30002
 Alpha  occ. eigenvalues --  -10.29961 -10.29936 -10.29915 -10.29893 -10.29882
 Alpha  occ. eigenvalues --  -10.29864 -10.29192 -10.29191 -10.28413 -10.28291
 Alpha  occ. eigenvalues --  -10.28092 -10.28068 -10.27987 -10.27954 -10.27885
 Alpha  occ. eigenvalues --  -10.27802  -3.78131  -2.54782  -2.54694  -2.54637
 Alpha  occ. eigenvalues --   -1.16559  -1.16206  -1.08864  -1.07918  -1.07690
 Alpha  occ. eigenvalues --   -1.06818  -1.02449  -0.93279  -0.92013  -0.91715
 Alpha  occ. eigenvalues --   -0.91370  -0.90984  -0.90511  -0.90421  -0.90356
 Alpha  occ. eigenvalues --   -0.86533  -0.85276  -0.84983  -0.84151  -0.82844
 Alpha  occ. eigenvalues --   -0.81958  -0.81032  -0.80066  -0.78575  -0.78275
 Alpha  occ. eigenvalues --   -0.78092  -0.75865  -0.74916  -0.74849  -0.72101
 Alpha  occ. eigenvalues --   -0.71984  -0.70534  -0.69911  -0.68575  -0.68172
 Alpha  occ. eigenvalues --   -0.66765  -0.65019  -0.64298  -0.63751  -0.63496
 Alpha  occ. eigenvalues --   -0.61789  -0.61694  -0.61628  -0.61180  -0.60009
 Alpha  occ. eigenvalues --   -0.58422  -0.58208  -0.58122  -0.57853  -0.56211
 Alpha  occ. eigenvalues --   -0.55966  -0.55872  -0.55651  -0.54962  -0.54708
 Alpha  occ. eigenvalues --   -0.54462  -0.54129  -0.53549  -0.53374  -0.53121
 Alpha  occ. eigenvalues --   -0.52984  -0.52969  -0.52789  -0.52584  -0.52068
 Alpha  occ. eigenvalues --   -0.51952  -0.51557  -0.51515  -0.51441  -0.50925
 Alpha  occ. eigenvalues --   -0.50639  -0.50344  -0.49946  -0.49885  -0.49561
 Alpha  occ. eigenvalues --   -0.49449  -0.49132  -0.48927  -0.48651  -0.48463
 Alpha  occ. eigenvalues --   -0.48431  -0.48173  -0.47662  -0.47511  -0.46793
 Alpha  occ. eigenvalues --   -0.46736  -0.46043  -0.45595  -0.45093  -0.44682
 Alpha  occ. eigenvalues --   -0.44133  -0.43553  -0.43267  -0.42576  -0.42330
 Alpha  occ. eigenvalues --   -0.41785  -0.41059  -0.39416  -0.38978  -0.37637
 Alpha  occ. eigenvalues --   -0.37017  -0.36903  -0.34413  -0.33670  -0.33173
 Alpha  occ. eigenvalues --   -0.32263  -0.32001  -0.31692  -0.29128  -0.28374
 Alpha virt. eigenvalues --   -0.17184  -0.17096  -0.11471  -0.08658  -0.07780
 Alpha virt. eigenvalues --   -0.06507  -0.04750  -0.04251  -0.03398  -0.01809
 Alpha virt. eigenvalues --   -0.01385  -0.00626   0.00998   0.01324   0.02060
 Alpha virt. eigenvalues --    0.02513   0.03206   0.03660   0.04104   0.04269
 Alpha virt. eigenvalues --    0.04675   0.04850   0.05020   0.05390   0.05789
 Alpha virt. eigenvalues --    0.05967   0.06433   0.06505   0.06738   0.06998
 Alpha virt. eigenvalues --    0.07666   0.07747   0.08026   0.08244   0.08548
 Alpha virt. eigenvalues --    0.08700   0.09139   0.09508   0.09574   0.09703
 Alpha virt. eigenvalues --    0.09957   0.10368   0.10473   0.10649   0.11368
 Alpha virt. eigenvalues --    0.11792   0.12080   0.12210   0.12475   0.12968
 Alpha virt. eigenvalues --    0.13072   0.13398   0.13681   0.13979   0.15041
 Alpha virt. eigenvalues --    0.15168   0.15619   0.15967   0.16440   0.16837
 Alpha virt. eigenvalues --    0.16939   0.17185   0.17933   0.18053   0.18204
 Alpha virt. eigenvalues --    0.19546   0.20147   0.20876   0.21546   0.21669
 Alpha virt. eigenvalues --    0.22784   0.23238   0.23609   0.25007   0.25496
 Alpha virt. eigenvalues --    0.25793   0.26046   0.27046   0.27338   0.28709
 Alpha virt. eigenvalues --    0.29212   0.30222   0.30779   0.31609   0.32730
 Alpha virt. eigenvalues --    0.33548   0.33981   0.34354   0.34425   0.35540
 Alpha virt. eigenvalues --    0.37635   0.37816   0.38163   0.38812   0.39152
 Alpha virt. eigenvalues --    0.39854   0.40273   0.40487   0.41064   0.41402
 Alpha virt. eigenvalues --    0.41703   0.41908   0.42709   0.43122   0.43628
 Alpha virt. eigenvalues --    0.43788   0.44127   0.44907   0.45021   0.45411
 Alpha virt. eigenvalues --    0.45628   0.45833   0.46207   0.46492   0.46917
 Alpha virt. eigenvalues --    0.47954   0.48327   0.48779   0.49047   0.49378
 Alpha virt. eigenvalues --    0.49792   0.50594   0.50701   0.51001   0.51316
 Alpha virt. eigenvalues --    0.52146   0.52532   0.52712   0.52893   0.53514
 Alpha virt. eigenvalues --    0.54297   0.54355   0.54928   0.55543   0.55624
 Alpha virt. eigenvalues --    0.56068   0.56201   0.56514   0.56791   0.57222
 Alpha virt. eigenvalues --    0.57571   0.57626   0.58069   0.58162   0.58494
 Alpha virt. eigenvalues --    0.59487   0.59896   0.60475   0.61228   0.61387
 Alpha virt. eigenvalues --    0.61858   0.62748   0.63000   0.63099   0.63406
 Alpha virt. eigenvalues --    0.63956   0.64947   0.65295   0.66036   0.66352
 Alpha virt. eigenvalues --    0.66860   0.67169   0.67870   0.67931   0.68431
 Alpha virt. eigenvalues --    0.68504   0.69058   0.69179   0.69526   0.69736
 Alpha virt. eigenvalues --    0.70112   0.70391   0.70969   0.71447   0.72162
 Alpha virt. eigenvalues --    0.72937   0.73760   0.73901   0.74238   0.74947
 Alpha virt. eigenvalues --    0.76314   0.76548   0.76656   0.77453   0.77772
 Alpha virt. eigenvalues --    0.78305   0.78576   0.78752   0.79073   0.79292
 Alpha virt. eigenvalues --    0.79672   0.79955   0.80628   0.80952   0.81311
 Alpha virt. eigenvalues --    0.81687   0.82167   0.82438   0.82815   0.83338
 Alpha virt. eigenvalues --    0.83527   0.83959   0.84273   0.84460   0.84752
 Alpha virt. eigenvalues --    0.85451   0.85838   0.85953   0.86517   0.87020
 Alpha virt. eigenvalues --    0.87217   0.87466   0.87932   0.88012   0.88514
 Alpha virt. eigenvalues --    0.88983   0.89568   0.90151   0.90342   0.90815
 Alpha virt. eigenvalues --    0.91067   0.91565   0.91975   0.92485   0.92864
 Alpha virt. eigenvalues --    0.93139   0.93346   0.93699   0.94436   0.94887
 Alpha virt. eigenvalues --    0.95372   0.96313   0.96702   0.96865   0.97421
 Alpha virt. eigenvalues --    0.98046   0.98173   0.99130   0.99782   1.01174
 Alpha virt. eigenvalues --    1.01894   1.02884   1.04153   1.04474   1.05172
 Alpha virt. eigenvalues --    1.05435   1.06205   1.07523   1.08115   1.08291
 Alpha virt. eigenvalues --    1.08374   1.09185   1.09885   1.09922   1.10410
 Alpha virt. eigenvalues --    1.10862   1.11493   1.12028   1.12235   1.12566
 Alpha virt. eigenvalues --    1.13184   1.14373   1.14957   1.15660   1.17250
 Alpha virt. eigenvalues --    1.17499   1.18656   1.19367   1.20168   1.20321
 Alpha virt. eigenvalues --    1.21076   1.21507   1.21958   1.22842   1.23649
 Alpha virt. eigenvalues --    1.24162   1.24883   1.25747   1.26858   1.27132
 Alpha virt. eigenvalues --    1.27541   1.27740   1.27898   1.28240   1.28482
 Alpha virt. eigenvalues --    1.29015   1.29209   1.30536   1.31430   1.32468
 Alpha virt. eigenvalues --    1.33001   1.33164   1.34216   1.35042   1.35396
 Alpha virt. eigenvalues --    1.37084   1.37324   1.38254   1.38806   1.39952
 Alpha virt. eigenvalues --    1.40088   1.41304   1.41886   1.42323   1.43397
 Alpha virt. eigenvalues --    1.43539   1.44254   1.45113   1.45671   1.46239
 Alpha virt. eigenvalues --    1.47293   1.48753   1.50041   1.50708   1.51737
 Alpha virt. eigenvalues --    1.52601   1.53367   1.53928   1.54652   1.55358
 Alpha virt. eigenvalues --    1.56069   1.57274   1.58232   1.59627   1.60200
 Alpha virt. eigenvalues --    1.60727   1.61539   1.62122   1.63774   1.65088
 Alpha virt. eigenvalues --    1.65431   1.68938   1.69658   1.69909   1.70403
 Alpha virt. eigenvalues --    1.70986   1.71165   1.71764   1.72208   1.72608
 Alpha virt. eigenvalues --    1.72869   1.73464   1.73996   1.74560   1.74989
 Alpha virt. eigenvalues --    1.75626   1.76463   1.77027   1.77622   1.77776
 Alpha virt. eigenvalues --    1.78590   1.79310   1.80076   1.80543   1.81385
 Alpha virt. eigenvalues --    1.81590   1.82645   1.83383   1.83601   1.84251
 Alpha virt. eigenvalues --    1.84902   1.85145   1.85582   1.86374   1.87027
 Alpha virt. eigenvalues --    1.87704   1.88500   1.88716   1.90408   1.90712
 Alpha virt. eigenvalues --    1.91111   1.91730   1.92094   1.93681   1.94485
 Alpha virt. eigenvalues --    1.95286   1.95439   1.96057   1.96507   1.96724
 Alpha virt. eigenvalues --    1.97216   1.97823   1.98698   1.99222   2.00297
 Alpha virt. eigenvalues --    2.01673   2.01957   2.02732   2.03586   2.04235
 Alpha virt. eigenvalues --    2.05299   2.06209   2.06703   2.07036   2.07205
 Alpha virt. eigenvalues --    2.07811   2.09110   2.09836   2.11024   2.11698
 Alpha virt. eigenvalues --    2.12650   2.12871   2.13464   2.13796   2.14181
 Alpha virt. eigenvalues --    2.15296   2.16081   2.16318   2.16931   2.17347
 Alpha virt. eigenvalues --    2.17521   2.17906   2.18847   2.19155   2.19244
 Alpha virt. eigenvalues --    2.20143   2.20385   2.20566   2.21208   2.22158
 Alpha virt. eigenvalues --    2.22690   2.23228   2.24070   2.24685   2.25334
 Alpha virt. eigenvalues --    2.25647   2.26236   2.26934   2.27563   2.27911
 Alpha virt. eigenvalues --    2.28544   2.28849   2.29151   2.29711   2.31007
 Alpha virt. eigenvalues --    2.31677   2.32482   2.32663   2.33041   2.33297
 Alpha virt. eigenvalues --    2.34106   2.34539   2.35210   2.35442   2.36403
 Alpha virt. eigenvalues --    2.37979   2.38934   2.39961   2.40226   2.42291
 Alpha virt. eigenvalues --    2.42985   2.43421   2.43675   2.44175   2.45259
 Alpha virt. eigenvalues --    2.45500   2.45697   2.46758   2.47401   2.47984
 Alpha virt. eigenvalues --    2.48507   2.50042   2.50390   2.51015   2.53047
 Alpha virt. eigenvalues --    2.54795   2.55616   2.56886   2.58091   2.59155
 Alpha virt. eigenvalues --    2.59407   2.60141   2.61288   2.62024   2.64777
 Alpha virt. eigenvalues --    2.65479   2.66187   2.68409   2.69291   2.70495
 Alpha virt. eigenvalues --    2.71160   2.71319   2.77245   2.77912   2.78340
 Alpha virt. eigenvalues --    2.79518   2.81336   2.82231   2.83053   2.85827
 Alpha virt. eigenvalues --    2.86929   2.87142   2.89250   2.89566   2.90286
 Alpha virt. eigenvalues --    2.90729   2.93837   2.95388   2.95867   2.97166
 Alpha virt. eigenvalues --    3.02558   3.04276   3.05299   3.10966   3.13295
 Alpha virt. eigenvalues --    3.14872   3.20453   3.20627   3.28790   3.29388
 Alpha virt. eigenvalues --    3.29905   3.36614   3.36871   3.40883   3.46015
 Alpha virt. eigenvalues --    3.67204   3.69217   3.96287   4.05056
  Beta  occ. eigenvalues -- -256.41324 -30.22926 -26.07514 -26.07388 -26.07367
  Beta  occ. eigenvalues --  -19.29395 -14.53776 -14.48685 -14.45984 -14.45671
  Beta  occ. eigenvalues --  -14.45566 -14.45424 -10.37824 -10.35005 -10.33274
  Beta  occ. eigenvalues --  -10.33243 -10.33231 -10.33124 -10.33117 -10.32993
  Beta  occ. eigenvalues --  -10.32965 -10.32959 -10.32406 -10.30313 -10.30286
  Beta  occ. eigenvalues --  -10.30225 -10.30218 -10.30207 -10.30178 -10.29968
  Beta  occ. eigenvalues --  -10.29967 -10.29920 -10.29902 -10.29884 -10.29862
  Beta  occ. eigenvalues --  -10.29828 -10.29200 -10.29197 -10.28413 -10.28291
  Beta  occ. eigenvalues --  -10.28092 -10.28067 -10.27987 -10.27937 -10.27870
  Beta  occ. eigenvalues --  -10.27802  -3.55376  -2.30624  -2.30334  -2.30269
  Beta  occ. eigenvalues --   -1.16367  -1.15949  -1.08490  -1.07549  -1.07328
  Beta  occ. eigenvalues --   -1.06429  -1.02097  -0.93219  -0.91843  -0.91561
  Beta  occ. eigenvalues --   -0.91182  -0.90814  -0.90398  -0.90323  -0.90305
  Beta  occ. eigenvalues --   -0.86471  -0.85203  -0.84926  -0.84095  -0.82812
  Beta  occ. eigenvalues --   -0.81862  -0.80926  -0.79927  -0.78392  -0.78160
  Beta  occ. eigenvalues --   -0.77893  -0.75494  -0.74826  -0.74758  -0.71986
  Beta  occ. eigenvalues --   -0.71804  -0.70361  -0.69753  -0.68422  -0.67765
  Beta  occ. eigenvalues --   -0.66561  -0.64884  -0.64096  -0.63275  -0.63021
  Beta  occ. eigenvalues --   -0.61512  -0.61441  -0.60992  -0.58925  -0.58558
  Beta  occ. eigenvalues --   -0.58038  -0.57775  -0.57514  -0.55708  -0.54881
  Beta  occ. eigenvalues --   -0.54540  -0.54338  -0.53839  -0.53505  -0.53326
  Beta  occ. eigenvalues --   -0.53267  -0.53160  -0.52946  -0.52790  -0.52189
  Beta  occ. eigenvalues --   -0.51922  -0.51865  -0.51739  -0.51678  -0.51007
  Beta  occ. eigenvalues --   -0.50619  -0.50333  -0.50011  -0.49934  -0.49847
  Beta  occ. eigenvalues --   -0.49448  -0.49366  -0.49256  -0.48935  -0.48743
  Beta  occ. eigenvalues --   -0.48364  -0.48032  -0.47507  -0.47432  -0.47294
  Beta  occ. eigenvalues --   -0.46905  -0.46613  -0.46165  -0.45776  -0.45451
  Beta  occ. eigenvalues --   -0.44559  -0.44389  -0.43813  -0.43421  -0.42530
  Beta  occ. eigenvalues --   -0.42468  -0.42069  -0.41253  -0.40683  -0.39093
  Beta  occ. eigenvalues --   -0.38795  -0.37128  -0.36964  -0.34523  -0.33654
  Beta  occ. eigenvalues --   -0.33344  -0.32064  -0.31586  -0.29112  -0.28253
  Beta virt. eigenvalues --   -0.20571  -0.20357  -0.19209  -0.15932  -0.15878
  Beta virt. eigenvalues --   -0.13700  -0.11334  -0.10976  -0.08149  -0.07600
  Beta virt. eigenvalues --   -0.06337  -0.04324  -0.03939  -0.03056  -0.01415
  Beta virt. eigenvalues --   -0.01272  -0.00284   0.01117   0.01450   0.02077
  Beta virt. eigenvalues --    0.02535   0.03241   0.03728   0.04186   0.04453
  Beta virt. eigenvalues --    0.04886   0.04997   0.05118   0.05466   0.05831
  Beta virt. eigenvalues --    0.06122   0.06529   0.06623   0.06857   0.07043
  Beta virt. eigenvalues --    0.07734   0.07805   0.08112   0.08357   0.08623
  Beta virt. eigenvalues --    0.08779   0.09267   0.09570   0.09649   0.09756
  Beta virt. eigenvalues --    0.10031   0.10513   0.10523   0.10713   0.11423
  Beta virt. eigenvalues --    0.12003   0.12183   0.12305   0.12542   0.13011
  Beta virt. eigenvalues --    0.13356   0.13582   0.13919   0.14286   0.15267
  Beta virt. eigenvalues --    0.15309   0.15838   0.16450   0.16718   0.17042
  Beta virt. eigenvalues --    0.17226   0.17525   0.18019   0.18194   0.19841
  Beta virt. eigenvalues --    0.20330   0.20837   0.20979   0.21987   0.22175
  Beta virt. eigenvalues --    0.23378   0.23608   0.23930   0.25347   0.25788
  Beta virt. eigenvalues --    0.26035   0.26335   0.27258   0.27475   0.28995
  Beta virt. eigenvalues --    0.29810   0.30491   0.31361   0.32059   0.33296
  Beta virt. eigenvalues --    0.33649   0.34056   0.34455   0.34770   0.36577
  Beta virt. eigenvalues --    0.38110   0.38307   0.38406   0.39214   0.39570
  Beta virt. eigenvalues --    0.40149   0.40503   0.40813   0.41263   0.41596
  Beta virt. eigenvalues --    0.41850   0.42581   0.42832   0.43274   0.43724
  Beta virt. eigenvalues --    0.43945   0.44300   0.44983   0.45202   0.45592
  Beta virt. eigenvalues --    0.45826   0.45977   0.46378   0.46712   0.47315
  Beta virt. eigenvalues --    0.48019   0.48516   0.48893   0.49249   0.49530
  Beta virt. eigenvalues --    0.49897   0.50659   0.50766   0.51094   0.51621
  Beta virt. eigenvalues --    0.52238   0.52629   0.52852   0.53126   0.53649
  Beta virt. eigenvalues --    0.54477   0.54762   0.55237   0.55761   0.56084
  Beta virt. eigenvalues --    0.56271   0.56515   0.56630   0.57152   0.57371
  Beta virt. eigenvalues --    0.57686   0.57754   0.58194   0.58347   0.58610
  Beta virt. eigenvalues --    0.59684   0.60197   0.60562   0.61793   0.61805
  Beta virt. eigenvalues --    0.62126   0.62953   0.63102   0.63468   0.63735
  Beta virt. eigenvalues --    0.64149   0.65104   0.65474   0.66165   0.66465
  Beta virt. eigenvalues --    0.66974   0.67353   0.67997   0.68206   0.68558
  Beta virt. eigenvalues --    0.68794   0.69201   0.69420   0.69660   0.70067
  Beta virt. eigenvalues --    0.70406   0.70808   0.71356   0.71563   0.72424
  Beta virt. eigenvalues --    0.73024   0.73868   0.74003   0.74391   0.75163
  Beta virt. eigenvalues --    0.76460   0.76701   0.76779   0.77588   0.77872
  Beta virt. eigenvalues --    0.78489   0.78630   0.79000   0.79251   0.79430
  Beta virt. eigenvalues --    0.79849   0.80143   0.80825   0.81052   0.81504
  Beta virt. eigenvalues --    0.81797   0.82381   0.82576   0.82957   0.83460
  Beta virt. eigenvalues --    0.83700   0.84128   0.84546   0.84778   0.84897
  Beta virt. eigenvalues --    0.85729   0.85933   0.86632   0.86958   0.87318
  Beta virt. eigenvalues --    0.87495   0.87565   0.88035   0.88333   0.88743
  Beta virt. eigenvalues --    0.89215   0.89833   0.90447   0.90572   0.90881
  Beta virt. eigenvalues --    0.91299   0.91659   0.92032   0.92591   0.93127
  Beta virt. eigenvalues --    0.93416   0.93520   0.94256   0.94505   0.95144
  Beta virt. eigenvalues --    0.95704   0.96500   0.96970   0.97239   0.97604
  Beta virt. eigenvalues --    0.98292   0.98813   0.99470   1.00355   1.01622
  Beta virt. eigenvalues --    1.02165   1.03625   1.04563   1.05228   1.05507
  Beta virt. eigenvalues --    1.06508   1.07182   1.07946   1.08341   1.08623
  Beta virt. eigenvalues --    1.08969   1.09658   1.10023   1.10333   1.10519
  Beta virt. eigenvalues --    1.10954   1.11602   1.12396   1.12530   1.13105
  Beta virt. eigenvalues --    1.14431   1.14769   1.15227   1.16168   1.17394
  Beta virt. eigenvalues --    1.17845   1.18907   1.19540   1.20334   1.20563
  Beta virt. eigenvalues --    1.21201   1.21653   1.22201   1.22980   1.23826
  Beta virt. eigenvalues --    1.24416   1.25236   1.25850   1.26979   1.27271
  Beta virt. eigenvalues --    1.27739   1.27968   1.28036   1.28334   1.28566
  Beta virt. eigenvalues --    1.29288   1.29382   1.31088   1.31585   1.32856
  Beta virt. eigenvalues --    1.33248   1.33436   1.34375   1.35251   1.35668
  Beta virt. eigenvalues --    1.37245   1.37621   1.38396   1.38988   1.40086
  Beta virt. eigenvalues --    1.40740   1.41772   1.42189   1.42596   1.43512
  Beta virt. eigenvalues --    1.43761   1.44401   1.45294   1.45872   1.46379
  Beta virt. eigenvalues --    1.47604   1.48984   1.50221   1.51133   1.52297
  Beta virt. eigenvalues --    1.52892   1.53709   1.54128   1.55055   1.55728
  Beta virt. eigenvalues --    1.56292   1.57684   1.58355   1.59739   1.60389
  Beta virt. eigenvalues --    1.60880   1.61843   1.62303   1.64308   1.65299
  Beta virt. eigenvalues --    1.65631   1.69133   1.69776   1.70042   1.70571
  Beta virt. eigenvalues --    1.71088   1.71329   1.72090   1.72394   1.72813
  Beta virt. eigenvalues --    1.73113   1.73637   1.74192   1.74687   1.75363
  Beta virt. eigenvalues --    1.75803   1.76613   1.77167   1.77768   1.77982
  Beta virt. eigenvalues --    1.78699   1.79542   1.80230   1.80714   1.81549
  Beta virt. eigenvalues --    1.81765   1.82948   1.83805   1.84006   1.84942
  Beta virt. eigenvalues --    1.85294   1.85721   1.86149   1.86720   1.87811
  Beta virt. eigenvalues --    1.88769   1.88933   1.89515   1.90584   1.91056
  Beta virt. eigenvalues --    1.91318   1.91997   1.92458   1.93914   1.94849
  Beta virt. eigenvalues --    1.95507   1.95606   1.96595   1.96836   1.97571
  Beta virt. eigenvalues --    1.97816   1.98224   1.99052   1.99612   2.01126
  Beta virt. eigenvalues --    2.01870   2.02293   2.02926   2.04055   2.04596
  Beta virt. eigenvalues --    2.05410   2.06337   2.06861   2.07164   2.07445
  Beta virt. eigenvalues --    2.08305   2.09791   2.10752   2.11486   2.11997
  Beta virt. eigenvalues --    2.12900   2.13512   2.13588   2.14161   2.14523
  Beta virt. eigenvalues --    2.15835   2.16264   2.16586   2.17089   2.17560
  Beta virt. eigenvalues --    2.17605   2.19027   2.19089   2.19577   2.20345
  Beta virt. eigenvalues --    2.20508   2.20601   2.21106   2.21869   2.22300
  Beta virt. eigenvalues --    2.22976   2.23471   2.24540   2.25534   2.25616
  Beta virt. eigenvalues --    2.26378   2.26745   2.27102   2.27731   2.28131
  Beta virt. eigenvalues --    2.29016   2.29150   2.29733   2.30032   2.31225
  Beta virt. eigenvalues --    2.31956   2.32722   2.32866   2.33258   2.33862
  Beta virt. eigenvalues --    2.34271   2.34790   2.35401   2.35569   2.37100
  Beta virt. eigenvalues --    2.38678   2.39097   2.41051   2.41291   2.42515
  Beta virt. eigenvalues --    2.43180   2.43851   2.43905   2.44434   2.45676
  Beta virt. eigenvalues --    2.45758   2.46603   2.47251   2.47584   2.48257
  Beta virt. eigenvalues --    2.48727   2.50495   2.50574   2.51335   2.53158
  Beta virt. eigenvalues --    2.55077   2.55721   2.56999   2.58443   2.59485
  Beta virt. eigenvalues --    2.59629   2.60734   2.61545   2.62234   2.65035
  Beta virt. eigenvalues --    2.65764   2.66471   2.68635   2.69739   2.70648
  Beta virt. eigenvalues --    2.71238   2.71430   2.77442   2.78174   2.78545
  Beta virt. eigenvalues --    2.79794   2.81593   2.82505   2.83331   2.86050
  Beta virt. eigenvalues --    2.87087   2.87323   2.89367   2.89674   2.90438
  Beta virt. eigenvalues --    2.91234   2.94503   2.95666   2.96056   2.97698
  Beta virt. eigenvalues --    3.02798   3.04531   3.05382   3.11093   3.13515
  Beta virt. eigenvalues --    3.15574   3.20529   3.20700   3.28981   3.29524
  Beta virt. eigenvalues --    3.30911   3.36899   3.37104   3.54011   3.58777
  Beta virt. eigenvalues --    3.76759   3.81123   4.06808   4.15439
          Condensed to atoms (all electrons):
          Atomic-Atomic Spin Densities.
 Mulliken charges and spin densities:
               1          2
     1  Fe   1.190519   4.317178
     2  N   -0.747977   0.081436
     3  N   -0.729242   0.081429
     4  N   -0.740960   0.083369
     5  N   -0.724686   0.083009
     6  C    0.309900   0.007818
     7  C    0.037809   0.015497
     8  C    0.043664   0.021224
     9  C    0.289346   0.003508
    10  C    0.307258   0.003830
    11  C    0.042108   0.019741
    12  C    0.004599   0.016486
    13  C    0.331113   0.006207
    14  C    0.325223   0.005686
    15  C    0.044195   0.019648
    16  C    0.008730   0.020472
    17  C    0.316242   0.006974
    18  C    0.308634   0.007399
    19  C    0.041503   0.019852
    20  C    0.041518   0.018637
    21  C    0.334297   0.007777
    22  C   -0.300384  -0.005406
    23  H    0.190095   0.000507
    24  C   -0.312235  -0.000741
    25  H    0.189364   0.000267
    26  C   -0.295366  -0.001574
    27  H    0.191859   0.000312
    28  C   -0.300683  -0.004316
    29  H    0.191600   0.000402
    30  C   -0.610606  -0.000886
    31  H    0.204429   0.000430
    32  H    0.200737   0.000836
    33  H    0.205561   0.000950
    34  C   -0.611104  -0.000493
    35  H    0.204034   0.000591
    36  H    0.205151   0.000765
    37  H    0.203395   0.000422
    38  C   -0.613907  -0.000788
    39  H    0.196491   0.000530
    40  H    0.200881   0.001050
    41  H    0.213898   0.000486
    42  C   -0.149307  -0.005250
    43  H    0.179522   0.000429
    44  C   -0.392741   0.010103
    45  H    0.185536  -0.000498
    46  H    0.193535  -0.000363
    47  C   -0.615561  -0.000884
    48  H    0.196221   0.000630
    49  H    0.206176   0.001062
    50  H    0.212392   0.000507
    51  C   -0.155643  -0.006495
    52  H    0.181211   0.000575
    53  C   -0.390001   0.012074
    54  H    0.188300  -0.000591
    55  H    0.193876  -0.000435
    56  C   -0.610210  -0.000841
    57  H    0.208092   0.000982
    58  H    0.199105   0.000717
    59  H    0.203060   0.000428
    60  C   -0.611801  -0.000755
    61  H    0.203080   0.000406
    62  H    0.202996   0.000879
    63  H    0.204621   0.000767
    64  O   -0.819500   0.026545
    65  H    0.476814   0.001053
    66  H    0.464027   0.002491
    67  C   -0.602592   0.000770
    68  H    0.214798   0.000263
    69  H    0.211540   0.000292
    70  H    0.220665   0.000044
    71  N   -0.629407   0.005045
    72  H    0.385414   0.001457
    73  C    0.281359   0.006935
    74  C    0.265240   0.007324
    75  H    0.232894   0.000650
    76  N   -0.491064   0.095008
    77  C   -0.040933  -0.003156
    78  H    0.211281   0.001309
 Sum of Mulliken charges =   1.00000   5.00000
 Mulliken charges and spin densities with hydrogens summed into heavy atoms:
               1          2
     1  Fe   1.190519   4.317178
     2  N   -0.747977   0.081436
     3  N   -0.729242   0.081429
     4  N   -0.740960   0.083369
     5  N   -0.724686   0.083009
     6  C    0.309900   0.007818
     7  C    0.037809   0.015497
     8  C    0.043664   0.021224
     9  C    0.289346   0.003508
    10  C    0.307258   0.003830
    11  C    0.042108   0.019741
    12  C    0.004599   0.016486
    13  C    0.331113   0.006207
    14  C    0.325223   0.005686
    15  C    0.044195   0.019648
    16  C    0.008730   0.020472
    17  C    0.316242   0.006974
    18  C    0.308634   0.007399
    19  C    0.041503   0.019852
    20  C    0.041518   0.018637
    21  C    0.334297   0.007777
    22  C   -0.110289  -0.004899
    24  C   -0.122871  -0.000474
    26  C   -0.103507  -0.001262
    28  C   -0.109083  -0.003914
    30  C    0.000121   0.001330
    34  C    0.001476   0.001286
    38  C   -0.002636   0.001279
    42  C    0.030216  -0.004821
    44  C   -0.013670   0.009242
    47  C   -0.000772   0.001314
    51  C    0.025568  -0.005920
    53  C   -0.007826   0.011048
    56  C    0.000047   0.001286
    60  C   -0.001104   0.001296
    64  O    0.121342   0.030090
    67  C    0.044412   0.001370
    71  N   -0.243994   0.006502
    73  C    0.281359   0.006935
    74  C    0.498135   0.007975
    76  N   -0.491064   0.095008
    77  C    0.170348  -0.001847
 Electronic spatial extent (au):  <R**2>=          19840.7767
 Charge=              1.0000 electrons
 Dipole moment (field-independent basis, Debye):
    X=              1.0334    Y=             -1.4460    Z=              3.4216  Tot=              3.8557
 Quadrupole moment (field-independent basis, Debye-Ang):
   XX=           -182.8632   YY=           -190.0355   ZZ=           -202.8692
   XY=             -2.7160   XZ=              2.6996   YZ=              1.1385
 Traceless Quadrupole moment (field-independent basis, Debye-Ang):
   XX=              9.0595   YY=              1.8871   ZZ=            -10.9466
   XY=             -2.7160   XZ=              2.6996   YZ=              1.1385
 Octapole moment (field-independent basis, Debye-Ang**2):
  XXX=             -6.7564  YYY=             -9.7137  ZZZ=            125.7543  XYY=              7.2233
  XXY=              2.5707  XXZ=             -3.5563  XZZ=             13.4234  YZZ=            -22.0423
  YYZ=            -24.3251  XYZ=             18.7613
 Hexadecapole moment (field-independent basis, Debye-Ang**3):
 XXXX=         -10344.2614 YYYY=          -9995.4530 ZZZZ=          -2246.1944 XXXY=            -92.9448
 XXXZ=            118.6007 YYYX=             35.3836 YYYZ=             83.5116 ZZZX=            -15.2318
 ZZZY=            -29.4030 XXYY=          -3218.7969 XXZZ=          -2465.2804 YYZZ=          -2530.8413
 XXYZ=             62.2024 YYXZ=              8.9102 ZZXY=            -22.9381
 N-N= 5.972726859211D+03 E-N=-1.891986298894D+04  KE= 2.973071435487D+03
                          Isotropic Fermi Contact Couplings
        Atom                 a.u.       MegaHertz       Gauss      10(-4) cm-1
     1  Fe(57)             0.52614      15.26239       5.44600       5.09098
     2  N(14)              0.13060       8.43976       3.01152       2.81520
     3  N(14)              0.13462       8.69922       3.10410       2.90175
     4  N(14)              0.13436       8.68228       3.09805       2.89610
     5  N(14)              0.13194       8.52595       3.04227       2.84395
     6  C(13)              0.00601       1.35189       0.48239       0.45094
     7  C(13)              0.00542       1.21898       0.43496       0.40661
     8  C(13)              0.00631       1.41921       0.50641       0.47340
     9  C(13)              0.00572       1.28604       0.45889       0.42898
    10  C(13)              0.00525       1.18052       0.42124       0.39378
    11  C(13)              0.00613       1.37804       0.49172       0.45967
    12  C(13)              0.00571       1.28492       0.45849       0.42860
    13  C(13)              0.00599       1.34757       0.48085       0.44950
    14  C(13)              0.00560       1.25946       0.44941       0.42011
    15  C(13)              0.00601       1.35111       0.48211       0.45068
    16  C(13)              0.00621       1.39648       0.49830       0.46582
    17  C(13)              0.00571       1.28369       0.45805       0.42819
    18  C(13)              0.00619       1.39137       0.49648       0.46411
    19  C(13)              0.00607       1.36579       0.48735       0.45558
    20  C(13)              0.00589       1.32434       0.47256       0.44175
    21  C(13)              0.00580       1.30338       0.46508       0.43476
    22  C(13)             -0.00113      -0.25349      -0.09045      -0.08455
    23  H(1)               0.00017       0.15034       0.05365       0.05015
    24  C(13)             -0.00029      -0.06548      -0.02337      -0.02184
    25  H(1)               0.00008       0.07596       0.02711       0.02534
    26  C(13)             -0.00063      -0.14150      -0.05049      -0.04720
    27  H(1)               0.00010       0.08726       0.03114       0.02911
    28  C(13)             -0.00086      -0.19425      -0.06931      -0.06479
    29  H(1)               0.00014       0.12190       0.04350       0.04066
    30  C(13)             -0.00008      -0.01848      -0.00659      -0.00616
    31  H(1)               0.00016       0.14616       0.05215       0.04875
    32  H(1)               0.00042       0.37618       0.13423       0.12548
    33  H(1)               0.00048       0.42743       0.15252       0.14258
    34  C(13)              0.00005       0.01148       0.00410       0.00383
    35  H(1)               0.00029       0.26012       0.09282       0.08677
    36  H(1)               0.00038       0.34350       0.12257       0.11458
    37  H(1)               0.00016       0.14611       0.05213       0.04874
    38  C(13)             -0.00005      -0.01066      -0.00380      -0.00356
    39  H(1)               0.00026       0.22989       0.08203       0.07668
    40  H(1)               0.00054       0.48226       0.17208       0.16087
    41  H(1)               0.00018       0.16086       0.05740       0.05366
    42  C(13)             -0.00058      -0.13017      -0.04645      -0.04342
    43  H(1)               0.00016       0.14486       0.05169       0.04832
    44  C(13)              0.00164       0.36890       0.13163       0.12305
    45  H(1)              -0.00015      -0.13277      -0.04738      -0.04429
    46  H(1)              -0.00010      -0.09130      -0.03258      -0.03046
    47  C(13)             -0.00011      -0.02396      -0.00855      -0.00799
    48  H(1)               0.00029       0.25996       0.09276       0.08671
    49  H(1)               0.00055       0.49331       0.17602       0.16455
    50  H(1)               0.00019       0.16559       0.05909       0.05524
    51  C(13)             -0.00090      -0.20240      -0.07222      -0.06751
    52  H(1)               0.00022       0.19429       0.06933       0.06481
    53  C(13)              0.00197       0.44245       0.15788       0.14759
    54  H(1)              -0.00018      -0.15805      -0.05640      -0.05272
    55  H(1)              -0.00012      -0.11097      -0.03960      -0.03701
    56  C(13)             -0.00011      -0.02548      -0.00909      -0.00850
    57  H(1)               0.00051       0.45199       0.16128       0.15077
    58  H(1)               0.00036       0.32428       0.11571       0.10817
    59  H(1)               0.00017       0.14956       0.05337       0.04989
    60  C(13)             -0.00008      -0.01838      -0.00656      -0.00613
    61  H(1)               0.00016       0.14084       0.05025       0.04698
    62  H(1)               0.00043       0.38695       0.13807       0.12907
    63  H(1)               0.00039       0.35190       0.12557       0.11738
    64  O(17)              0.08581     -10.40332      -3.71216      -3.47018
    65  H(1)              -0.00011      -0.09736      -0.03474      -0.03248
    66  H(1)               0.00112       1.00366       0.35813       0.33478
    67  C(13)              0.00054       0.12053       0.04301       0.04020
    68  H(1)               0.00015       0.13254       0.04729       0.04421
    69  H(1)               0.00017       0.14893       0.05314       0.04968
    70  H(1)               0.00004       0.03859       0.01377       0.01287
    71  N(14)              0.00851       0.55010       0.19629       0.18349
    72  H(1)               0.00058       0.51954       0.18539       0.17330
    73  C(13)              0.00496       1.11411       0.39754       0.37163
    74  C(13)              0.00609       1.36882       0.48843       0.45659
    75  H(1)               0.00017       0.15393       0.05492       0.05134
    76  N(14)              0.17297      11.17759       3.98844       3.72844
    77  C(13)              0.00168       0.37844       0.13504       0.12623
    78  H(1)               0.00050       0.44353       0.15826       0.14794
 --------------------------------------------------------
       Center         ----  Spin Dipole Couplings  ----
                      3XX-RR        3YY-RR        3ZZ-RR
 --------------------------------------------------------
     1   Atom        0.003830      0.045350     -0.049179
     2   Atom        0.037834      0.064639     -0.102473
     3   Atom        0.068401      0.041941     -0.110341
     4   Atom        0.030179      0.064010     -0.094189
     5   Atom        0.069757      0.035913     -0.105670
     6   Atom       -0.023937      0.049686     -0.025749
     7   Atom       -0.004450      0.003200      0.001249
     8   Atom       -0.001456     -0.004718      0.006174
     9   Atom        0.048671     -0.018760     -0.029912
    10   Atom        0.050222     -0.020972     -0.029250
    11   Atom        0.001177     -0.006407      0.005230
    12   Atom       -0.002581      0.000709      0.001872
    13   Atom       -0.019672      0.045211     -0.025539
    14   Atom       -0.022547      0.048065     -0.025518
    15   Atom       -0.006558      0.000938      0.005619
    16   Atom       -0.001078     -0.004437      0.005515
    17   Atom        0.043951     -0.019677     -0.024274
    18   Atom        0.049325     -0.023661     -0.025664
    19   Atom        0.001464     -0.006470      0.005006
    20   Atom       -0.003524     -0.000807      0.004331
    21   Atom       -0.020549      0.045745     -0.025196
    22   Atom       -0.011320      0.037090     -0.025770
    23   Atom       -0.007014      0.015572     -0.008558
    24   Atom        0.034746     -0.013625     -0.021122
    25   Atom        0.015680     -0.007211     -0.008469
    26   Atom       -0.013154      0.034433     -0.021279
    27   Atom       -0.007124      0.015481     -0.008357
    28   Atom        0.035305     -0.011912     -0.023393
    29   Atom        0.015294     -0.006984     -0.008311
    30   Atom        0.006577     -0.002063     -0.004514
    31   Atom        0.002953      0.000202     -0.003155
    32   Atom        0.005658     -0.002068     -0.003591
    33   Atom        0.005629     -0.002154     -0.003475
    34   Atom       -0.002690      0.007283     -0.004593
    35   Atom       -0.002644      0.006070     -0.003425
    36   Atom       -0.002442      0.006055     -0.003613
    37   Atom       -0.000351      0.003471     -0.003120
    38   Atom        0.007165     -0.002568     -0.004597
    39   Atom        0.006733     -0.002788     -0.003945
    40   Atom        0.005151     -0.002097     -0.003054
    41   Atom        0.003471     -0.000298     -0.003173
    42   Atom       -0.001595      0.008606     -0.007011
    43   Atom       -0.002337      0.006356     -0.004019
    44   Atom       -0.000094     -0.002007      0.002101
    45   Atom        0.000950      0.001069     -0.002020
    46   Atom       -0.000851      0.002713     -0.001862
    47   Atom       -0.002625      0.007123     -0.004498
    48   Atom       -0.002924      0.006725     -0.003801
    49   Atom       -0.001933      0.005192     -0.003259
    50   Atom       -0.000504      0.003511     -0.003007
    51   Atom        0.008747     -0.001379     -0.007368
    52   Atom        0.005982     -0.002388     -0.003594
    53   Atom       -0.002342     -0.000159      0.002500
    54   Atom        0.001225      0.001052     -0.002277
    55   Atom        0.002884     -0.000941     -0.001943
    56   Atom        0.007347     -0.002841     -0.004506
    57   Atom        0.005819     -0.002393     -0.003426
    58   Atom        0.006545     -0.002830     -0.003714
    59   Atom        0.003598     -0.000447     -0.003150
    60   Atom       -0.001983      0.006513     -0.004531
    61   Atom        0.000236      0.002932     -0.003168
    62   Atom       -0.002125      0.005571     -0.003446
    63   Atom       -0.002047      0.005703     -0.003656
    64   Atom       -0.094953     -0.101618      0.196571
    65   Atom       -0.021953     -0.023759      0.045712
    66   Atom       -0.028380     -0.024989      0.053369
    67   Atom       -0.003319     -0.005027      0.008346
    68   Atom       -0.002598     -0.002899      0.005497
    69   Atom       -0.002589     -0.002900      0.005489
    70   Atom       -0.000772     -0.003976      0.004748
    71   Atom       -0.015621     -0.006760      0.022381
    72   Atom       -0.004808     -0.006221      0.011028
    73   Atom       -0.011466     -0.008464      0.019930
    74   Atom       -0.012940     -0.025214      0.038154
    75   Atom        0.003771     -0.021584      0.017814
    76   Atom       -0.181642     -0.149017      0.330658
    77   Atom       -0.002231     -0.035583      0.037814
    78   Atom        0.010897     -0.021484      0.010588
 --------------------------------------------------------
                        XY            XZ            YZ
 --------------------------------------------------------
     1   Atom        0.000347      0.015640      0.003466
     2   Atom       -0.225952     -0.013936      0.013444
     3   Atom        0.226849     -0.005714     -0.006986
     4   Atom       -0.221455      0.026264     -0.038642
     5   Atom        0.227401      0.014878      0.018951
     6   Atom       -0.022516     -0.000098      0.000946
     7   Atom       -0.016065     -0.001783     -0.000358
     8   Atom       -0.016485     -0.000943     -0.000889
     9   Atom       -0.026648      0.000744      0.000354
    10   Atom        0.022557      0.000213      0.000244
    11   Atom        0.015964      0.002119     -0.000480
    12   Atom        0.016342     -0.000353     -0.000421
    13   Atom        0.025799     -0.000568      0.002479
    14   Atom       -0.021703      0.000503     -0.001647
    15   Atom       -0.015851     -0.002387     -0.001033
    16   Atom       -0.016370     -0.001791     -0.001292
    17   Atom       -0.026317      0.006579     -0.002930
    18   Atom        0.021646      0.001997      0.002770
    19   Atom        0.016325      0.001175      0.001111
    20   Atom        0.016625      0.000022      0.000176
    21   Atom        0.027470      0.001007      0.000598
    22   Atom        0.001755     -0.000186      0.001061
    23   Atom        0.000813      0.000004      0.000261
    24   Atom       -0.001256     -0.000450      0.000488
    25   Atom       -0.000670      0.000234      0.000047
    26   Atom        0.001401      0.001895     -0.000053
    27   Atom        0.000649      0.000156      0.000432
    28   Atom       -0.001687      0.005824     -0.002208
    29   Atom       -0.000808      0.001765     -0.000169
    30   Atom       -0.005704     -0.000321      0.000078
    31   Atom       -0.004288     -0.000196      0.000153
    32   Atom       -0.003732      0.001614     -0.000444
    33   Atom       -0.003653     -0.002027      0.000597
    34   Atom       -0.005099     -0.000331      0.000737
    35   Atom       -0.003145     -0.000575      0.002385
    36   Atom       -0.003241      0.000267     -0.001280
    37   Atom       -0.004036     -0.000328      0.000543
    38   Atom        0.005134      0.000344      0.000194
    39   Atom        0.003005     -0.001330     -0.000229
    40   Atom        0.003351      0.001983      0.000617
    41   Atom        0.004067     -0.000363     -0.000183
    42   Atom        0.005896      0.003480      0.000923
    43   Atom        0.003639     -0.000021     -0.000312
    44   Atom        0.003677     -0.005959      0.000962
    45   Atom        0.002946      0.001290      0.000976
    46   Atom        0.002253      0.000067      0.000588
    47   Atom       -0.004976      0.000230     -0.000860
    48   Atom       -0.002635      0.000422     -0.001948
    49   Atom       -0.003574     -0.000359      0.001268
    50   Atom       -0.003884      0.000728     -0.001211
    51   Atom       -0.006678      0.002424      0.002733
    52   Atom       -0.003624      0.002313     -0.000753
    53   Atom       -0.002252     -0.001926     -0.007889
    54   Atom       -0.003051     -0.000248      0.000707
    55   Atom       -0.002218      0.000410     -0.000447
    56   Atom        0.005013     -0.000419     -0.000112
    57   Atom        0.003242      0.001638      0.000384
    58   Atom        0.002971     -0.002030     -0.000400
    59   Atom        0.004053     -0.000522     -0.000327
    60   Atom        0.005754     -0.000225     -0.000678
    61   Atom        0.004315     -0.000213     -0.000317
    62   Atom        0.003825     -0.000687     -0.002229
    63   Atom        0.003707      0.000398      0.001420
    64   Atom        0.009075     -0.053979      0.046416
    65   Atom       -0.017476     -0.033568      0.030052
    66   Atom       -0.003915      0.004544     -0.013360
    67   Atom        0.000023     -0.004742     -0.000033
    68   Atom       -0.000336     -0.002369      0.001450
    69   Atom        0.000323     -0.002356     -0.001431
    70   Atom        0.000003     -0.004959      0.000001
    71   Atom        0.000463      0.001875     -0.000672
    72   Atom       -0.000106      0.004144     -0.000393
    73   Atom        0.000086     -0.005362     -0.000374
    74   Atom       -0.001140      0.030722     -0.001504
    75   Atom       -0.001149      0.030091     -0.001304
    76   Atom        0.001261     -0.031212     -0.001656
    77   Atom       -0.000756     -0.037147      0.000589
    78   Atom       -0.001233     -0.031019      0.001293
 --------------------------------------------------------


 ---------------------------------------------------------------------------------
              Anisotropic Spin Dipole Couplings in Principal Axis System
 ---------------------------------------------------------------------------------

       Atom             a.u.   MegaHertz   Gauss  10(-4) cm-1        Axes

              Baa    -0.0536    -0.927    -0.331    -0.309 -0.2626 -0.0329  0.9643
     1 Fe(57) Bbb     0.0081     0.140     0.050     0.047  0.9646 -0.0333  0.2616
              Bcc     0.0455     0.788     0.281     0.263  0.0235  0.9989  0.0405
 
              Baa    -0.1751    -6.754    -2.410    -2.253  0.7281  0.6854  0.0128
     2 N(14)  Bbb    -0.1034    -3.990    -1.424    -1.331  0.0254 -0.0457  0.9986
              Bcc     0.2786    10.744     3.834     3.584 -0.6850  0.7267  0.0507
 
              Baa    -0.1721    -6.637    -2.368    -2.214 -0.6858  0.7275  0.0188
     3 N(14)  Bbb    -0.1105    -4.263    -1.521    -1.422  0.0295  0.0019  0.9996
              Bcc     0.2826    10.900     3.889     3.636  0.7272  0.6861 -0.0228
 
              Baa    -0.1756    -6.774    -2.417    -2.260  0.7241  0.6837  0.0909
     4 N(14)  Bbb    -0.0993    -3.831    -1.367    -1.278 -0.1512  0.0288  0.9881
              Bcc     0.2750    10.605     3.784     3.538 -0.6730  0.7292 -0.1242
 
              Baa    -0.1754    -6.765    -2.414    -2.257 -0.6772  0.7337 -0.0549
     5 N(14)  Bbb    -0.1069    -4.124    -1.471    -1.376 -0.0822 -0.0013  0.9966
              Bcc     0.2823    10.889     3.885     3.632  0.7312  0.6795  0.0612
 
              Baa    -0.0303    -4.064    -1.450    -1.356  0.9618  0.2712 -0.0359
     6 C(13)  Bbb    -0.0258    -3.456    -1.233    -1.153  0.0376 -0.0013  0.9993
              Bcc     0.0560     7.520     2.683     2.508 -0.2710  0.9625  0.0115
 
              Baa    -0.0173    -2.319    -0.827    -0.774  0.7831  0.6158  0.0873
     7 C(13)  Bbb     0.0013     0.180     0.064     0.060 -0.0335 -0.0983  0.9946
              Bcc     0.0159     2.138     0.763     0.713 -0.6210  0.7818  0.0563
 
              Baa    -0.0197    -2.646    -0.944    -0.883  0.6707  0.7401  0.0498
     8 C(13)  Bbb     0.0062     0.837     0.299     0.279 -0.0230 -0.0464  0.9987
              Bcc     0.0135     1.809     0.645     0.603  0.7414 -0.6709 -0.0141
 
              Baa    -0.0301    -4.036    -1.440    -1.346 -0.0948 -0.2533  0.9627
     9 C(13)  Bbb    -0.0279    -3.738    -1.334    -1.247  0.3143  0.9100  0.2703
              Bcc     0.0579     7.774     2.774     2.593  0.9446 -0.3282  0.0067
 
              Baa    -0.0293    -3.928    -1.401    -1.310  0.0247 -0.0963  0.9950
    10 C(13)  Bbb    -0.0275    -3.690    -1.317    -1.231 -0.2776  0.9555  0.0993
              Bcc     0.0568     7.618     2.718     2.541  0.9604  0.2787  0.0032
 
              Baa    -0.0191    -2.568    -0.916    -0.857 -0.6208  0.7809  0.0694
    11 C(13)  Bbb     0.0051     0.689     0.246     0.230 -0.0791 -0.1504  0.9854
              Bcc     0.0140     1.880     0.671     0.627  0.7800  0.6063  0.1552
 
              Baa    -0.0174    -2.330    -0.831    -0.777  0.7417 -0.6708 -0.0011
    12 C(13)  Bbb     0.0019     0.248     0.089     0.083  0.0278  0.0291  0.9992
              Bcc     0.0155     2.081     0.743     0.694  0.6702  0.7411 -0.0402
 
              Baa    -0.0292    -3.917    -1.398    -1.307  0.8805 -0.3171  0.3524
    13 C(13)  Bbb    -0.0251    -3.367    -1.201    -1.123 -0.3412  0.0922  0.9355
              Bcc     0.0543     7.283     2.599     2.429  0.3291  0.9439  0.0270
 
              Baa    -0.0287    -3.849    -1.374    -1.284  0.9623  0.2719 -0.0113
    14 C(13)  Bbb    -0.0256    -3.429    -1.224    -1.144  0.0050  0.0238  0.9997
              Bcc     0.0542     7.278     2.597     2.428 -0.2721  0.9620 -0.0216
 
              Baa    -0.0194    -2.597    -0.927    -0.866  0.7816  0.6157  0.1002
    15 C(13)  Bbb     0.0058     0.780     0.278     0.260 -0.0246 -0.1300  0.9912
              Bcc     0.0135     1.817     0.648     0.606 -0.6233  0.7772  0.0865
 
              Baa    -0.0194    -2.603    -0.929    -0.868  0.6684  0.7387  0.0863
    16 C(13)  Bbb     0.0057     0.762     0.272     0.254 -0.0151 -0.1026  0.9946
              Bcc     0.0137     1.842     0.657     0.614  0.7436 -0.6662 -0.0574
 
              Baa    -0.0292    -3.920    -1.399    -1.308  0.3263  0.9374  0.1214
    17 C(13)  Bbb    -0.0249    -3.337    -1.191    -1.113 -0.1266 -0.0840  0.9884
              Bcc     0.0541     7.257     2.590     2.421  0.9368 -0.3379  0.0913
 
              Baa    -0.0306    -4.100    -1.463    -1.368 -0.2294  0.8841 -0.4071
    18 C(13)  Bbb    -0.0248    -3.327    -1.187    -1.110 -0.1370  0.3848  0.9128
              Bcc     0.0553     7.427     2.650     2.477  0.9636  0.2652  0.0328
 
              Baa    -0.0193    -2.590    -0.924    -0.864 -0.6178  0.7863 -0.0061
    19 C(13)  Bbb     0.0047     0.635     0.227     0.212 -0.1343 -0.0979  0.9861
              Bcc     0.0146     1.955     0.698     0.652  0.7748  0.6100  0.1661
 
              Baa    -0.0188    -2.529    -0.902    -0.844  0.7353 -0.6777  0.0045
    20 C(13)  Bbb     0.0043     0.581     0.207     0.194 -0.0129 -0.0074  0.9999
              Bcc     0.0145     1.948     0.695     0.650  0.6776  0.7353  0.0142
 
              Baa    -0.0306    -4.100    -1.463    -1.368  0.9323 -0.3346 -0.1378
    21 C(13)  Bbb    -0.0251    -3.369    -1.202    -1.124  0.1259 -0.0572  0.9904
              Bcc     0.0557     7.469     2.665     2.491  0.3392  0.9406  0.0112
 
              Baa    -0.0258    -3.461    -1.235    -1.154  0.0149 -0.0173  0.9997
    22 C(13)  Bbb    -0.0114    -1.527    -0.545    -0.509  0.9992 -0.0358 -0.0155
              Bcc     0.0372     4.988     1.780     1.664  0.0361  0.9992  0.0167
 
              Baa    -0.0086    -4.568    -1.630    -1.524  0.0031 -0.0109  0.9999
    23 H(1)   Bbb    -0.0070    -3.758    -1.341    -1.253  0.9994 -0.0359 -0.0035
              Bcc     0.0156     8.326     2.971     2.777  0.0359  0.9993  0.0108
 
              Baa    -0.0212    -2.839    -1.013    -0.947  0.0066 -0.0635  0.9980
    24 C(13)  Bbb    -0.0136    -1.829    -0.653    -0.610  0.0265  0.9976  0.0633
              Bcc     0.0348     4.668     1.665     1.557  0.9996 -0.0260 -0.0083
 
              Baa    -0.0085    -4.521    -1.613    -1.508 -0.0109 -0.0427  0.9990
    25 H(1)   Bbb    -0.0072    -3.857    -1.376    -1.287  0.0287  0.9987  0.0430
              Bcc     0.0157     8.378     2.989     2.795  0.9995 -0.0292  0.0096
 
              Baa    -0.0217    -2.912    -1.039    -0.971 -0.2174  0.0063  0.9761
    26 C(13)  Bbb    -0.0128    -1.714    -0.612    -0.572  0.9756 -0.0287  0.2175
              Bcc     0.0345     4.626     1.651     1.543  0.0294  0.9996  0.0001
 
              Baa    -0.0084    -4.472    -1.596    -1.492 -0.1157 -0.0148  0.9932
    27 H(1)   Bbb    -0.0071    -3.802    -1.357    -1.268  0.9929 -0.0307  0.1152
              Bcc     0.0155     8.274     2.952     2.760  0.0288  0.9994  0.0183
 
              Baa    -0.0243    -3.261    -1.164    -1.088 -0.0914  0.1627  0.9824
    28 C(13)  Bbb    -0.0117    -1.564    -0.558    -0.522  0.0550  0.9859 -0.1581
              Bcc     0.0360     4.824     1.721     1.609  0.9943 -0.0396  0.0991
 
              Baa    -0.0085    -4.509    -1.609    -1.504 -0.0714  0.0754  0.9946
    29 H(1)   Bbb    -0.0070    -3.738    -1.334    -1.247  0.0419  0.9965 -0.0726
              Bcc     0.0155     8.246     2.942     2.751  0.9966 -0.0365  0.0743
 
              Baa    -0.0049    -0.659    -0.235    -0.220  0.4412  0.8782  0.1845
    30 C(13)  Bbb    -0.0045    -0.605    -0.216    -0.202 -0.0618 -0.1754  0.9826
              Bcc     0.0094     1.264     0.451     0.422  0.8953 -0.4449 -0.0231
 
              Baa    -0.0032    -1.687    -0.602    -0.563  0.0017 -0.0432  0.9991
    31 H(1)   Bbb    -0.0029    -1.561    -0.557    -0.521  0.5897  0.8069  0.0338
              Bcc     0.0061     3.248     1.159     1.083  0.8076 -0.5891 -0.0268
 
              Baa    -0.0039    -2.103    -0.750    -0.701 -0.2951 -0.3799  0.8767
    32 H(1)   Bbb    -0.0035    -1.855    -0.662    -0.619  0.2659  0.8487  0.4572
              Bcc     0.0074     3.958     1.412     1.320  0.9177 -0.3680  0.1494
 
              Baa    -0.0040    -2.120    -0.756    -0.707  0.3207  0.3558  0.8778
    33 H(1)   Bbb    -0.0035    -1.871    -0.668    -0.624  0.2474  0.8631 -0.4402
              Bcc     0.0075     3.991     1.424     1.331  0.9143 -0.3584 -0.1887
 
              Baa    -0.0048    -0.649    -0.232    -0.217  0.9197  0.3811  0.0947
    34 C(13)  Bbb    -0.0046    -0.622    -0.222    -0.208 -0.0653 -0.0894  0.9939
              Bcc     0.0095     1.271     0.454     0.424 -0.3873  0.9202  0.0573
 
              Baa    -0.0041    -2.162    -0.771    -0.721 -0.3423 -0.3149  0.8852
    35 H(1)   Bbb    -0.0036    -1.908    -0.681    -0.636  0.8915  0.1888  0.4119
              Bcc     0.0076     4.070     1.452     1.357 -0.2969  0.9301  0.2161
 
              Baa    -0.0038    -2.052    -0.732    -0.684  0.3935  0.2434  0.8865
    36 H(1)   Bbb    -0.0035    -1.845    -0.658    -0.616  0.8632  0.2338 -0.4474
              Bcc     0.0073     3.897     1.391     1.300 -0.3162  0.9413 -0.1181
 
              Baa    -0.0032    -1.689    -0.603    -0.563 -0.0059 -0.0851  0.9964
    37 H(1)   Bbb    -0.0029    -1.550    -0.553    -0.517  0.8458  0.5311  0.0503
              Bcc     0.0061     3.238     1.155     1.080 -0.5334  0.8430  0.0689
 
              Baa    -0.0048    -0.642    -0.229    -0.214 -0.3782  0.8959 -0.2329
    38 C(13)  Bbb    -0.0046    -0.617    -0.220    -0.206 -0.1172  0.2033  0.9721
              Bcc     0.0094     1.259     0.449     0.420  0.9183  0.3949  0.0281
 
              Baa    -0.0041    -2.211    -0.789    -0.738  0.1853 -0.2502  0.9503
    39 H(1)   Bbb    -0.0036    -1.927    -0.688    -0.643 -0.2325  0.9284  0.2898
              Bcc     0.0078     4.138     1.477     1.380  0.9548  0.2746 -0.1139
 
              Baa    -0.0036    -1.919    -0.685    -0.640 -0.3715  0.5113  0.7750
    40 H(1)   Bbb    -0.0033    -1.759    -0.628    -0.587 -0.1702  0.7830 -0.5982
              Bcc     0.0069     3.678     1.313     1.227  0.9127  0.3542  0.2039
 
              Baa    -0.0032    -1.705    -0.608    -0.569  0.1093 -0.0907  0.9899
    41 H(1)   Bbb    -0.0029    -1.542    -0.550    -0.514 -0.5282  0.8383  0.1351
              Bcc     0.0061     3.247     1.159     1.083  0.8420  0.5376 -0.0437
 
              Baa    -0.0089    -1.199    -0.428    -0.400 -0.5052  0.1248  0.8539
    42 C(13)  Bbb    -0.0027    -0.356    -0.127    -0.119  0.7469 -0.4325  0.5051
              Bcc     0.0116     1.555     0.555     0.519  0.4323  0.8930  0.1252
 
              Baa    -0.0040    -2.159    -0.770    -0.720 -0.1974  0.0983  0.9754
    43 H(1)   Bbb    -0.0036    -1.942    -0.693    -0.648  0.9190 -0.3278  0.2190
              Bcc     0.0077     4.101     1.463     1.368  0.3412  0.9396 -0.0256
 
              Baa    -0.0073    -0.986    -0.352    -0.329  0.6779 -0.5535  0.4838
    44 C(13)  Bbb    -0.0000    -0.003    -0.001    -0.001  0.3079  0.8114  0.4969
              Bcc     0.0074     0.989     0.353     0.330 -0.6676 -0.1879  0.7205
 
              Baa    -0.0025    -1.341    -0.479    -0.447 -0.4219  0.1015  0.9010
    45 H(1)   Bbb    -0.0018    -0.984    -0.351    -0.328 -0.5935  0.7203 -0.3591
              Bcc     0.0044     2.325     0.830     0.776  0.6854  0.6862  0.2436
 
              Baa    -0.0021    -1.133    -0.404    -0.378  0.6281 -0.3754  0.6815
    46 H(1)   Bbb    -0.0017    -0.925    -0.330    -0.309 -0.6481  0.2323  0.7253
              Bcc     0.0039     2.058     0.734     0.687  0.4306  0.8973  0.0973
 
              Baa    -0.0048    -0.642    -0.229    -0.214  0.8019  0.3692  0.4697
    47 C(13)  Bbb    -0.0045    -0.603    -0.215    -0.201 -0.4558 -0.1301  0.8805
              Bcc     0.0093     1.244     0.444     0.415 -0.3862  0.9202 -0.0639
 
              Baa    -0.0042    -2.216    -0.791    -0.739  0.0830  0.1951  0.9773
    48 H(1)   Bbb    -0.0036    -1.914    -0.683    -0.638  0.9665  0.2231 -0.1266
              Bcc     0.0077     4.130     1.474     1.378 -0.2427  0.9551 -0.1701
 
              Baa    -0.0036    -1.908    -0.681    -0.636 -0.6055 -0.3502  0.7147
    49 H(1)   Bbb    -0.0033    -1.744    -0.622    -0.582  0.7001  0.1926  0.6876
              Bcc     0.0068     3.652     1.303     1.218 -0.3784  0.9167  0.1285
 
              Baa    -0.0032    -1.721    -0.614    -0.574 -0.0611  0.1423  0.9879
    50 H(1)   Bbb    -0.0029    -1.530    -0.546    -0.510  0.8558  0.5169 -0.0215
              Bcc     0.0061     3.252     1.160     1.085 -0.5137  0.8441 -0.1534
 
              Baa    -0.0098    -1.319    -0.471    -0.440 -0.2839 -0.4907  0.8238
    51 C(13)  Bbb    -0.0023    -0.306    -0.109    -0.102  0.3332  0.7552  0.5646
              Bcc     0.0121     1.625     0.580     0.542  0.8991 -0.4347  0.0509
 
              Baa    -0.0041    -2.206    -0.787    -0.736 -0.2737 -0.1585  0.9487
    52 H(1)   Bbb    -0.0037    -1.981    -0.707    -0.661  0.2896  0.9270  0.2384
              Bcc     0.0078     4.188     1.494     1.397  0.9172 -0.3400  0.2078
 
              Baa    -0.0083    -1.114    -0.398    -0.372  0.4452  0.6835  0.5785
    53 C(13)  Bbb    -0.0009    -0.117    -0.042    -0.039  0.8955 -0.3409 -0.2863
              Bcc     0.0092     1.231     0.439     0.411 -0.0016 -0.6455  0.7638
 
              Baa    -0.0025    -1.348    -0.481    -0.450 -0.2701 -0.4030  0.8744
    54 H(1)   Bbb    -0.0017    -0.925    -0.330    -0.309  0.6510  0.5927  0.4743
              Bcc     0.0043     2.273     0.811     0.758  0.7094 -0.6973 -0.1023
 
              Baa    -0.0022    -1.180    -0.421    -0.394  0.2212  0.6436  0.7327
    55 H(1)   Bbb    -0.0017    -0.929    -0.332    -0.310 -0.3672 -0.6411  0.6739
              Bcc     0.0040     2.109     0.753     0.704  0.9034 -0.4181  0.0946
 
              Baa    -0.0049    -0.658    -0.235    -0.219 -0.3791  0.9144 -0.1424
    56 C(13)  Bbb    -0.0045    -0.605    -0.216    -0.202 -0.0256  0.1434  0.9893
              Bcc     0.0094     1.263     0.451     0.421  0.9250  0.3787 -0.0309
 
              Baa    -0.0038    -2.026    -0.723    -0.676 -0.2965  0.4553  0.8395
    57 H(1)   Bbb    -0.0034    -1.820    -0.649    -0.607 -0.1992  0.8302 -0.5206
              Bcc     0.0072     3.846     1.372     1.283  0.9340  0.3216  0.1555
 
              Baa    -0.0042    -2.216    -0.791    -0.739  0.2578 -0.3012  0.9180
    58 H(1)   Bbb    -0.0036    -1.933    -0.690    -0.645 -0.1962  0.9141  0.3550
              Bcc     0.0078     4.149     1.481     1.384  0.9461  0.2717 -0.1766
 
              Baa    -0.0032    -1.703    -0.608    -0.568  0.0490  0.0464  0.9977
    59 H(1)   Bbb    -0.0030    -1.576    -0.562    -0.526 -0.5268  0.8499 -0.0136
              Bcc     0.0061     3.279     1.170     1.094  0.8486  0.5249 -0.0661
 
              Baa    -0.0049    -0.660    -0.235    -0.220  0.8495 -0.4445 -0.2843
    60 C(13)  Bbb    -0.0045    -0.609    -0.217    -0.203  0.2759 -0.0850  0.9574
              Bcc     0.0095     1.269     0.453     0.423  0.4497  0.8918 -0.0505
 
              Baa    -0.0032    -1.699    -0.606    -0.567 -0.0283  0.0716  0.9970
    61 H(1)   Bbb    -0.0029    -1.566    -0.559    -0.522  0.8056 -0.5889  0.0652
              Bcc     0.0061     3.265     1.165     1.089  0.5918  0.8050 -0.0410
 
              Baa    -0.0041    -2.165    -0.772    -0.722 -0.4049  0.3558  0.8423
    62 H(1)   Bbb    -0.0036    -1.909    -0.681    -0.637  0.8364 -0.2282  0.4984
              Bcc     0.0076     4.074     1.454     1.359  0.3696  0.9063 -0.2052
 
              Baa    -0.0039    -2.090    -0.746    -0.697  0.3096 -0.2546  0.9161
    63 H(1)   Bbb    -0.0035    -1.851    -0.660    -0.617  0.8770 -0.2958 -0.3786
              Bcc     0.0074     3.940     1.406     1.314  0.3674  0.9207  0.1317
 
              Baa    -0.1233     8.919     3.182     2.975 -0.6456  0.7327 -0.2153
    64 O(17)  Bbb    -0.0892     6.454     2.303     2.153  0.7451  0.6661  0.0326
              Bcc     0.2125   -15.373    -5.485    -5.128 -0.1673  0.1394  0.9760
 
              Baa    -0.0404   -21.565    -7.695    -7.193  0.7301  0.6817  0.0467
    65 H(1)   Bbb    -0.0315   -16.830    -6.005    -5.614 -0.5732  0.6482 -0.5012
              Bcc     0.0720    38.394    13.700    12.807 -0.3720  0.3392  0.8641
 
              Baa    -0.0311   -16.619    -5.930    -5.544  0.7835  0.6188  0.0557
    66 H(1)   Bbb    -0.0247   -13.204    -4.711    -4.404 -0.6184  0.7679  0.1673
              Bcc     0.0559    29.823    10.642     9.948  0.0608 -0.1655  0.9843
 
              Baa    -0.0050    -0.675    -0.241    -0.225 -0.3299  0.9370 -0.1146
    67 C(13)  Bbb    -0.0050    -0.671    -0.239    -0.224  0.8827  0.3492  0.3145
              Bcc     0.0100     1.346     0.480     0.449 -0.3347 -0.0026  0.9423
 
              Baa    -0.0033    -1.741    -0.621    -0.581  0.8696 -0.3922  0.3000
    68 H(1)   Bbb    -0.0031    -1.661    -0.593    -0.554  0.4214  0.9061 -0.0367
              Bcc     0.0064     3.403     1.214     1.135 -0.2575  0.1583  0.9532
 
              Baa    -0.0033    -1.737    -0.620    -0.580  0.8474  0.4381  0.3000
    69 H(1)   Bbb    -0.0031    -1.655    -0.591    -0.552 -0.4647  0.8852  0.0200
              Bcc     0.0064     3.393     1.211     1.132 -0.2568 -0.1564  0.9537
 
              Baa    -0.0040    -2.121    -0.757    -0.708 -0.0091  0.9999 -0.0053
    70 H(1)   Bbb    -0.0037    -1.967    -0.702    -0.656  0.8620  0.0105  0.5068
              Bcc     0.0077     4.089     1.459     1.364 -0.5068 -0.0001  0.8621
 
              Baa    -0.0157    -0.607    -0.217    -0.202  0.9972 -0.0551 -0.0500
    71 N(14)  Bbb    -0.0067    -0.260    -0.093    -0.087  0.0562  0.9982  0.0194
              Bcc     0.0225     0.867     0.309     0.289  0.0489 -0.0222  0.9986
 
              Baa    -0.0062    -3.324    -1.186    -1.109  0.0265  0.9995  0.0164
    72 H(1)   Bbb    -0.0058    -3.109    -1.109    -1.037  0.9707 -0.0219 -0.2392
              Bcc     0.0121     6.433     2.295     2.146  0.2387 -0.0223  0.9708
 
              Baa    -0.0124    -1.658    -0.592    -0.553  0.9865 -0.0060  0.1638
    73 C(13)  Bbb    -0.0085    -1.136    -0.406    -0.379  0.0038  0.9999  0.0139
              Bcc     0.0208     2.795     0.997     0.932 -0.1638 -0.0131  0.9864
 
              Baa    -0.0274    -3.680    -1.313    -1.227  0.8925  0.1787 -0.4141
    74 C(13)  Bbb    -0.0252    -3.380    -1.206    -1.127 -0.1519  0.9836  0.0971
              Bcc     0.0526     7.059     2.519     2.355  0.4246 -0.0237  0.9051
 
              Baa    -0.0216   -11.545    -4.119    -3.851  0.0629  0.9979 -0.0150
    75 H(1)   Bbb    -0.0201   -10.725    -3.827    -3.578  0.7810 -0.0586 -0.6218
              Bcc     0.0417    22.270     7.946     7.428  0.6214 -0.0274  0.7830
 
              Baa    -0.1836    -7.080    -2.526    -2.362  0.9976 -0.0335  0.0604
    76 N(14)  Bbb    -0.1490    -5.746    -2.050    -1.917  0.0332  0.9994  0.0056
              Bcc     0.3326    12.826     4.577     4.278 -0.0606 -0.0036  0.9982
 
              Baa    -0.0356    -4.778    -1.705    -1.594  0.0314  0.9995  0.0079
    77 C(13)  Bbb    -0.0244    -3.274    -1.168    -1.092  0.8580 -0.0310  0.5126
              Bcc     0.0600     8.051     2.873     2.686 -0.5126  0.0093  0.8586
 
              Baa    -0.0215   -11.491    -4.100    -3.833 -0.0062  0.9989 -0.0461
    78 H(1)   Bbb    -0.0203   -10.818    -3.860    -3.608  0.7056  0.0370  0.7076
              Bcc     0.0418    22.309     7.960     7.441  0.7086 -0.0282 -0.7051
 

 ---------------------------------------------------------------------------------

 Unable to Open any file for archive entry.
 1\1\GINC-BGN1010\SP\UAPFD\Gen\C34H36Fe1N6O1(1+,6)\BEBJONES\28-May-2024
 \0\\# apfd/gen scf=maxcycle=999 geom=check\\1ccj_III_H\\1,6\Fe,0,28.45
 50988387,93.9702799758,52.805535107\N,0,29.4173283552,95.6102343936,52
 .2170689363\N,0,29.5448898147,93.9138618082,54.4923523223\N,0,27.38795
 4698,92.4043944133,53.4874246331\N,0,27.2984276784,94.0338666693,51.18
 27422532\C,0,29.1655454101,96.3392641528,51.0972124307\C,0,29.96742839
 77,97.5412535075,51.0815850308\C,0,30.7470995826,97.496533115,52.19683
 68877\C,0,30.3713581687,96.2947647237,52.9065663653\C,0,30.5152108305,
 94.8002481426,54.8522671198\C,0,31.1211852461,94.4199305469,56.1023755
 511\C,0,30.5261370132,93.2434168766,56.475230031\C,0,29.5112712242,92.
 9768699316,55.4729258072\C,0,27.6141608331,91.6828060031,54.6191915592
 \C,0,26.6496429159,90.6207665081,54.7565704073\C,0,25.8345873985,90.69
 91248597,53.6588403051\C,0,26.3464748573,91.7981717302,52.8624823176\C
 ,0,26.3561220184,93.1322398841,50.8081815724\C,0,25.9362527785,93.3655
 42439,49.4431468159\C,0,26.5719786719,94.4978794412,49.0402770347\C,0,
 27.4332336217,94.8908422892,50.1356044816\C,0,28.2808424901,95.9815679
 439,50.0949493694\H,0,28.2353689121,96.616424583,49.2229679439\C,0,30.
 8983976425,95.9163025165,54.1261875513\H,0,31.6725966974,96.5410576694
 ,54.5454399671\C,0,28.6210603769,91.9243112746,55.535768772\H,0,28.709
 8037326,91.2407472285,56.365924814\C,0,25.8576897919,92.1238041294,51.
 6105090478\H,0,25.066713178,91.50997368,51.2066912585\C,0,31.763986863
 3,98.4746156875,52.6781945931\H,0,31.8895998586,99.2849053914,51.96427
 57355\H,0,32.7293629622,97.9871015558,52.815791333\H,0,31.4641429485,9
 8.9035865269,53.6350664591\C,0,29.9178590158,98.5716061306,50.00578542
 91\H,0,28.9008885255,98.9424787158,49.8787492787\H,0,30.2439451477,98.
 1501997802,49.0543501723\H,0,30.5620768501,99.4139132693,50.245845796\
 C,0,32.1584612641,95.2042846937,56.8282492425\H,0,31.9664735148,96.272
 4161741,56.7372234824\H,0,33.154158843,95.0050735704,56.4277491196\H,0
 ,32.1544156758,94.939411604,57.8836449032\C,0,30.7636443059,92.4316854
 703,57.6471331415\H,0,29.8994226783,91.9097053985,58.0404628384\C,0,31
 .9366178713,92.2723645236,58.2524823432\H,0,32.8400714583,92.724554462
 4,57.8826561525\H,0,32.0371377305,91.6573042954,59.1313986371\C,0,26.5
 461350767,89.7014328612,55.9234076953\H,0,26.7776488074,90.2247517844,
 56.8497062072\H,0,27.2428430519,88.867298246,55.8235571371\H,0,25.5373
 208453,89.2996179306,55.9940006428\C,0,24.6876852744,89.8926444982,53.
 3049817284\H,0,23.9049071571,90.4093562856,52.7614074615\C,0,24.531983
 2137,88.602451369,53.5846871574\H,0,25.2946429639,88.0268598753,54.079
 1552877\H,0,23.6396364512,88.0686056333,53.3020383068\C,0,24.945195758
 7,92.5251927404,48.7132445295\H,0,23.960300491,92.6026522687,49.175444
 3073\H,0,25.2447185292,91.4775218715,48.7321779473\H,0,24.8610178682,9
 2.8394364123,47.675777113\C,0,26.4904998293,95.2126135556,47.734999089
 4\H,0,25.7690815933,94.7346672596,47.0767548682\H,0,27.4607489823,95.2
 185044285,47.2373944625\H,0,26.1823489347,96.2474219356,47.8856677653\
 O,0,27.056,95.45,53.813\H,0,27.456,96.286,53.572\H,0,26.359,95.337,54.
 353\C,0,30.9468815522,90.0504570119,49.7146781601\H,0,31.5338347196,89
 .2927763248,50.2338210252\H,0,31.5052458248,90.370916033,48.8352987672
 \H,0,30.0121655939,89.6038471315,49.3907059299\N,0,31.6557849291,91.99
 51298106,51.1236434188\H,0,32.6429824008,91.8829759197,50.9609801558\C
 ,0,30.6640656815,91.2030017644,50.6071293162\C,0,31.0666441517,92.9458
 532411,51.8835733041\H,0,31.5996715772,93.7078248989,52.4136739963\N,0
 ,29.763112186,92.8036212157,51.8796646457\C,0,29.4975723394,91.7225558
 022,51.0911157222\H,0,28.4922206905,91.3940736753,50.9258852956\\Versi
 on=ES64L-G16RevC.02\State=6-A\HF=-2983.2091679\S2=8.758383\S2-1=0.\S2A
 =8.750021\RMSD=8.807e-09\Dipole=1.225282,-0.1659937,-0.8788085\Quadrup
 ole=1.321953,0.9129417,-2.2348948,6.3509617,3.8513277,-2.5792665\PG=C0
 1 [X(C34H36Fe1N6O1)]\\@
 The archive entry for this job was punched.


 In the race for quality, there is no finish line.
                               -- David T. Kearns
 Job cpu time:       0 days  1 hours 51 minutes  2.0 seconds.
 Elapsed time:       0 days  0 hours  1 minutes 55.3 seconds.
 File lengths (MBytes):  RWF=    430 Int=      0 D2E=      0 Chk=    155 Scr=      1
 Normal termination of Gaussian 16 at Tue May 28 12:51:54 2024.
