 Entering Gaussian System, Link 0=g16
 Input=1cck16.com
 Output=1cck16.log
 Initial command:
 /sw/chem/gaussian/g16_C02/a100/g16/l1.exe "/local/bebjones_7880431/Gau-230714.inp" -scrdir="/local/bebjones_7880431/"
 Entering Link 1 = /sw/chem/gaussian/g16_C02/a100/g16/l1.exe PID=    230715.
  
 Copyright (c) 1988-2021, Gaussian, Inc.  All Rights Reserved.
  
 This is part of the Gaussian(R) 16 program.  It is based on
 the Gaussian(R) 09 system (copyright 2009, Gaussian, Inc.),
 the Gaussian(R) 03 system (copyright 2003, Gaussian, Inc.),
 the Gaussian(R) 98 system (copyright 1998, Gaussian, Inc.),
 the Gaussian(R) 94 system (copyright 1995, Gaussian, Inc.),
 the Gaussian 92(TM) system (copyright 1992, Gaussian, Inc.),
 the Gaussian 90(TM) system (copyright 1990, Gaussian, Inc.),
 the Gaussian 88(TM) system (copyright 1988, Gaussian, Inc.),
 the Gaussian 86(TM) system (copyright 1986, Carnegie Mellon
 University), and the Gaussian 82(TM) system (copyright 1983,
 Carnegie Mellon University). Gaussian is a federally registered
 trademark of Gaussian, Inc.
  
 This software contains proprietary and confidential information,
 including trade secrets, belonging to Gaussian, Inc.
  
 This software is provided under written license and may be
 used, copied, transmitted, or stored only in accord with that
 written license.
  
 The following legend is applicable only to US Government
 contracts under FAR:
  
                    RESTRICTED RIGHTS LEGEND
  
 Use, reproduction and disclosure by the US Government is
 subject to restrictions as set forth in subparagraphs (a)
 and (c) of the Commercial Computer Software - Restricted
 Rights clause in FAR 52.227-19.
  
 Gaussian, Inc.
 340 Quinnipiac St., Bldg. 40, Wallingford CT 06492
  
  
 ---------------------------------------------------------------
 Warning -- This program may not be used in any manner that
 competes with the business of Gaussian, Inc. or will provide
 assistance to any competitor of Gaussian, Inc.  The licensee
 of this program is prohibited from giving any competitor of
 Gaussian, Inc. access to this program.  By using this program,
 the user acknowledges that Gaussian, Inc. is engaged in the
 business of creating and licensing software in the field of
 computational chemistry and represents and warrants to the
 licensee that it is not a competitor of Gaussian, Inc. and that
 it will not use this program in any manner prohibited above.
 ---------------------------------------------------------------
  

 Cite this work as:
 Gaussian 16, Revision C.02,
 M. J. Frisch, G. W. Trucks, H. B. Schlegel, G. E. Scuseria, 
 M. A. Robb, J. R. Cheeseman, G. Scalmani, V. Barone, 
 G. A. Petersson, H. Nakatsuji, X. Li, M. Caricato, A. V. Marenich, 
 J. Bloino, B. G. Janesko, R. Gomperts, B. Mennucci, H. P. Hratchian, 
 J. V. Ortiz, A. F. Izmaylov, J. L. Sonnenberg, D. Williams-Young, 
 F. Ding, F. Lipparini, F. Egidi, J. Goings, B. Peng, A. Petrone, 
 T. Henderson, D. Ranasinghe, V. G. Zakrzewski, J. Gao, N. Rega, 
 G. Zheng, W. Liang, M. Hada, M. Ehara, K. Toyota, R. Fukuda, 
 J. Hasegawa, M. Ishida, T. Nakajima, Y. Honda, O. Kitao, H. Nakai, 
 T. Vreven, K. Throssell, J. A. Montgomery, Jr., J. E. Peralta, 
 F. Ogliaro, M. J. Bearpark, J. J. Heyd, E. N. Brothers, K. N. Kudin, 
 V. N. Staroverov, T. A. Keith, R. Kobayashi, J. Normand, 
 K. Raghavachari, A. P. Rendell, J. C. Burant, S. S. Iyengar, 
 J. Tomasi, M. Cossi, J. M. Millam, M. Klene, C. Adamo, R. Cammi, 
 J. W. Ochterski, R. L. Martin, K. Morokuma, O. Farkas, 
 J. B. Foresman, and D. J. Fox, Gaussian, Inc., Wallingford CT, 2019.
 
 ******************************************
 Gaussian 16:  ES64L-G16RevC.02  7-Dec-2021
                28-May-2024 
 ******************************************
 %mem=16GB
 %CPU=0-71
 SetSPE:  set environment variable "OMP_PROC_BIND" = "true"
 SetSPE:  set environment variable "OMP_PLACES" = "{0},{1},{2},{3},{4},{5},{6},{7},{8},{9},{10},{11},{12},{13},{14},{15},{16},{17},{18},{19},{20},{21},{22},{23},{24},{25},{26},{27},{28},{29},{30},{31},{32},{33},{34},{35},{36},{37},{38},{39},{40},{41},{42},{43},{44},{45},{46},{47},{48},{49},{50},{51},{52},{53},{54},{55},{56},{57},{58},{59},{60},{61},{62},{63},{64},{65},{66},{67},{68},{69},{70},{71}"
 Will use up to   72 processors via shared memory.
 %gpucpu=0,1,2,3=0,1,2,3
 Will use    4 GPUs:
 Thread  CPU   GPU
      0    0     0
      1    1     1
      2    2     2
      3    3     3
      4    4    -1
      5    5    -1
      6    6    -1
      7    7    -1
      8    8    -1
      9    9    -1
     10   10    -1
     11   11    -1
     12   12    -1
     13   13    -1
     14   14    -1
     15   15    -1
     16   16    -1
     17   17    -1
     18   18    -1
     19   19    -1
     20   20    -1
     21   21    -1
     22   22    -1
     23   23    -1
     24   24    -1
     25   25    -1
     26   26    -1
     27   27    -1
     28   28    -1
     29   29    -1
     30   30    -1
     31   31    -1
     32   32    -1
     33   33    -1
     34   34    -1
     35   35    -1
     36   36    -1
     37   37    -1
     38   38    -1
     39   39    -1
     40   40    -1
     41   41    -1
     42   42    -1
     43   43    -1
     44   44    -1
     45   45    -1
     46   46    -1
     47   47    -1
     48   48    -1
     49   49    -1
     50   50    -1
     51   51    -1
     52   52    -1
     53   53    -1
     54   54    -1
     55   55    -1
     56   56    -1
     57   57    -1
     58   58    -1
     59   59    -1
     60   60    -1
     61   61    -1
     62   62    -1
     63   63    -1
     64   64    -1
     65   65    -1
     66   66    -1
     67   67    -1
     68   68    -1
     69   69    -1
     70   70    -1
     71   71    -1
 SetGPE:  set environment variable "OMP_PROC_BIND" = "true"
 SetGPE:  set environment variable "OMP_PLACES" = "{0},{1},{2},{3},{4},{5},{6},{7},{8},{9},{10},{11},{12},{13},{14},{15},{16},{17},{18},{19},{20},{21},{22},{23},{24},{25},{26},{27},{28},{29},{30},{31},{32},{33},{34},{35},{36},{37},{38},{39},{40},{41},{42},{43},{44},{45},{46},{47},{48},{49},{50},{51},{52},{53},{54},{55},{56},{57},{58},{59},{60},{61},{62},{63},{64},{65},{66},{67},{68},{69},{70},{71}"
 %oldchk=1cck_III_Dre.chk
 %chk=1cck_III_Hn.chk
 Properties for Device   0
 Minimum vector length:                              32
 Maximum vector length:                            1024
 Number of SMPs:                                    108
 Maximum number of threads per SMP:                2048
 Number of ASync Engines:                             5
 Memory:                                           9192980480
 Properties for Device   1
 Minimum vector length:                              32
 Maximum vector length:                            1024
 Number of SMPs:                                    108
 Maximum number of threads per SMP:                2048
 Number of ASync Engines:                             5
 Memory:                                           9192980480
 Properties for Device   2
 Minimum vector length:                              32
 Maximum vector length:                            1024
 Number of SMPs:                                    108
 Maximum number of threads per SMP:                2048
 Number of ASync Engines:                             5
 Memory:                                           9192980480
 Properties for Device   3
 Minimum vector length:                              32
 Maximum vector length:                            1024
 Number of SMPs:                                    108
 Maximum number of threads per SMP:                2048
 Number of ASync Engines:                             5
 Memory:                                           9192980480
   8273682432 words of memory will be used on each GPU.
 Copying data from "1cck_III_Dre.chk" to current chk file "1cck_III_Hn.chk"
 IOpt=  2 FromEx=T IUOpen= 4 IOptOp= 5 NList=   0 IFRang= 0 IUIn= 4 IUOut= 2.
 --------------------------------------------------------------
 # apfd/def2TZVP guess=read scf=maxcycle=999 geom=check pop=nbo
 --------------------------------------------------------------
 1/29=2,38=1,172=1/1;
 2/12=2,40=1/2;
 3/5=44,7=101,11=2,14=-4,25=1,30=1,74=-44,116=-2/1,2,3;
 4/5=1/1;
 5/5=2,7=999,38=6/2;
 6/7=2,8=2,9=2,10=2,28=1,40=1/1,7;
 99/5=1,9=1/99;
 ----------
 1cck_III_H
 ----------
 Structure from the checkpoint file:  "1cck_III_Hn.chk"
 Charge =  1 Multiplicity = 6
 Z-Matrix found in chk file.
 Fe,0,-5.9894739034,57.0049288112,111.744006282
 N,0,-6.6527253893,56.1251638978,113.4032580421
 N,0,-6.9546234466,58.7027601441,112.2567613516
 N,0,-5.129503204,57.9967408809,110.2078293238
 N,0,-4.9374473841,55.3869103164,111.2686123406
 C,0,-6.3846041181,54.8536405702,113.8051814617
 C,0,-6.9877794308,54.5880884583,115.0911750166
 C,0,-7.6316890724,55.7307584798,115.4557862126
 C,0,-7.3769065631,56.6924933826,114.4069548317
 C,0,-7.6016851115,58.9377929351,113.4344059538
 C,0,-8.1170824133,60.2817803299,113.4810193069
 C,0,-7.6793828587,60.8982896593,112.3391713967
 C,0,-6.8802803712,59.9103128961,111.6369216603
 C,0,-5.2894520507,59.3054298332,109.8735493754
 C,0,-4.474840006,59.6547754728,108.7385140975
 C,0,-3.7708984327,58.5265125486,108.4109062405
 C,0,-4.2231658728,57.4968250548,109.3274771282
 C,0,-4.1732795305,55.1944906557,110.1633077827
 C,0,-3.8159964309,53.7994764473,110.0224005073
 C,0,-4.3530783675,53.1593677191,111.0949133339
 C,0,-5.0284958655,54.173408587,111.8757059301
 C,0,-5.6635088345,53.9232286676,113.0778356442
 H,0,-5.588303516,52.9255252665,113.4831942189
 C,0,-7.8118620371,58.0035032832,114.4356224117
 H,0,-8.3611089413,58.3226636231,115.3083421058
 C,0,-6.1330847612,60.1951763158,110.5133138544
 H,0,-6.1698573627,61.2034285086,110.1310622033
 C,0,-3.7892288259,56.185123593,109.2796171772
 H,0,-3.1057576946,55.9090425621,108.4911497099
 C,0,-8.4167809548,56.0200507799,116.6896086296
 H,0,-7.9384731369,56.8059934195,117.2754706925
 H,0,-8.4994049312,55.1326699932,117.3123319225
 H,0,-9.422351246,56.3550505542,116.4347012149
 C,0,-6.8958003313,53.2857488435,115.8100106093
 H,0,-5.853634099,53.0231934862,115.9927709153
 H,0,-7.3453048856,52.4877371384,115.2182867145
 H,0,-7.4094572156,53.3337379048,116.7671540572
 C,0,-8.8882709329,60.8689634368,114.6116961641
 H,0,-8.499356587,60.5197261838,115.5671430202
 H,0,-9.9412698017,60.5876647773,114.553739708
 H,0,-8.8210820581,61.9546204771,114.585278423
 C,0,-7.8947846359,62.2582178297,111.8996743064
 H,0,-7.0778097257,62.7120848365,111.351093698
 C,0,-9.0002465319,62.9676758661,112.1045776277
 H,0,-9.8627293244,62.5557475467,112.5991264213
 H,0,-9.0897020682,63.9837721197,111.7574594173
 C,0,-4.4648250307,60.9820745396,108.0635499041
 H,0,-3.8257612023,61.6882417732,108.5974842917
 H,0,-5.4701354963,61.3999096994,108.0231954917
 H,0,-4.0891150648,60.8797246995,107.0469566812
 C,0,-2.8108660842,58.3266597345,107.3482971038
 H,0,-2.8039956711,57.3403716675,106.8990292115
 C,0,-1.952629704,59.238864685,106.9031407989
 H,0,-1.8788120783,60.2182936355,107.3420697678
 H,0,-1.2714811696,59.0253761563,106.0960098312
 C,0,-3.0109496969,53.2485082609,108.8955786574
 H,0,-2.0163967831,53.6954080608,108.881083671
 H,0,-3.4907508551,53.4624899043,107.9401436118
 H,0,-2.8995897988,52.1710059434,108.9895449298
 C,0,-4.293149326,51.716107917,111.4616982262
 H,0,-3.768298681,51.1444956655,110.7001490002
 H,0,-5.2974837179,51.3061500616,111.5692441341
 H,0,-3.7707689553,51.5829612421,112.4096363537
 O,0,-4.281,57.657,113.107
 H,0,-4.52,57.277,113.953
 H,0,-3.583,58.183,112.945
 C,0,-9.3182951365,54.9785906077,107.7609738121
 H,0,-9.9894967392,55.6815665656,107.2671695876
 H,0,-9.8728506664,54.0622020968,107.9629222442
 H,0,-8.4989313898,54.7490987531,107.0868789851
 N,0,-9.5828990335,55.8981080979,110.0750625281
 H,0,-10.5840914602,55.7982420411,110.1093783242
 C,0,-8.780199518,55.5572901723,109.0181292599
 C,0,-8.7875058995,56.3926769567,111.0508953815
 H,0,-9.1420539297,56.7417341002,111.9985424299
 N,0,-7.5310303953,56.3850598616,110.6758527454
 C,0,-7.5106522153,55.8689773251,109.4132347993
 H,0,-6.5896469948,55.757617923,108.879018172
 Recover connectivity data from disk.
 Stoichiometry    C34H36FeN6O(1+,6)
 Framework group  C1[X(C34H36FeN6O)]
 Deg. of freedom   228
 Full point group                 C1      NOp   1
 Largest Abelian subgroup         C1      NOp   1
 Largest concise Abelian subgroup C1      NOp   1
                         Standard orientation:                         
 ---------------------------------------------------------------------
 Center     Atomic      Atomic             Coordinates (Angstroms)
 Number     Number       Type             X           Y           Z
 ---------------------------------------------------------------------
      1         26           0        0.039255   -0.185519   -0.300687
      2          7           0        1.119244   -1.852505   -0.448284
      3          7           0        1.734880    0.903503   -0.174397
      4          7           0       -1.017928    1.533399   -0.404453
      5          7           0       -1.643440   -1.217029   -0.535783
      6          6           0        0.637434   -3.116285   -0.592930
      7          6           0        1.721370   -4.062129   -0.729230
      8          6           0        2.872429   -3.338649   -0.659272
      9          6           0        2.474743   -1.955364   -0.524128
     10          6           0        3.006711    0.435726   -0.330624
     11          6           0        3.965380    1.506717   -0.240940
     12          6           0        3.238096    2.661478   -0.126635
     13          6           0        1.844247    2.258472   -0.177506
     14          6           0       -0.535103    2.804905   -0.392462
     15          6           0       -1.599222    3.765748   -0.528003
     16          6           0       -2.753005    3.041528   -0.669883
     17          6           0       -2.363107    1.648547   -0.558134
     18          6           0       -2.913651   -0.738403   -0.523230
     19          6           0       -3.869175   -1.820225   -0.422211
     20          6           0       -3.142689   -2.969406   -0.413189
     21          6           0       -1.754606   -2.572190   -0.510910
     22          6           0       -0.701542   -3.465071   -0.579943
     23          1           0       -0.941799   -4.516262   -0.631514
     24          6           0        3.359806   -0.895310   -0.482849
     25          1           0        4.410450   -1.125254   -0.574760
     26          6           0        0.796041    3.151782   -0.249646
     27          1           0        1.034786    4.203928   -0.244109
     28          6           0       -3.260803    0.597646   -0.588166
     29          1           0       -4.311404    0.834425   -0.660339
     30          6           0        4.286514   -3.802663   -0.745484
     31          1           0        4.776096   -3.385529   -1.626409
     32          1           0        4.334480   -4.886921   -0.809822
     33          1           0        4.848409   -3.486010    0.133367
     34          6           0        1.538708   -5.532200   -0.892936
     35          1           0        0.941503   -5.746445   -1.779442
     36          1           0        1.023026   -5.953761   -0.029586
     37          1           0        2.498086   -6.033143   -0.997429
     38          6           0        5.442405    1.350997   -0.350914
     39          1           0        5.697210    0.601735   -1.099099
     40          1           0        5.873720    1.036411    0.601083
     41          1           0        5.897066    2.296953   -0.637817
     42          6           0        3.706100    4.025142   -0.024875
     43          1           0        3.083690    4.774555   -0.499605
     44          6           0        4.810182    4.415353    0.604489
     45          1           0        5.442081    3.724899    1.135638
     46          1           0        5.106365    5.450942    0.632348
     47          6           0       -1.433719    5.244717   -0.476444
     48          1           0       -1.108548    5.636405   -1.442366
     49          1           0       -0.688895    5.521986    0.268689
     50          1           0       -2.379662    5.716115   -0.215538
     51          6           0       -4.110127    3.511345   -0.837913
     52          1           0       -4.879896    2.901444   -0.379516
     53          6           0       -4.471016    4.602631   -1.505524
     54          1           0       -3.757594    5.219990   -2.022520
     55          1           0       -5.503370    4.902126   -1.580030
     56          6           0       -5.345946   -1.632243   -0.350077
     57          1           0       -5.714552   -1.145086   -1.253334
     58          1           0       -5.612376   -1.007335    0.502776
     59          1           0       -5.853583   -2.588181   -0.246486
     60          6           0       -3.609767   -4.382254   -0.330605
     61          1           0       -4.690576   -4.427014   -0.220991
     62          1           0       -3.155686   -4.886606    0.522482
     63          1           0       -3.334703   -4.930165   -1.232453
     64          8           0        0.283793   -0.159103   -2.568138
     65          1           0        0.809955   -0.940745   -2.739679
     66          1           0        0.023049    0.441742   -3.169072
     67          6           0       -1.684349   -0.200696    4.998427
     68          1           0       -1.301104    0.585426    5.649323
     69          1           0       -1.662562   -1.140687    5.549811
     70          1           0       -2.713979    0.030629    4.743911
     71          7           0        0.453962   -0.629750    3.767950
     72          1           0        1.002976   -0.831815    4.587273
     73          6           0       -0.875641   -0.298651    3.756946
     74          6           0        0.886893   -0.629633    2.486518
     75          1           0        1.890507   -0.853202    2.189270
     76          7           0       -0.087630   -0.319141    1.665943
     77          6           0       -1.190144   -0.109595    2.441517
     78          1           0       -2.128408    0.160801    2.002670
 ---------------------------------------------------------------------
 Rotational constants (GHZ):           0.0925647           0.0909256           0.0593775
 Standard basis: def2TZVP (5D, 7F)
 There are  1744 symmetry adapted cartesian basis functions of A   symmetry.
 There are  1532 symmetry adapted basis functions of A   symmetry.
  1532 basis functions,  2481 primitive gaussians,  1744 cartesian basis functions
   160 alpha electrons      155 beta electrons
       nuclear repulsion energy      5962.3006310664 Hartrees.
 NAtoms=   78 NActive=   78 NUniq=   78 SFac= 1.00D+00 NAtFMM=   60 NAOKFM=T Big=T
 Integral buffers will be    131072 words long.
 Raffenetti 2 integral format.
 Two-electron integral symmetry is turned on.
 R6APFD:  NTU= -4 IXU= 1 FactS= 1.050
 Nuclear repulsion after empirical dispersion term =     5962.1480616498 Hartrees.
 One-electron integrals computed using PRISM.
   1 Symmetry operations used in ECPInt.
 ECPInt:  NShTT=  186355 NPrTT=  576197 LenC2=  147066 LenP2D=  300902.
 LDataN:  DoStor=T MaxTD1= 6 Len=  172
 Number of processors reduced to  23 by ecpmxn.
 NBasis=  1532 RedAO= T EigKep=  3.24D-06  NBF=  1532
 NBsUse=  1532 1.00D-06 EigRej= -1.00D+00 NBFU=  1532
 Initial guess from the checkpoint file:  "1cck_III_Hn.chk"
 B after Tr=     0.000000   -0.000000    0.000000
         Rot=    1.000000   -0.000000   -0.000000    0.000000 Ang=   0.00 deg.
 Initial guess <Sx>= 0.0000 <Sy>= 0.0000 <Sz>= 2.5000 <S**2>= 8.7585 S= 2.5014
 Requested convergence on RMS density matrix=1.00D-08 within 999 cycles.
 Requested convergence on MAX density matrix=1.00D-06.
 Requested convergence on             energy=1.00D-06.
 No special actions if energy rises.
 SCF Done:  E(UAPFD) =  -2983.83434571     A.U. after   16 cycles
            NFock= 16  Conv=0.76D-08     -V/T= 2.0031
 <Sx>= 0.0000 <Sy>= 0.0000 <Sz>= 2.5000 <S**2>= 8.7589 S= 2.5015
 <L.S>=  0.00000000000    
 Annihilation of the first spin contaminant:
 S**2 before annihilation     8.7589,   after     8.7500

 **********************************************************************

            Population analysis using the SCF Density.

 **********************************************************************

 Orbital symmetries:
 Alpha Orbitals:
       Occupied  (A) (A) (A) (A) (A) (A) (A) (A) (A) (A) (A) (A)
                 (A) (A) (A) (A) (A) (A) (A) (A) (A) (A) (A) (A)
                 (A) (A) (A) (A) (A) (A) (A) (A) (A) (A) (A) (A)
                 (A) (A) (A) (A) (A) (A) (A) (A) (A) (A) (A) (A)
                 (A) (A) (A) (A) (A) (A) (A) (A) (A) (A) (A) (A)
                 (A) (A) (A) (A) (A) (A) (A) (A) (A) (A) (A) (A)
                 (A) (A) (A) (A) (A) (A) (A) (A) (A) (A) (A) (A)
                 (A) (A) (A) (A) (A) (A) (A) (A) (A) (A) (A) (A)
                 (A) (A) (A) (A) (A) (A) (A) (A) (A) (A) (A) (A)
                 (A) (A) (A) (A) (A) (A) (A) (A) (A) (A) (A) (A)
                 (A) (A) (A) (A) (A) (A) (A) (A) (A) (A) (A) (A)
                 (A) (A) (A) (A) (A) (A) (A) (A) (A) (A) (A) (A)
                 (A) (A) (A) (A) (A) (A) (A) (A) (A) (A) (A) (A)
                 (A) (A) (A) (A)
       Virtual   (A) (A) (A) (A) (A) (A) (A) (A) (A) (A) (A) (A)
                 (A) (A) (A) (A) (A) (A) (A) (A) (A) (A) (A) (A)
                 (A) (A) (A) (A) (A) (A) (A) (A) (A) (A) (A) (A)
                 (A) (A) (A) (A) (A) (A) (A) (A) (A) (A) (A) (A)
                 (A) (A) (A) (A) (A) (A) (A) (A) (A) (A) (A) (A)
                 (A) (A) (A) (A) (A) (A) (A) (A) (A) (A) (A) (A)
                 (A) (A) (A) (A) (A) (A) (A) (A) (A) (A) (A) (A)
                 (A) (A) (A) (A) (A) (A) (A) (A) (A) (A) (A) (A)
                 (A) (A) (A) (A) (A) (A) (A) (A) (A) (A) (A) (A)
                 (A) (A) (A) (A) (A) (A) (A) (A) (A) (A) (A) (A)
                 (A) (A) (A) (A) (A) (A) (A) (A) (A) (A) (A) (A)
                 (A) (A) (A) (A) (A) (A) (A) (A) (A) (A) (A) (A)
                 (A) (A) (A) (A) (A) (A) (A) (A) (A) (A) (A) (A)
                 (A) (A) (A) (A) (A) (A) (A) (A) (A) (A) (A) (A)
                 (A) (A) (A) (A) (A) (A) (A) (A) (A) (A) (A) (A)
                 (A) (A) (A) (A) (A) (A) (A) (A) (A) (A) (A) (A)
                 (A) (A) (A) (A) (A) (A) (A) (A) (A) (A) (A) (A)
                 (A) (A) (A) (A) (A) (A) (A) (A) (A) (A) (A) (A)
                 (A) (A) (A) (A) (A) (A) (A) (A) (A) (A) (A) (A)
                 (A) (A) (A) (A) (A) (A) (A) (A) (A) (A) (A) (A)
                 (A) (A) (A) (A) (A) (A) (A) (A) (A) (A) (A) (A)
                 (A) (A) (A) (A) (A) (A) (A) (A) (A) (A) (A) (A)
                 (A) (A) (A) (A) (A) (A) (A) (A) (A) (A) (A) (A)
                 (A) (A) (A) (A) (A) (A) (A) (A) (A) (A) (A) (A)
                 (A) (A) (A) (A) (A) (A) (A) (A) (A) (A) (A) (A)
                 (A) (A) (A) (A) (A) (A) (A) (A) (A) (A) (A) (A)
                 (A) (A) (A) (A) (A) (A) (A) (A) (A) (A) (A) (A)
                 (A) (A) (A) (A) (A) (A) (A) (A) (A) (A) (A) (A)
                 (A) (A) (A) (A) (A) (A) (A) (A) (A) (A) (A) (A)
                 (A) (A) (A) (A) (A) (A) (A) (A) (A) (A) (A) (A)
                 (A) (A) (A) (A) (A) (A) (A) (A) (A) (A) (A) (A)
                 (A) (A) (A) (A) (A) (A) (A) (A) (A) (A) (A) (A)
                 (A) (A) (A) (A) (A) (A) (A) (A) (A) (A) (A) (A)
                 (A) (A) (A) (A) (A) (A) (A) (A) (A) (A) (A) (A)
                 (A) (A) (A) (A) (A) (A) (A) (A) (A) (A) (A) (A)
                 (A) (A) (A) (A) (A) (A) (A) (A) (A) (A) (A) (A)
                 (A) (A) (A) (A) (A) (A) (A) (A) (A) (A) (A) (A)
                 (A) (A) (A) (A) (A) (A) (A) (A) (A) (A) (A) (A)
                 (A) (A) (A) (A) (A) (A) (A) (A) (A) (A) (A) (A)
                 (A) (A) (A) (A) (A) (A) (A) (A) (A) (A) (A) (A)
                 (A) (A) (A) (A) (A) (A) (A) (A) (A) (A) (A) (A)
                 (A) (A) (A) (A) (A) (A) (A) (A) (A) (A) (A) (A)
                 (A) (A) (A) (A) (A) (A) (A) (A) (A) (A) (A) (A)
                 (A) (A) (A) (A) (A) (A) (A) (A) (A) (A) (A) (A)
                 (A) (A) (A) (A) (A) (A) (A) (A) (A) (A) (A) (A)
                 (A) (A) (A) (A) (A) (A) (A) (A) (A) (A) (A) (A)
                 (A) (A) (A) (A) (A) (A) (A) (A) (A) (A) (A) (A)
                 (A) (A) (A) (A) (A) (A) (A) (A) (A) (A) (A) (A)
                 (A) (A) (A) (A) (A) (A) (A) (A) (A) (A) (A) (A)
                 (A) (A) (A) (A) (A) (A) (A) (A) (A) (A) (A) (A)
                 (A) (A) (A) (A) (A) (A) (A) (A) (A) (A) (A) (A)
                 (A) (A) (A) (A) (A) (A) (A) (A) (A) (A) (A) (A)
                 (A) (A) (A) (A) (A) (A) (A) (A) (A) (A) (A) (A)
                 (A) (A) (A) (A) (A) (A) (A) (A) (A) (A) (A) (A)
                 (A) (A) (A) (A) (A) (A) (A) (A) (A) (A) (A) (A)
                 (A) (A) (A) (A) (A) (A) (A) (A) (A) (A) (A) (A)
                 (A) (A) (A) (A) (A) (A) (A) (A) (A) (A) (A) (A)
                 (A) (A) (A) (A) (A) (A) (A) (A) (A) (A) (A) (A)
                 (A) (A) (A) (A) (A) (A) (A) (A) (A) (A) (A) (A)
                 (A) (A) (A) (A) (A) (A) (A) (A) (A) (A) (A) (A)
                 (A) (A) (A) (A) (A) (A) (A) (A) (A) (A) (A) (A)
                 (A) (A) (A) (A) (A) (A) (A) (A) (A) (A) (A) (A)
                 (A) (A) (A) (A) (A) (A) (A) (A) (A) (A) (A) (A)
                 (A) (A) (A) (A) (A) (A) (A) (A) (A) (A) (A) (A)
                 (A) (A) (A) (A) (A) (A) (A) (A) (A) (A) (A) (A)
                 (A) (A) (A) (A) (A) (A) (A) (A) (A) (A) (A) (A)
                 (A) (A) (A) (A) (A) (A) (A) (A) (A) (A) (A) (A)
                 (A) (A) (A) (A) (A) (A) (A) (A) (A) (A) (A) (A)
                 (A) (A) (A) (A) (A) (A) (A) (A) (A) (A) (A) (A)
                 (A) (A) (A) (A) (A) (A) (A) (A) (A) (A) (A) (A)
                 (A) (A) (A) (A) (A) (A) (A) (A) (A) (A) (A) (A)
                 (A) (A) (A) (A) (A) (A) (A) (A) (A) (A) (A) (A)
                 (A) (A) (A) (A) (A) (A) (A) (A) (A) (A) (A) (A)
                 (A) (A) (A) (A) (A) (A) (A) (A) (A) (A) (A) (A)
                 (A) (A) (A) (A) (A) (A) (A) (A) (A) (A) (A) (A)
                 (A) (A) (A) (A) (A) (A) (A) (A) (A) (A) (A) (A)
                 (A) (A) (A) (A) (A) (A) (A) (A) (A) (A) (A) (A)
                 (A) (A) (A) (A) (A) (A) (A) (A) (A) (A) (A) (A)
                 (A) (A) (A) (A) (A) (A) (A) (A) (A) (A) (A) (A)
                 (A) (A) (A) (A) (A) (A) (A) (A) (A) (A) (A) (A)
                 (A) (A) (A) (A) (A) (A) (A) (A) (A) (A) (A) (A)
                 (A) (A) (A) (A) (A) (A) (A) (A) (A) (A) (A) (A)
                 (A) (A) (A) (A) (A) (A) (A) (A) (A) (A) (A) (A)
                 (A) (A) (A) (A) (A) (A) (A) (A) (A) (A) (A) (A)
                 (A) (A) (A) (A) (A) (A) (A) (A) (A) (A) (A) (A)
                 (A) (A) (A) (A) (A) (A) (A) (A) (A) (A) (A) (A)
                 (A) (A) (A) (A) (A) (A) (A) (A) (A) (A) (A) (A)
                 (A) (A) (A) (A) (A) (A) (A) (A) (A) (A) (A) (A)
                 (A) (A) (A) (A) (A) (A) (A) (A) (A) (A) (A) (A)
                 (A) (A) (A) (A) (A) (A) (A) (A) (A) (A) (A) (A)
                 (A) (A) (A) (A) (A) (A) (A) (A) (A) (A) (A) (A)
                 (A) (A) (A) (A) (A) (A) (A) (A) (A) (A) (A) (A)
                 (A) (A) (A) (A) (A) (A) (A) (A) (A) (A) (A) (A)
                 (A) (A) (A) (A) (A) (A) (A) (A) (A) (A) (A) (A)
                 (A) (A) (A) (A) (A) (A) (A) (A) (A) (A) (A) (A)
                 (A) (A) (A) (A) (A) (A) (A) (A) (A) (A) (A) (A)
                 (A) (A) (A) (A) (A) (A) (A) (A) (A) (A) (A) (A)
                 (A) (A) (A) (A) (A) (A) (A) (A) (A) (A) (A) (A)
                 (A) (A) (A) (A) (A) (A) (A) (A) (A) (A) (A) (A)
                 (A) (A) (A) (A) (A) (A) (A) (A) (A) (A) (A) (A)
                 (A) (A) (A) (A) (A) (A) (A) (A) (A) (A) (A) (A)
                 (A) (A) (A) (A) (A) (A) (A) (A) (A) (A) (A) (A)
                 (A) (A) (A) (A) (A) (A) (A) (A) (A) (A) (A) (A)
                 (A) (A) (A) (A) (A) (A) (A) (A) (A) (A) (A) (A)
                 (A) (A) (A) (A) (A) (A) (A) (A) (A) (A) (A) (A)
                 (A) (A) (A) (A) (A) (A) (A) (A) (A) (A) (A) (A)
                 (A) (A) (A) (A) (A) (A) (A) (A) (A) (A) (A) (A)
                 (A) (A) (A) (A) (A) (A) (A) (A) (A) (A) (A) (A)
                 (A) (A) (A) (A) (A) (A) (A) (A) (A) (A) (A) (A)
                 (A) (A) (A) (A) (A) (A) (A) (A) (A) (A) (A) (A)
                 (A) (A) (A) (A) (A) (A) (A) (A) (A) (A) (A) (A)
                 (A) (A) (A) (A) (A) (A) (A) (A) (A) (A) (A) (A)
                 (A) (A) (A) (A) (A) (A) (A) (A) (A) (A) (A) (A)
                 (A) (A) (A) (A) (A) (A) (A) (A) (A) (A) (A) (A)
                 (A) (A) (A) (A)
 Beta  Orbitals:
       Occupied  (A) (A) (A) (A) (A) (A) (A) (A) (A) (A) (A) (A)
                 (A) (A) (A) (A) (A) (A) (A) (A) (A) (A) (A) (A)
                 (A) (A) (A) (A) (A) (A) (A) (A) (A) (A) (A) (A)
                 (A) (A) (A) (A) (A) (A) (A) (A) (A) (A) (A) (A)
                 (A) (A) (A) (A) (A) (A) (A) (A) (A) (A) (A) (A)
                 (A) (A) (A) (A) (A) (A) (A) (A) (A) (A) (A) (A)
                 (A) (A) (A) (A) (A) (A) (A) (A) (A) (A) (A) (A)
                 (A) (A) (A) (A) (A) (A) (A) (A) (A) (A) (A) (A)
                 (A) (A) (A) (A) (A) (A) (A) (A) (A) (A) (A) (A)
                 (A) (A) (A) (A) (A) (A) (A) (A) (A) (A) (A) (A)
                 (A) (A) (A) (A) (A) (A) (A) (A) (A) (A) (A) (A)
                 (A) (A) (A) (A) (A) (A) (A) (A) (A) (A) (A) (A)
                 (A) (A) (A) (A) (A) (A) (A) (A) (A) (A) (A)
       Virtual   (A) (A) (A) (A) (A) (A) (A) (A) (A) (A) (A) (A)
                 (A) (A) (A) (A) (A) (A) (A) (A) (A) (A) (A) (A)
                 (A) (A) (A) (A) (A) (A) (A) (A) (A) (A) (A) (A)
                 (A) (A) (A) (A) (A) (A) (A) (A) (A) (A) (A) (A)
                 (A) (A) (A) (A) (A) (A) (A) (A) (A) (A) (A) (A)
                 (A) (A) (A) (A) (A) (A) (A) (A) (A) (A) (A) (A)
                 (A) (A) (A) (A) (A) (A) (A) (A) (A) (A) (A) (A)
                 (A) (A) (A) (A) (A) (A) (A) (A) (A) (A) (A) (A)
                 (A) (A) (A) (A) (A) (A) (A) (A) (A) (A) (A) (A)
                 (A) (A) (A) (A) (A) (A) (A) (A) (A) (A) (A) (A)
                 (A) (A) (A) (A) (A) (A) (A) (A) (A) (A) (A) (A)
                 (A) (A) (A) (A) (A) (A) (A) (A) (A) (A) (A) (A)
                 (A) (A) (A) (A) (A) (A) (A) (A) (A) (A) (A) (A)
                 (A) (A) (A) (A) (A) (A) (A) (A) (A) (A) (A) (A)
                 (A) (A) (A) (A) (A) (A) (A) (A) (A) (A) (A) (A)
                 (A) (A) (A) (A) (A) (A) (A) (A) (A) (A) (A) (A)
                 (A) (A) (A) (A) (A) (A) (A) (A) (A) (A) (A) (A)
                 (A) (A) (A) (A) (A) (A) (A) (A) (A) (A) (A) (A)
                 (A) (A) (A) (A) (A) (A) (A) (A) (A) (A) (A) (A)
                 (A) (A) (A) (A) (A) (A) (A) (A) (A) (A) (A) (A)
                 (A) (A) (A) (A) (A) (A) (A) (A) (A) (A) (A) (A)
                 (A) (A) (A) (A) (A) (A) (A) (A) (A) (A) (A) (A)
                 (A) (A) (A) (A) (A) (A) (A) (A) (A) (A) (A) (A)
                 (A) (A) (A) (A) (A) (A) (A) (A) (A) (A) (A) (A)
                 (A) (A) (A) (A) (A) (A) (A) (A) (A) (A) (A) (A)
                 (A) (A) (A) (A) (A) (A) (A) (A) (A) (A) (A) (A)
                 (A) (A) (A) (A) (A) (A) (A) (A) (A) (A) (A) (A)
                 (A) (A) (A) (A) (A) (A) (A) (A) (A) (A) (A) (A)
                 (A) (A) (A) (A) (A) (A) (A) (A) (A) (A) (A) (A)
                 (A) (A) (A) (A) (A) (A) (A) (A) (A) (A) (A) (A)
                 (A) (A) (A) (A) (A) (A) (A) (A) (A) (A) (A) (A)
                 (A) (A) (A) (A) (A) (A) (A) (A) (A) (A) (A) (A)
                 (A) (A) (A) (A) (A) (A) (A) (A) (A) (A) (A) (A)
                 (A) (A) (A) (A) (A) (A) (A) (A) (A) (A) (A) (A)
                 (A) (A) (A) (A) (A) (A) (A) (A) (A) (A) (A) (A)
                 (A) (A) (A) (A) (A) (A) (A) (A) (A) (A) (A) (A)
                 (A) (A) (A) (A) (A) (A) (A) (A) (A) (A) (A) (A)
                 (A) (A) (A) (A) (A) (A) (A) (A) (A) (A) (A) (A)
                 (A) (A) (A) (A) (A) (A) (A) (A) (A) (A) (A) (A)
                 (A) (A) (A) (A) (A) (A) (A) (A) (A) (A) (A) (A)
                 (A) (A) (A) (A) (A) (A) (A) (A) (A) (A) (A) (A)
                 (A) (A) (A) (A) (A) (A) (A) (A) (A) (A) (A) (A)
                 (A) (A) (A) (A) (A) (A) (A) (A) (A) (A) (A) (A)
                 (A) (A) (A) (A) (A) (A) (A) (A) (A) (A) (A) (A)
                 (A) (A) (A) (A) (A) (A) (A) (A) (A) (A) (A) (A)
                 (A) (A) (A) (A) (A) (A) (A) (A) (A) (A) (A) (A)
                 (A) (A) (A) (A) (A) (A) (A) (A) (A) (A) (A) (A)
                 (A) (A) (A) (A) (A) (A) (A) (A) (A) (A) (A) (A)
                 (A) (A) (A) (A) (A) (A) (A) (A) (A) (A) (A) (A)
                 (A) (A) (A) (A) (A) (A) (A) (A) (A) (A) (A) (A)
                 (A) (A) (A) (A) (A) (A) (A) (A) (A) (A) (A) (A)
                 (A) (A) (A) (A) (A) (A) (A) (A) (A) (A) (A) (A)
                 (A) (A) (A) (A) (A) (A) (A) (A) (A) (A) (A) (A)
                 (A) (A) (A) (A) (A) (A) (A) (A) (A) (A) (A) (A)
                 (A) (A) (A) (A) (A) (A) (A) (A) (A) (A) (A) (A)
                 (A) (A) (A) (A) (A) (A) (A) (A) (A) (A) (A) (A)
                 (A) (A) (A) (A) (A) (A) (A) (A) (A) (A) (A) (A)
                 (A) (A) (A) (A) (A) (A) (A) (A) (A) (A) (A) (A)
                 (A) (A) (A) (A) (A) (A) (A) (A) (A) (A) (A) (A)
                 (A) (A) (A) (A) (A) (A) (A) (A) (A) (A) (A) (A)
                 (A) (A) (A) (A) (A) (A) (A) (A) (A) (A) (A) (A)
                 (A) (A) (A) (A) (A) (A) (A) (A) (A) (A) (A) (A)
                 (A) (A) (A) (A) (A) (A) (A) (A) (A) (A) (A) (A)
                 (A) (A) (A) (A) (A) (A) (A) (A) (A) (A) (A) (A)
                 (A) (A) (A) (A) (A) (A) (A) (A) (A) (A) (A) (A)
                 (A) (A) (A) (A) (A) (A) (A) (A) (A) (A) (A) (A)
                 (A) (A) (A) (A) (A) (A) (A) (A) (A) (A) (A) (A)
                 (A) (A) (A) (A) (A) (A) (A) (A) (A) (A) (A) (A)
                 (A) (A) (A) (A) (A) (A) (A) (A) (A) (A) (A) (A)
                 (A) (A) (A) (A) (A) (A) (A) (A) (A) (A) (A) (A)
                 (A) (A) (A) (A) (A) (A) (A) (A) (A) (A) (A) (A)
                 (A) (A) (A) (A) (A) (A) (A) (A) (A) (A) (A) (A)
                 (A) (A) (A) (A) (A) (A) (A) (A) (A) (A) (A) (A)
                 (A) (A) (A) (A) (A) (A) (A) (A) (A) (A) (A) (A)
                 (A) (A) (A) (A) (A) (A) (A) (A) (A) (A) (A) (A)
                 (A) (A) (A) (A) (A) (A) (A) (A) (A) (A) (A) (A)
                 (A) (A) (A) (A) (A) (A) (A) (A) (A) (A) (A) (A)
                 (A) (A) (A) (A) (A) (A) (A) (A) (A) (A) (A) (A)
                 (A) (A) (A) (A) (A) (A) (A) (A) (A) (A) (A) (A)
                 (A) (A) (A) (A) (A) (A) (A) (A) (A) (A) (A) (A)
                 (A) (A) (A) (A) (A) (A) (A) (A) (A) (A) (A) (A)
                 (A) (A) (A) (A) (A) (A) (A) (A) (A) (A) (A) (A)
                 (A) (A) (A) (A) (A) (A) (A) (A) (A) (A) (A) (A)
                 (A) (A) (A) (A) (A) (A) (A) (A) (A) (A) (A) (A)
                 (A) (A) (A) (A) (A) (A) (A) (A) (A) (A) (A) (A)
                 (A) (A) (A) (A) (A) (A) (A) (A) (A) (A) (A) (A)
                 (A) (A) (A) (A) (A) (A) (A) (A) (A) (A) (A) (A)
                 (A) (A) (A) (A) (A) (A) (A) (A) (A) (A) (A) (A)
                 (A) (A) (A) (A) (A) (A) (A) (A) (A) (A) (A) (A)
                 (A) (A) (A) (A) (A) (A) (A) (A) (A) (A) (A) (A)
                 (A) (A) (A) (A) (A) (A) (A) (A) (A) (A) (A) (A)
                 (A) (A) (A) (A) (A) (A) (A) (A) (A) (A) (A) (A)
                 (A) (A) (A) (A) (A) (A) (A) (A) (A) (A) (A) (A)
                 (A) (A) (A) (A) (A) (A) (A) (A) (A) (A) (A) (A)
                 (A) (A) (A) (A) (A) (A) (A) (A) (A) (A) (A) (A)
                 (A) (A) (A) (A) (A) (A) (A) (A) (A) (A) (A) (A)
                 (A) (A) (A) (A) (A) (A) (A) (A) (A) (A) (A) (A)
                 (A) (A) (A) (A) (A) (A) (A) (A) (A) (A) (A) (A)
                 (A) (A) (A) (A) (A) (A) (A) (A) (A) (A) (A) (A)
                 (A) (A) (A) (A) (A) (A) (A) (A) (A) (A) (A) (A)
                 (A) (A) (A) (A) (A) (A) (A) (A) (A) (A) (A) (A)
                 (A) (A) (A) (A) (A) (A) (A) (A) (A) (A) (A) (A)
                 (A) (A) (A) (A) (A) (A) (A) (A) (A) (A) (A) (A)
                 (A) (A) (A) (A) (A) (A) (A) (A) (A) (A) (A) (A)
                 (A) (A) (A) (A) (A) (A) (A) (A) (A) (A) (A) (A)
                 (A) (A) (A) (A) (A) (A) (A) (A) (A) (A) (A) (A)
                 (A) (A) (A) (A) (A) (A) (A) (A) (A) (A) (A) (A)
                 (A) (A) (A) (A) (A) (A) (A) (A) (A) (A) (A) (A)
                 (A) (A) (A) (A) (A) (A) (A) (A) (A) (A) (A) (A)
                 (A) (A) (A) (A) (A) (A) (A) (A) (A) (A) (A) (A)
                 (A) (A) (A) (A) (A) (A) (A) (A) (A) (A) (A) (A)
                 (A) (A) (A) (A) (A) (A) (A) (A) (A) (A) (A) (A)
                 (A) (A) (A) (A) (A) (A) (A) (A) (A) (A) (A) (A)
                 (A) (A) (A) (A) (A) (A) (A) (A) (A) (A) (A) (A)
                 (A) (A) (A) (A) (A) (A) (A) (A) (A)
 The electronic state is 6-A.
 Alpha  occ. eigenvalues -- -256.42385 -30.33310 -26.16337 -26.16210 -26.16175
 Alpha  occ. eigenvalues --  -19.28679 -14.52934 -14.48166 -14.45156 -14.44891
 Alpha  occ. eigenvalues --  -14.44757 -14.44673 -10.37537 -10.34713 -10.32804
 Alpha  occ. eigenvalues --  -10.32792 -10.32773 -10.32715 -10.32678 -10.32556
 Alpha  occ. eigenvalues --  -10.32495 -10.32492 -10.32178 -10.30196 -10.29910
 Alpha  occ. eigenvalues --  -10.29837 -10.29821 -10.29817 -10.29682 -10.29591
 Alpha  occ. eigenvalues --  -10.29523 -10.29517 -10.29514 -10.29512 -10.29472
 Alpha  occ. eigenvalues --  -10.29410 -10.28786 -10.28781 -10.28171 -10.28067
 Alpha  occ. eigenvalues --  -10.27890 -10.27860 -10.27733 -10.27607 -10.27450
 Alpha  occ. eigenvalues --  -10.27440  -3.78627  -2.55305  -2.55168  -2.55095
 Alpha  occ. eigenvalues --   -1.16929  -1.16730  -1.09086  -1.08152  -1.07903
 Alpha  occ. eigenvalues --   -1.07032  -1.02877  -0.93584  -0.92362  -0.92073
 Alpha  occ. eigenvalues --   -0.91666  -0.91292  -0.90801  -0.90764  -0.90718
 Alpha  occ. eigenvalues --   -0.86830  -0.85608  -0.85299  -0.84434  -0.83083
 Alpha  occ. eigenvalues --   -0.82359  -0.81303  -0.80311  -0.78827  -0.78516
 Alpha  occ. eigenvalues --   -0.78359  -0.76277  -0.75235  -0.75162  -0.72596
 Alpha  occ. eigenvalues --   -0.72271  -0.70832  -0.70206  -0.69040  -0.68432
 Alpha  occ. eigenvalues --   -0.67240  -0.65354  -0.64687  -0.64126  -0.63806
 Alpha  occ. eigenvalues --   -0.62141  -0.62080  -0.62048  -0.61547  -0.60539
 Alpha  occ. eigenvalues --   -0.59056  -0.58720  -0.58609  -0.58315  -0.56651
 Alpha  occ. eigenvalues --   -0.56509  -0.56365  -0.55992  -0.55503  -0.55129
 Alpha  occ. eigenvalues --   -0.54994  -0.54583  -0.53948  -0.53888  -0.53503
 Alpha  occ. eigenvalues --   -0.53439  -0.53377  -0.53294  -0.52935  -0.52682
 Alpha  occ. eigenvalues --   -0.52202  -0.52010  -0.51954  -0.51899  -0.51358
 Alpha  occ. eigenvalues --   -0.50904  -0.50639  -0.50267  -0.50196  -0.49967
 Alpha  occ. eigenvalues --   -0.49747  -0.49521  -0.49371  -0.49203  -0.48843
 Alpha  occ. eigenvalues --   -0.48739  -0.48449  -0.48232  -0.47811  -0.47163
 Alpha  occ. eigenvalues --   -0.47105  -0.46433  -0.46024  -0.45659  -0.45170
 Alpha  occ. eigenvalues --   -0.45073  -0.43974  -0.43623  -0.43244  -0.42884
 Alpha  occ. eigenvalues --   -0.42414  -0.41586  -0.39979  -0.39700  -0.38218
 Alpha  occ. eigenvalues --   -0.37733  -0.37547  -0.35171  -0.34318  -0.33795
 Alpha  occ. eigenvalues --   -0.33147  -0.32540  -0.32147  -0.29913  -0.28973
 Alpha virt. eigenvalues --   -0.17976  -0.17884  -0.12227  -0.10079  -0.08927
 Alpha virt. eigenvalues --   -0.07813  -0.07425  -0.06225  -0.05977  -0.05758
 Alpha virt. eigenvalues --   -0.04245  -0.04038  -0.03202  -0.02981  -0.02761
 Alpha virt. eigenvalues --   -0.02265  -0.02158  -0.01537  -0.00948  -0.00500
 Alpha virt. eigenvalues --   -0.00140   0.00086   0.00240   0.00763   0.00978
 Alpha virt. eigenvalues --    0.01493   0.01932   0.02191   0.02595   0.02625
 Alpha virt. eigenvalues --    0.02827   0.03168   0.03309   0.03399   0.03611
 Alpha virt. eigenvalues --    0.03718   0.04037   0.04103   0.04369   0.04644
 Alpha virt. eigenvalues --    0.04693   0.04905   0.05179   0.05323   0.05653
 Alpha virt. eigenvalues --    0.05694   0.06149   0.06560   0.06789   0.07022
 Alpha virt. eigenvalues --    0.07224   0.07350   0.07643   0.07866   0.08032
 Alpha virt. eigenvalues --    0.08276   0.08525   0.08612   0.08768   0.09108
 Alpha virt. eigenvalues --    0.09563   0.09885   0.10157   0.10402   0.10641
 Alpha virt. eigenvalues --    0.10933   0.11033   0.11272   0.11462   0.11698
 Alpha virt. eigenvalues --    0.12045   0.12320   0.12701   0.12907   0.13014
 Alpha virt. eigenvalues --    0.13244   0.13523   0.13760   0.14074   0.14201
 Alpha virt. eigenvalues --    0.14568   0.14997   0.15304   0.15401   0.16097
 Alpha virt. eigenvalues --    0.16302   0.16643   0.16792   0.16927   0.17190
 Alpha virt. eigenvalues --    0.17270   0.17473   0.17616   0.17812   0.18218
 Alpha virt. eigenvalues --    0.18623   0.19119   0.19646   0.19766   0.19865
 Alpha virt. eigenvalues --    0.20260   0.20399   0.20662   0.20969   0.21058
 Alpha virt. eigenvalues --    0.21384   0.21637   0.21789   0.21941   0.22299
 Alpha virt. eigenvalues --    0.22363   0.23062   0.23283   0.23529   0.23756
 Alpha virt. eigenvalues --    0.24041   0.24243   0.24261   0.24751   0.24951
 Alpha virt. eigenvalues --    0.25325   0.25477   0.25574   0.25773   0.26298
 Alpha virt. eigenvalues --    0.26872   0.27013   0.27180   0.27389   0.27859
 Alpha virt. eigenvalues --    0.28228   0.28627   0.28967   0.29057   0.29246
 Alpha virt. eigenvalues --    0.29493   0.29750   0.29797   0.30135   0.30383
 Alpha virt. eigenvalues --    0.30646   0.30773   0.31194   0.31397   0.31596
 Alpha virt. eigenvalues --    0.31706   0.32087   0.32214   0.32343   0.32540
 Alpha virt. eigenvalues --    0.32715   0.32795   0.33068   0.33393   0.33546
 Alpha virt. eigenvalues --    0.33741   0.33936   0.34373   0.34788   0.34990
 Alpha virt. eigenvalues --    0.35317   0.35536   0.35721   0.35932   0.36099
 Alpha virt. eigenvalues --    0.36513   0.36656   0.36973   0.37119   0.37364
 Alpha virt. eigenvalues --    0.37638   0.37875   0.38070   0.38198   0.38284
 Alpha virt. eigenvalues --    0.38550   0.38993   0.39078   0.39211   0.39517
 Alpha virt. eigenvalues --    0.39611   0.39831   0.40245   0.40544   0.40613
 Alpha virt. eigenvalues --    0.40885   0.40956   0.41148   0.41408   0.41797
 Alpha virt. eigenvalues --    0.41928   0.42075   0.42395   0.42588   0.42810
 Alpha virt. eigenvalues --    0.42996   0.43105   0.43464   0.43762   0.43807
 Alpha virt. eigenvalues --    0.44021   0.44218   0.44526   0.44893   0.45030
 Alpha virt. eigenvalues --    0.45063   0.45394   0.45664   0.46208   0.46422
 Alpha virt. eigenvalues --    0.46528   0.46820   0.46943   0.47242   0.47597
 Alpha virt. eigenvalues --    0.47650   0.48156   0.48203   0.48330   0.48679
 Alpha virt. eigenvalues --    0.49021   0.49298   0.49566   0.50113   0.50404
 Alpha virt. eigenvalues --    0.50452   0.50920   0.51276   0.51539   0.52061
 Alpha virt. eigenvalues --    0.52240   0.52520   0.52665   0.53245   0.53264
 Alpha virt. eigenvalues --    0.53933   0.53972   0.54520   0.54530   0.55018
 Alpha virt. eigenvalues --    0.55462   0.55502   0.55731   0.55959   0.56135
 Alpha virt. eigenvalues --    0.56489   0.56944   0.57109   0.57243   0.57511
 Alpha virt. eigenvalues --    0.57822   0.58221   0.58715   0.59183   0.59501
 Alpha virt. eigenvalues --    0.59747   0.60122   0.60303   0.60787   0.61299
 Alpha virt. eigenvalues --    0.61499   0.61794   0.61960   0.62146   0.62501
 Alpha virt. eigenvalues --    0.62952   0.63246   0.63503   0.63847   0.64053
 Alpha virt. eigenvalues --    0.64234   0.64616   0.65013   0.65454   0.66068
 Alpha virt. eigenvalues --    0.66275   0.66797   0.66909   0.67261   0.67530
 Alpha virt. eigenvalues --    0.67820   0.68232   0.68683   0.68835   0.69351
 Alpha virt. eigenvalues --    0.69418   0.69712   0.69939   0.70336   0.70918
 Alpha virt. eigenvalues --    0.71320   0.71749   0.71892   0.72177   0.72502
 Alpha virt. eigenvalues --    0.72823   0.73886   0.73990   0.74167   0.74700
 Alpha virt. eigenvalues --    0.74990   0.75232   0.76309   0.76637   0.76913
 Alpha virt. eigenvalues --    0.76999   0.77335   0.77805   0.78462   0.78804
 Alpha virt. eigenvalues --    0.79155   0.79538   0.80016   0.80448   0.80791
 Alpha virt. eigenvalues --    0.80898   0.81147   0.81757   0.82393   0.82712
 Alpha virt. eigenvalues --    0.82904   0.83207   0.83641   0.84007   0.84853
 Alpha virt. eigenvalues --    0.85260   0.85453   0.85776   0.86290   0.86360
 Alpha virt. eigenvalues --    0.86553   0.87051   0.87337   0.87707   0.88181
 Alpha virt. eigenvalues --    0.88409   0.88951   0.89381   0.89406   0.89697
 Alpha virt. eigenvalues --    0.90042   0.90395   0.90811   0.90934   0.91239
 Alpha virt. eigenvalues --    0.91935   0.92140   0.92333   0.92477   0.92647
 Alpha virt. eigenvalues --    0.93188   0.93256   0.93629   0.93906   0.94065
 Alpha virt. eigenvalues --    0.94111   0.94385   0.94998   0.95281   0.95624
 Alpha virt. eigenvalues --    0.96111   0.96255   0.96780   0.97326   0.97726
 Alpha virt. eigenvalues --    0.97972   0.98514   0.99144   0.99492   0.99640
 Alpha virt. eigenvalues --    1.00270   1.00640   1.01296   1.01599   1.01899
 Alpha virt. eigenvalues --    1.02487   1.03320   1.03594   1.04090   1.04546
 Alpha virt. eigenvalues --    1.05538   1.05704   1.05945   1.06403   1.06605
 Alpha virt. eigenvalues --    1.07286   1.07571   1.07735   1.08116   1.08626
 Alpha virt. eigenvalues --    1.08987   1.09024   1.09171   1.10125   1.10617
 Alpha virt. eigenvalues --    1.10804   1.11134   1.11610   1.12012   1.12105
 Alpha virt. eigenvalues --    1.12939   1.13180   1.13681   1.13953   1.14055
 Alpha virt. eigenvalues --    1.14881   1.15328   1.15579   1.16243   1.16444
 Alpha virt. eigenvalues --    1.16690   1.17200   1.17466   1.17889   1.18309
 Alpha virt. eigenvalues --    1.18792   1.18853   1.19286   1.19473   1.19830
 Alpha virt. eigenvalues --    1.20312   1.20665   1.21344   1.21644   1.21948
 Alpha virt. eigenvalues --    1.22103   1.23080   1.23718   1.24155   1.24939
 Alpha virt. eigenvalues --    1.25884   1.26176   1.26312   1.26437   1.27536
 Alpha virt. eigenvalues --    1.27873   1.28429   1.29120   1.30197   1.30244
 Alpha virt. eigenvalues --    1.30854   1.31712   1.32514   1.33161   1.33289
 Alpha virt. eigenvalues --    1.33629   1.34089   1.34198   1.35209   1.35465
 Alpha virt. eigenvalues --    1.35883   1.36245   1.36785   1.36897   1.36981
 Alpha virt. eigenvalues --    1.37292   1.37682   1.38199   1.38767   1.38970
 Alpha virt. eigenvalues --    1.39269   1.39505   1.39664   1.40232   1.40728
 Alpha virt. eigenvalues --    1.40892   1.41266   1.41472   1.41747   1.42038
 Alpha virt. eigenvalues --    1.42651   1.42876   1.43020   1.43422   1.43528
 Alpha virt. eigenvalues --    1.43921   1.44063   1.44340   1.44884   1.45008
 Alpha virt. eigenvalues --    1.45371   1.45777   1.45859   1.46051   1.46338
 Alpha virt. eigenvalues --    1.46552   1.46644   1.46989   1.47463   1.47820
 Alpha virt. eigenvalues --    1.48014   1.48148   1.48494   1.48848   1.48933
 Alpha virt. eigenvalues --    1.49299   1.49453   1.49918   1.50061   1.50945
 Alpha virt. eigenvalues --    1.51061   1.51324   1.51426   1.51723   1.52096
 Alpha virt. eigenvalues --    1.52282   1.52685   1.52844   1.52968   1.53733
 Alpha virt. eigenvalues --    1.53922   1.54170   1.54475   1.54846   1.55172
 Alpha virt. eigenvalues --    1.55375   1.55525   1.55845   1.56429   1.56599
 Alpha virt. eigenvalues --    1.56963   1.57473   1.57853   1.58110   1.58413
 Alpha virt. eigenvalues --    1.58884   1.59023   1.59429   1.59709   1.60350
 Alpha virt. eigenvalues --    1.60475   1.60834   1.61032   1.61645   1.62290
 Alpha virt. eigenvalues --    1.62684   1.63108   1.63361   1.63667   1.64340
 Alpha virt. eigenvalues --    1.64382   1.64966   1.65603   1.66392   1.67044
 Alpha virt. eigenvalues --    1.68164   1.68758   1.69124   1.70151   1.70428
 Alpha virt. eigenvalues --    1.70819   1.70966   1.71340   1.71855   1.72517
 Alpha virt. eigenvalues --    1.72673   1.72775   1.73680   1.73904   1.74474
 Alpha virt. eigenvalues --    1.74894   1.75213   1.75417   1.76311   1.76566
 Alpha virt. eigenvalues --    1.76830   1.77480   1.77573   1.77948   1.78307
 Alpha virt. eigenvalues --    1.78657   1.79065   1.79198   1.80096   1.80677
 Alpha virt. eigenvalues --    1.81301   1.81607   1.82226   1.82507   1.82859
 Alpha virt. eigenvalues --    1.82935   1.83542   1.84482   1.85466   1.85782
 Alpha virt. eigenvalues --    1.86526   1.86695   1.87175   1.87731   1.87756
 Alpha virt. eigenvalues --    1.88314   1.88571   1.89292   1.89445   1.89923
 Alpha virt. eigenvalues --    1.90270   1.90987   1.91167   1.91429   1.91671
 Alpha virt. eigenvalues --    1.92537   1.93103   1.93473   1.93659   1.94288
 Alpha virt. eigenvalues --    1.94447   1.94625   1.95355   1.96550   1.97241
 Alpha virt. eigenvalues --    1.98151   1.98452   1.98722   1.98902   1.99023
 Alpha virt. eigenvalues --    1.99608   2.00365   2.00631   2.01288   2.01590
 Alpha virt. eigenvalues --    2.01689   2.02427   2.02637   2.03223   2.03383
 Alpha virt. eigenvalues --    2.03825   2.04126   2.04402   2.04746   2.05335
 Alpha virt. eigenvalues --    2.06219   2.06459   2.06743   2.07348   2.07956
 Alpha virt. eigenvalues --    2.08440   2.09041   2.09424   2.09845   2.10399
 Alpha virt. eigenvalues --    2.10813   2.11075   2.11408   2.12077   2.12824
 Alpha virt. eigenvalues --    2.13172   2.14194   2.14480   2.15390   2.15766
 Alpha virt. eigenvalues --    2.16203   2.16630   2.17203   2.17745   2.18092
 Alpha virt. eigenvalues --    2.18287   2.19033   2.19271   2.19577   2.19666
 Alpha virt. eigenvalues --    2.20298   2.20647   2.20898   2.21104   2.21655
 Alpha virt. eigenvalues --    2.22735   2.23267   2.23371   2.23460   2.24637
 Alpha virt. eigenvalues --    2.25053   2.25490   2.26037   2.26546   2.26636
 Alpha virt. eigenvalues --    2.26814   2.27280   2.27862   2.28060   2.28661
 Alpha virt. eigenvalues --    2.28824   2.29292   2.29974   2.30249   2.30473
 Alpha virt. eigenvalues --    2.31060   2.31493   2.31631   2.32437   2.32783
 Alpha virt. eigenvalues --    2.33463   2.33618   2.34393   2.34691   2.35023
 Alpha virt. eigenvalues --    2.35575   2.35682   2.35875   2.36094   2.36849
 Alpha virt. eigenvalues --    2.37254   2.37736   2.37986   2.38567   2.38783
 Alpha virt. eigenvalues --    2.39325   2.39882   2.40312   2.41034   2.41505
 Alpha virt. eigenvalues --    2.41745   2.42522   2.43017   2.43603   2.43791
 Alpha virt. eigenvalues --    2.44135   2.44713   2.44979   2.45525   2.46031
 Alpha virt. eigenvalues --    2.46311   2.46760   2.46864   2.47008   2.47387
 Alpha virt. eigenvalues --    2.47923   2.48137   2.48638   2.49376   2.49548
 Alpha virt. eigenvalues --    2.49810   2.49975   2.50725   2.50931   2.51135
 Alpha virt. eigenvalues --    2.51537   2.52040   2.52186   2.52775   2.53036
 Alpha virt. eigenvalues --    2.53156   2.54010   2.54524   2.54911   2.55162
 Alpha virt. eigenvalues --    2.55575   2.55989   2.56166   2.56726   2.57052
 Alpha virt. eigenvalues --    2.57710   2.57724   2.58321   2.58540   2.59014
 Alpha virt. eigenvalues --    2.59375   2.59476   2.60232   2.60541   2.60893
 Alpha virt. eigenvalues --    2.61059   2.61426   2.62271   2.62657   2.63075
 Alpha virt. eigenvalues --    2.63256   2.63830   2.64381   2.64421   2.64938
 Alpha virt. eigenvalues --    2.65923   2.66273   2.66432   2.66859   2.67272
 Alpha virt. eigenvalues --    2.67998   2.68147   2.68564   2.68705   2.69544
 Alpha virt. eigenvalues --    2.69812   2.70104   2.70156   2.71459   2.71578
 Alpha virt. eigenvalues --    2.72131   2.72668   2.73356   2.73586   2.73936
 Alpha virt. eigenvalues --    2.74408   2.74600   2.74953   2.75662   2.76011
 Alpha virt. eigenvalues --    2.76458   2.76553   2.76876   2.77067   2.77870
 Alpha virt. eigenvalues --    2.78251   2.78860   2.78935   2.79190   2.79488
 Alpha virt. eigenvalues --    2.79799   2.80385   2.80425   2.81012   2.81354
 Alpha virt. eigenvalues --    2.81484   2.82000   2.82856   2.83078   2.83668
 Alpha virt. eigenvalues --    2.83974   2.84455   2.84639   2.85063   2.85454
 Alpha virt. eigenvalues --    2.85891   2.86183   2.86783   2.86860   2.87122
 Alpha virt. eigenvalues --    2.87401   2.87791   2.87866   2.88414   2.88730
 Alpha virt. eigenvalues --    2.89219   2.89260   2.89480   2.90211   2.90767
 Alpha virt. eigenvalues --    2.91151   2.91521   2.92059   2.92355   2.92810
 Alpha virt. eigenvalues --    2.93294   2.93404   2.93807   2.94186   2.94831
 Alpha virt. eigenvalues --    2.95154   2.95654   2.95766   2.96585   2.96860
 Alpha virt. eigenvalues --    2.97040   2.97346   2.97580   2.98019   2.98442
 Alpha virt. eigenvalues --    2.98829   2.99026   2.99500   2.99783   3.00019
 Alpha virt. eigenvalues --    3.00695   3.00753   3.01301   3.01386   3.01519
 Alpha virt. eigenvalues --    3.01730   3.02250   3.02477   3.03060   3.03869
 Alpha virt. eigenvalues --    3.04066   3.04142   3.04234   3.04972   3.05090
 Alpha virt. eigenvalues --    3.05719   3.06284   3.06850   3.06955   3.06983
 Alpha virt. eigenvalues --    3.07520   3.07782   3.08048   3.08208   3.08681
 Alpha virt. eigenvalues --    3.09058   3.09487   3.09588   3.10146   3.10446
 Alpha virt. eigenvalues --    3.10870   3.11192   3.11395   3.11701   3.11955
 Alpha virt. eigenvalues --    3.12136   3.12704   3.13093   3.13123   3.13340
 Alpha virt. eigenvalues --    3.13540   3.14250   3.15029   3.15165   3.15225
 Alpha virt. eigenvalues --    3.15493   3.15687   3.15824   3.16018   3.16328
 Alpha virt. eigenvalues --    3.16558   3.17095   3.17589   3.18048   3.18121
 Alpha virt. eigenvalues --    3.18225   3.18487   3.19059   3.19424   3.19722
 Alpha virt. eigenvalues --    3.19924   3.19951   3.20267   3.20714   3.21000
 Alpha virt. eigenvalues --    3.21120   3.21424   3.21787   3.21897   3.22272
 Alpha virt. eigenvalues --    3.22676   3.22795   3.23192   3.23493   3.23988
 Alpha virt. eigenvalues --    3.24079   3.24354   3.24516   3.24816   3.25168
 Alpha virt. eigenvalues --    3.25233   3.25524   3.25798   3.26067   3.26435
 Alpha virt. eigenvalues --    3.26788   3.27418   3.27798   3.27884   3.28011
 Alpha virt. eigenvalues --    3.28127   3.28417   3.28786   3.28944   3.29371
 Alpha virt. eigenvalues --    3.29641   3.29947   3.29978   3.30394   3.30783
 Alpha virt. eigenvalues --    3.31159   3.31362   3.32365   3.32643   3.33239
 Alpha virt. eigenvalues --    3.33443   3.33635   3.33924   3.34278   3.34446
 Alpha virt. eigenvalues --    3.34792   3.35588   3.36131   3.36367   3.36744
 Alpha virt. eigenvalues --    3.37174   3.37567   3.38127   3.38575   3.39099
 Alpha virt. eigenvalues --    3.39466   3.39851   3.40404   3.40825   3.41337
 Alpha virt. eigenvalues --    3.41837   3.42479   3.42704   3.43288   3.43540
 Alpha virt. eigenvalues --    3.44041   3.44314   3.45034   3.45369   3.45493
 Alpha virt. eigenvalues --    3.46086   3.46741   3.47290   3.47603   3.47946
 Alpha virt. eigenvalues --    3.48631   3.48804   3.49318   3.50058   3.50232
 Alpha virt. eigenvalues --    3.50594   3.51204   3.51687   3.52232   3.52814
 Alpha virt. eigenvalues --    3.53249   3.53803   3.54423   3.54892   3.55264
 Alpha virt. eigenvalues --    3.55741   3.55986   3.56441   3.57043   3.57350
 Alpha virt. eigenvalues --    3.58455   3.58617   3.59022   3.59137   3.59658
 Alpha virt. eigenvalues --    3.60216   3.60313   3.61052   3.61453   3.62116
 Alpha virt. eigenvalues --    3.62521   3.62879   3.63091   3.63410   3.63554
 Alpha virt. eigenvalues --    3.64004   3.64260   3.64594   3.65186   3.65465
 Alpha virt. eigenvalues --    3.65754   3.66558   3.67437   3.67974   3.68310
 Alpha virt. eigenvalues --    3.68652   3.69288   3.69448   3.69999   3.70743
 Alpha virt. eigenvalues --    3.71247   3.71657   3.72109   3.73303   3.73860
 Alpha virt. eigenvalues --    3.74034   3.74512   3.75413   3.76075   3.76592
 Alpha virt. eigenvalues --    3.76857   3.78147   3.78230   3.78971   3.79263
 Alpha virt. eigenvalues --    3.79793   3.80256   3.80484   3.80949   3.81385
 Alpha virt. eigenvalues --    3.82165   3.82387   3.82915   3.83470   3.83750
 Alpha virt. eigenvalues --    3.84672   3.85869   3.86051   3.86826   3.87138
 Alpha virt. eigenvalues --    3.88163   3.88485   3.89177   3.89237   3.89287
 Alpha virt. eigenvalues --    3.90239   3.90428   3.90952   3.91797   3.92785
 Alpha virt. eigenvalues --    3.93309   3.93836   3.94661   3.95277   3.95403
 Alpha virt. eigenvalues --    3.96316   3.97116   3.97860   3.98862   3.99650
 Alpha virt. eigenvalues --    3.99959   4.00454   4.01017   4.01396   4.01557
 Alpha virt. eigenvalues --    4.02976   4.03325   4.03926   4.04234   4.04865
 Alpha virt. eigenvalues --    4.05832   4.06177   4.06834   4.07433   4.07811
 Alpha virt. eigenvalues --    4.08643   4.09175   4.09454   4.09834   4.10040
 Alpha virt. eigenvalues --    4.10252   4.10964   4.11734   4.12427   4.12872
 Alpha virt. eigenvalues --    4.13443   4.13995   4.14607   4.15117   4.15799
 Alpha virt. eigenvalues --    4.16356   4.16847   4.18814   4.19240   4.20227
 Alpha virt. eigenvalues --    4.20769   4.20811   4.21210   4.22587   4.22978
 Alpha virt. eigenvalues --    4.23214   4.24207   4.24463   4.25224   4.25877
 Alpha virt. eigenvalues --    4.26454   4.27092   4.27907   4.28385   4.29654
 Alpha virt. eigenvalues --    4.30005   4.30316   4.30805   4.30992   4.31398
 Alpha virt. eigenvalues --    4.32124   4.32528   4.32591   4.33170   4.33837
 Alpha virt. eigenvalues --    4.34775   4.35415   4.35665   4.35689   4.36116
 Alpha virt. eigenvalues --    4.36733   4.37362   4.37712   4.39421   4.41078
 Alpha virt. eigenvalues --    4.41396   4.42362   4.43291   4.43449   4.44743
 Alpha virt. eigenvalues --    4.45463   4.45922   4.46648   4.47801   4.48322
 Alpha virt. eigenvalues --    4.49053   4.51045   4.51740   4.52580   4.53369
 Alpha virt. eigenvalues --    4.54620   4.54974   4.57328   4.57958   4.58061
 Alpha virt. eigenvalues --    4.58533   4.59015   4.59942   4.60828   4.61856
 Alpha virt. eigenvalues --    4.62068   4.63420   4.64386   4.64647   4.65224
 Alpha virt. eigenvalues --    4.66648   4.67184   4.67391   4.68610   4.70669
 Alpha virt. eigenvalues --    4.71334   4.72107   4.72411   4.72856   4.73128
 Alpha virt. eigenvalues --    4.73592   4.74391   4.74640   4.75127   4.75694
 Alpha virt. eigenvalues --    4.76852   4.77470   4.78776   4.78983   4.79661
 Alpha virt. eigenvalues --    4.81822   4.82352   4.82930   4.83654   4.84145
 Alpha virt. eigenvalues --    4.84942   4.85443   4.85972   4.86442   4.88427
 Alpha virt. eigenvalues --    4.89579   4.89982   4.91083   4.91406   4.92502
 Alpha virt. eigenvalues --    4.92939   4.93279   4.95289   4.95556   4.96483
 Alpha virt. eigenvalues --    4.96997   4.98228   4.98588   4.98963   4.99672
 Alpha virt. eigenvalues --    5.03059   5.03632   5.04746   5.06618   5.07523
 Alpha virt. eigenvalues --    5.07978   5.09018   5.09641   5.09935   5.11671
 Alpha virt. eigenvalues --    5.12437   5.13240   5.13653   5.14542   5.15227
 Alpha virt. eigenvalues --    5.17550   5.18043   5.19152   5.21448   5.23724
 Alpha virt. eigenvalues --    5.24283   5.25302   5.25534   5.26536   5.26698
 Alpha virt. eigenvalues --    5.27921   5.28284   5.28930   5.29593   5.31223
 Alpha virt. eigenvalues --    5.31672   5.32988   5.35478   5.36879   5.38286
 Alpha virt. eigenvalues --    5.38917   5.39772   5.40022   5.40365   5.41671
 Alpha virt. eigenvalues --    5.44526   5.45155   5.47773   5.50347   5.50515
 Alpha virt. eigenvalues --    5.51177   5.52150   5.52811   5.54636   5.54869
 Alpha virt. eigenvalues --    5.56016   5.56501   5.57214   5.58315   5.61408
 Alpha virt. eigenvalues --    5.65680   5.66234   5.66794   5.68991   5.70375
 Alpha virt. eigenvalues --    5.76680   5.79531   5.80148   5.82778   5.85321
 Alpha virt. eigenvalues --    5.89618   5.90448   5.90837   5.97130   5.98286
 Alpha virt. eigenvalues --    6.00269   6.00969   6.01985   6.05151   6.07114
 Alpha virt. eigenvalues --    6.12487   6.15234   6.22639   6.23252   6.29608
 Alpha virt. eigenvalues --    6.35663   6.40495   6.42510   6.53781   6.85476
 Alpha virt. eigenvalues --    7.17286  22.26903  22.27909  22.34786  22.36698
 Alpha virt. eigenvalues --   22.37469  22.42890  22.43790  22.52731  22.53562
 Alpha virt. eigenvalues --   22.66750  22.75802  22.77989  22.82259  22.83592
 Alpha virt. eigenvalues --   22.84365  22.85349  22.86931  22.93394  22.93779
 Alpha virt. eigenvalues --   22.96714  23.04677  23.16620  23.17588  23.19424
 Alpha virt. eigenvalues --   23.20641  23.30247  23.31123  23.40151  23.40622
 Alpha virt. eigenvalues --   23.45230  23.63657  23.68523  23.69368  23.78542
 Alpha virt. eigenvalues --   32.29408  32.62236  32.78361  32.86737  32.90163
 Alpha virt. eigenvalues --   33.01648  43.93328
  Beta  occ. eigenvalues -- -256.42229 -30.23623 -26.08242 -26.08112 -26.08086
  Beta  occ. eigenvalues --  -19.28533 -14.52916 -14.47833 -14.44852 -14.44588
  Beta  occ. eigenvalues --  -14.44461 -14.44366 -10.37513 -10.34698 -10.32784
  Beta  occ. eigenvalues --  -10.32772 -10.32748 -10.32693 -10.32659 -10.32530
  Beta  occ. eigenvalues --  -10.32472 -10.32471 -10.32173 -10.30193 -10.29875
  Beta  occ. eigenvalues --  -10.29804 -10.29790 -10.29784 -10.29682 -10.29556
  Beta  occ. eigenvalues --  -10.29525 -10.29493 -10.29479 -10.29477 -10.29476
  Beta  occ. eigenvalues --  -10.29412 -10.28792 -10.28788 -10.28171 -10.28066
  Beta  occ. eigenvalues --  -10.27889 -10.27859 -10.27732 -10.27606 -10.27434
  Beta  occ. eigenvalues --  -10.27425  -3.55821  -2.31086  -2.30743  -2.30683
  Beta  occ. eigenvalues --   -1.16732  -1.16487  -1.08713  -1.07787  -1.07543
  Beta  occ. eigenvalues --   -1.06647  -1.02531  -0.93524  -0.92197  -0.91922
  Beta  occ. eigenvalues --   -0.91477  -0.91118  -0.90720  -0.90675  -0.90623
  Beta  occ. eigenvalues --   -0.86768  -0.85534  -0.85242  -0.84377  -0.83051
  Beta  occ. eigenvalues --   -0.82261  -0.81200  -0.80177  -0.78644  -0.78400
  Beta  occ. eigenvalues --   -0.78158  -0.75896  -0.75145  -0.75073  -0.72483
  Beta  occ. eigenvalues --   -0.72106  -0.70660  -0.70050  -0.68895  -0.68021
  Beta  occ. eigenvalues --   -0.67033  -0.65224  -0.64469  -0.63582  -0.63434
  Beta  occ. eigenvalues --   -0.61879  -0.61843  -0.61361  -0.59347  -0.59036
  Beta  occ. eigenvalues --   -0.58464  -0.58338  -0.58096  -0.56068  -0.55427
  Beta  occ. eigenvalues --   -0.55064  -0.54658  -0.54485  -0.54004  -0.53835
  Beta  occ. eigenvalues --   -0.53696  -0.53358  -0.53322  -0.53211  -0.53035
  Beta  occ. eigenvalues --   -0.52443  -0.52194  -0.52130  -0.52073  -0.51468
  Beta  occ. eigenvalues --   -0.50883  -0.50628  -0.50367  -0.50226  -0.50131
  Beta  occ. eigenvalues --   -0.49806  -0.49780  -0.49637  -0.49481  -0.49037
  Beta  occ. eigenvalues --   -0.48646  -0.48292  -0.48075  -0.47818  -0.47731
  Beta  occ. eigenvalues --   -0.47468  -0.46994  -0.46570  -0.46160  -0.45873
  Beta  occ. eigenvalues --   -0.45433  -0.45004  -0.44307  -0.43785  -0.43278
  Beta  occ. eigenvalues --   -0.42894  -0.42743  -0.41765  -0.41155  -0.39773
  Beta  occ. eigenvalues --   -0.39560  -0.37774  -0.37593  -0.35257  -0.34341
  Beta  occ. eigenvalues --   -0.33984  -0.32697  -0.32248  -0.29879  -0.28856
  Beta virt. eigenvalues --   -0.21088  -0.20918  -0.19568  -0.16722  -0.16660
  Beta virt. eigenvalues --   -0.14295  -0.12087  -0.11565  -0.09525  -0.08720
  Beta virt. eigenvalues --   -0.07670  -0.07156  -0.05942  -0.05809  -0.05509
  Beta virt. eigenvalues --   -0.04223  -0.03977  -0.03182  -0.02755  -0.02526
  Beta virt. eigenvalues --   -0.02117  -0.01893  -0.01495  -0.00863  -0.00428
  Beta virt. eigenvalues --   -0.00101   0.00123   0.00271   0.00817   0.01068
  Beta virt. eigenvalues --    0.01554   0.02017   0.02265   0.02610   0.02754
  Beta virt. eigenvalues --    0.02867   0.03371   0.03392   0.03448   0.03691
  Beta virt. eigenvalues --    0.03784   0.04071   0.04135   0.04480   0.04685
  Beta virt. eigenvalues --    0.04766   0.04925   0.05240   0.05390   0.05728
  Beta virt. eigenvalues --    0.05808   0.06213   0.06607   0.06852   0.07049
  Beta virt. eigenvalues --    0.07281   0.07411   0.07703   0.07903   0.08095
  Beta virt. eigenvalues --    0.08349   0.08589   0.08797   0.08819   0.09219
  Beta virt. eigenvalues --    0.09652   0.09996   0.10232   0.10482   0.10745
  Beta virt. eigenvalues --    0.10992   0.11099   0.11330   0.11515   0.11748
  Beta virt. eigenvalues --    0.12121   0.12443   0.12984   0.13038   0.13191
  Beta virt. eigenvalues --    0.13522   0.13764   0.13948   0.14242   0.14453
  Beta virt. eigenvalues --    0.14820   0.15218   0.15458   0.15815   0.16334
  Beta virt. eigenvalues --    0.16539   0.16744   0.16998   0.17188   0.17341
  Beta virt. eigenvalues --    0.17525   0.17718   0.17831   0.17909   0.18448
  Beta virt. eigenvalues --    0.18816   0.19590   0.19786   0.19970   0.20160
  Beta virt. eigenvalues --    0.20367   0.20497   0.20806   0.21107   0.21299
  Beta virt. eigenvalues --    0.21535   0.21821   0.22034   0.22158   0.22459
  Beta virt. eigenvalues --    0.22653   0.23155   0.23444   0.23795   0.24140
  Beta virt. eigenvalues --    0.24241   0.24339   0.24509   0.24902   0.25101
  Beta virt. eigenvalues --    0.25477   0.25736   0.25805   0.25988   0.26479
  Beta virt. eigenvalues --    0.27047   0.27274   0.27421   0.27595   0.27963
  Beta virt. eigenvalues --    0.28580   0.28711   0.29060   0.29212   0.29445
  Beta virt. eigenvalues --    0.29632   0.29893   0.30002   0.30312   0.30586
  Beta virt. eigenvalues --    0.30786   0.30898   0.31428   0.31552   0.31692
  Beta virt. eigenvalues --    0.31770   0.32219   0.32358   0.32517   0.32673
  Beta virt. eigenvalues --    0.32841   0.33092   0.33280   0.33531   0.33867
  Beta virt. eigenvalues --    0.33996   0.34161   0.34475   0.34954   0.35074
  Beta virt. eigenvalues --    0.35498   0.35682   0.35864   0.36002   0.36212
  Beta virt. eigenvalues --    0.36568   0.36836   0.37067   0.37275   0.37530
  Beta virt. eigenvalues --    0.37687   0.37938   0.38142   0.38287   0.38402
  Beta virt. eigenvalues --    0.38737   0.39045   0.39225   0.39307   0.39560
  Beta virt. eigenvalues --    0.39760   0.39939   0.40312   0.40640   0.40717
  Beta virt. eigenvalues --    0.40973   0.41098   0.41262   0.41506   0.41901
  Beta virt. eigenvalues --    0.42021   0.42245   0.42470   0.42698   0.42890
  Beta virt. eigenvalues --    0.43092   0.43157   0.43545   0.43873   0.44021
  Beta virt. eigenvalues --    0.44115   0.44316   0.44711   0.44999   0.45255
  Beta virt. eigenvalues --    0.45366   0.45520   0.45759   0.46320   0.46540
  Beta virt. eigenvalues --    0.46649   0.46901   0.47162   0.47349   0.47673
  Beta virt. eigenvalues --    0.47809   0.48235   0.48271   0.48445   0.48772
  Beta virt. eigenvalues --    0.49131   0.49427   0.49752   0.50288   0.50493
  Beta virt. eigenvalues --    0.50661   0.51043   0.51504   0.51708   0.52262
  Beta virt. eigenvalues --    0.52348   0.52609   0.52756   0.53374   0.53420
  Beta virt. eigenvalues --    0.54087   0.54116   0.54644   0.54726   0.55198
  Beta virt. eigenvalues --    0.55564   0.55679   0.55839   0.56130   0.56254
  Beta virt. eigenvalues --    0.56565   0.57102   0.57276   0.57434   0.57754
  Beta virt. eigenvalues --    0.57958   0.58364   0.58933   0.59281   0.59768
  Beta virt. eigenvalues --    0.59940   0.60375   0.60518   0.60947   0.61497
  Beta virt. eigenvalues --    0.61671   0.61885   0.62184   0.62339   0.62853
  Beta virt. eigenvalues --    0.63064   0.63392   0.63659   0.63970   0.64134
  Beta virt. eigenvalues --    0.64375   0.64810   0.65209   0.65628   0.66299
  Beta virt. eigenvalues --    0.66449   0.66950   0.67040   0.67392   0.67670
  Beta virt. eigenvalues --    0.67894   0.68319   0.68784   0.69046   0.69510
  Beta virt. eigenvalues --    0.69537   0.69784   0.70129   0.70453   0.71010
  Beta virt. eigenvalues --    0.71473   0.71901   0.71983   0.72244   0.72625
  Beta virt. eigenvalues --    0.72906   0.73982   0.74167   0.74285   0.74861
  Beta virt. eigenvalues --    0.75309   0.75368   0.76434   0.76739   0.77083
  Beta virt. eigenvalues --    0.77230   0.77491   0.77934   0.78589   0.78936
  Beta virt. eigenvalues --    0.79265   0.79719   0.80159   0.80597   0.80872
  Beta virt. eigenvalues --    0.81085   0.81240   0.81930   0.82560   0.82865
  Beta virt. eigenvalues --    0.83012   0.83352   0.83726   0.84384   0.85000
  Beta virt. eigenvalues --    0.85355   0.85585   0.85935   0.86393   0.86570
  Beta virt. eigenvalues --    0.86768   0.87192   0.87550   0.87825   0.88351
  Beta virt. eigenvalues --    0.88731   0.89034   0.89489   0.89660   0.89823
  Beta virt. eigenvalues --    0.90190   0.90572   0.90962   0.91198   0.91434
  Beta virt. eigenvalues --    0.92128   0.92292   0.92448   0.92629   0.92875
  Beta virt. eigenvalues --    0.93322   0.93438   0.93768   0.94044   0.94181
  Beta virt. eigenvalues --    0.94437   0.94616   0.95122   0.95781   0.96093
  Beta virt. eigenvalues --    0.96355   0.96757   0.97105   0.97490   0.97985
  Beta virt. eigenvalues --    0.98244   0.98694   0.99279   0.99817   1.00101
  Beta virt. eigenvalues --    1.00745   1.00966   1.01649   1.01964   1.02197
  Beta virt. eigenvalues --    1.02711   1.03664   1.03840   1.04476   1.04731
  Beta virt. eigenvalues --    1.05806   1.05947   1.06326   1.06550   1.06770
  Beta virt. eigenvalues --    1.07378   1.07799   1.07902   1.08314   1.08923
  Beta virt. eigenvalues --    1.09135   1.09155   1.09354   1.10292   1.10879
  Beta virt. eigenvalues --    1.11162   1.11294   1.11998   1.12296   1.12622
  Beta virt. eigenvalues --    1.13138   1.13471   1.13772   1.14267   1.14543
  Beta virt. eigenvalues --    1.15179   1.15447   1.16043   1.16611   1.16711
  Beta virt. eigenvalues --    1.16909   1.17314   1.17694   1.18188   1.18836
  Beta virt. eigenvalues --    1.18950   1.19023   1.19460   1.19627   1.20136
  Beta virt. eigenvalues --    1.20545   1.20752   1.21554   1.21816   1.22202
  Beta virt. eigenvalues --    1.22251   1.23401   1.23890   1.24341   1.25196
  Beta virt. eigenvalues --    1.26137   1.26332   1.26626   1.26660   1.27693
  Beta virt. eigenvalues --    1.28123   1.28631   1.29321   1.30368   1.30479
  Beta virt. eigenvalues --    1.31061   1.31960   1.32766   1.33308   1.33456
  Beta virt. eigenvalues --    1.33780   1.34259   1.34412   1.35440   1.35674
  Beta virt. eigenvalues --    1.36098   1.36611   1.36969   1.37046   1.37276
  Beta virt. eigenvalues --    1.37506   1.37914   1.38347   1.38865   1.39065
  Beta virt. eigenvalues --    1.39481   1.39694   1.39847   1.40346   1.40889
  Beta virt. eigenvalues --    1.41074   1.41387   1.41881   1.41971   1.42259
  Beta virt. eigenvalues --    1.42764   1.42993   1.43162   1.43634   1.43930
  Beta virt. eigenvalues --    1.44056   1.44363   1.44561   1.44947   1.45112
  Beta virt. eigenvalues --    1.45422   1.45891   1.46004   1.46277   1.46396
  Beta virt. eigenvalues --    1.46667   1.46721   1.47069   1.47560   1.47951
  Beta virt. eigenvalues --    1.48121   1.48258   1.48592   1.48914   1.49012
  Beta virt. eigenvalues --    1.49401   1.49553   1.49994   1.50196   1.51073
  Beta virt. eigenvalues --    1.51190   1.51402   1.51559   1.51816   1.52247
  Beta virt. eigenvalues --    1.52363   1.52769   1.52954   1.53107   1.53812
  Beta virt. eigenvalues --    1.54015   1.54235   1.54592   1.55063   1.55284
  Beta virt. eigenvalues --    1.55524   1.55610   1.55981   1.56566   1.56675
  Beta virt. eigenvalues --    1.57038   1.57573   1.58011   1.58220   1.58499
  Beta virt. eigenvalues --    1.59033   1.59155   1.59549   1.59845   1.60459
  Beta virt. eigenvalues --    1.60575   1.60897   1.61093   1.61853   1.62405
  Beta virt. eigenvalues --    1.62760   1.63170   1.63533   1.63789   1.64453
  Beta virt. eigenvalues --    1.64571   1.65072   1.65868   1.66497   1.67172
  Beta virt. eigenvalues --    1.68327   1.68848   1.69245   1.70298   1.70552
  Beta virt. eigenvalues --    1.70967   1.71102   1.71474   1.71954   1.72647
  Beta virt. eigenvalues --    1.72789   1.72873   1.73812   1.74182   1.74576
  Beta virt. eigenvalues --    1.75002   1.75342   1.75652   1.76442   1.76649
  Beta virt. eigenvalues --    1.76972   1.77575   1.77669   1.78044   1.78416
  Beta virt. eigenvalues --    1.78737   1.79189   1.79348   1.80267   1.81021
  Beta virt. eigenvalues --    1.81545   1.81783   1.82401   1.82986   1.83041
  Beta virt. eigenvalues --    1.83239   1.83883   1.84782   1.85569   1.85876
  Beta virt. eigenvalues --    1.86676   1.86920   1.87343   1.87987   1.88174
  Beta virt. eigenvalues --    1.88588   1.88726   1.89494   1.89584   1.90123
  Beta virt. eigenvalues --    1.90660   1.91150   1.91268   1.91574   1.91751
  Beta virt. eigenvalues --    1.92661   1.93343   1.93671   1.93884   1.94539
  Beta virt. eigenvalues --    1.94628   1.95127   1.95831   1.96818   1.97401
  Beta virt. eigenvalues --    1.98325   1.98550   1.98967   1.99109   1.99205
  Beta virt. eigenvalues --    1.99923   2.00436   2.00777   2.01420   2.01744
  Beta virt. eigenvalues --    2.01892   2.02631   2.02960   2.03470   2.03748
  Beta virt. eigenvalues --    2.04144   2.04231   2.04656   2.05106   2.05712
  Beta virt. eigenvalues --    2.06425   2.06721   2.06958   2.07461   2.08181
  Beta virt. eigenvalues --    2.08608   2.09120   2.09628   2.09990   2.10591
  Beta virt. eigenvalues --    2.10931   2.11306   2.11564   2.12276   2.12955
  Beta virt. eigenvalues --    2.13396   2.14409   2.14639   2.15511   2.15858
  Beta virt. eigenvalues --    2.16317   2.16731   2.17320   2.17845   2.18190
  Beta virt. eigenvalues --    2.18550   2.19226   2.19447   2.19747   2.20098
  Beta virt. eigenvalues --    2.20576   2.20909   2.21042   2.21315   2.21799
  Beta virt. eigenvalues --    2.22825   2.23413   2.23510   2.23611   2.24716
  Beta virt. eigenvalues --    2.25210   2.25599   2.26162   2.26724   2.26775
  Beta virt. eigenvalues --    2.26939   2.27417   2.27907   2.28145   2.28825
  Beta virt. eigenvalues --    2.28956   2.29427   2.30059   2.30375   2.30693
  Beta virt. eigenvalues --    2.31286   2.31658   2.31818   2.32856   2.33003
  Beta virt. eigenvalues --    2.33813   2.33956   2.34632   2.35127   2.35195
  Beta virt. eigenvalues --    2.35830   2.36010   2.36064   2.36267   2.37062
  Beta virt. eigenvalues --    2.37524   2.37992   2.38423   2.38819   2.38935
  Beta virt. eigenvalues --    2.39460   2.40149   2.40647   2.41270   2.41892
  Beta virt. eigenvalues --    2.42540   2.42775   2.43114   2.43698   2.43925
  Beta virt. eigenvalues --    2.44286   2.44994   2.45190   2.45670   2.46229
  Beta virt. eigenvalues --    2.46452   2.46891   2.47121   2.47372   2.47622
  Beta virt. eigenvalues --    2.48115   2.48269   2.49024   2.49494   2.49690
  Beta virt. eigenvalues --    2.50104   2.50248   2.50846   2.51080   2.51307
  Beta virt. eigenvalues --    2.51691   2.52259   2.52387   2.52893   2.53187
  Beta virt. eigenvalues --    2.53383   2.54449   2.54649   2.55117   2.55411
  Beta virt. eigenvalues --    2.55736   2.56211   2.56373   2.56954   2.57266
  Beta virt. eigenvalues --    2.57812   2.57914   2.58511   2.58702   2.59146
  Beta virt. eigenvalues --    2.59497   2.59607   2.60405   2.60776   2.61085
  Beta virt. eigenvalues --    2.61257   2.61635   2.62442   2.62816   2.63307
  Beta virt. eigenvalues --    2.63500   2.64248   2.64606   2.64866   2.65096
  Beta virt. eigenvalues --    2.66179   2.66418   2.66678   2.67064   2.67570
  Beta virt. eigenvalues --    2.68115   2.68330   2.68664   2.68944   2.69694
  Beta virt. eigenvalues --    2.69927   2.70223   2.70448   2.71632   2.71946
  Beta virt. eigenvalues --    2.72433   2.72958   2.73468   2.73776   2.74242
  Beta virt. eigenvalues --    2.74612   2.74782   2.75217   2.75755   2.76158
  Beta virt. eigenvalues --    2.76586   2.76718   2.77085   2.77267   2.78246
  Beta virt. eigenvalues --    2.78452   2.79047   2.79217   2.79375   2.79683
  Beta virt. eigenvalues --    2.79974   2.80518   2.80680   2.81416   2.81675
  Beta virt. eigenvalues --    2.81943   2.82112   2.83031   2.83263   2.83868
  Beta virt. eigenvalues --    2.84142   2.84617   2.84764   2.85182   2.85653
  Beta virt. eigenvalues --    2.86030   2.86339   2.87017   2.87087   2.87286
  Beta virt. eigenvalues --    2.87676   2.87985   2.88090   2.88589   2.88788
  Beta virt. eigenvalues --    2.89374   2.89473   2.89660   2.90498   2.90948
  Beta virt. eigenvalues --    2.91233   2.91599   2.92307   2.92445   2.92907
  Beta virt. eigenvalues --    2.93432   2.93776   2.93942   2.94401   2.94954
  Beta virt. eigenvalues --    2.95305   2.95746   2.95925   2.96745   2.96993
  Beta virt. eigenvalues --    2.97153   2.97487   2.97690   2.98120   2.98575
  Beta virt. eigenvalues --    2.98979   2.99137   2.99671   2.99869   3.00221
  Beta virt. eigenvalues --    3.00875   3.00998   3.01452   3.01475   3.01710
  Beta virt. eigenvalues --    3.01839   3.02327   3.02590   3.03215   3.04002
  Beta virt. eigenvalues --    3.04183   3.04260   3.04350   3.05130   3.05176
  Beta virt. eigenvalues --    3.05858   3.06429   3.06993   3.07055   3.07114
  Beta virt. eigenvalues --    3.07627   3.07931   3.08261   3.08317   3.08754
  Beta virt. eigenvalues --    3.09225   3.09585   3.09703   3.10319   3.10554
  Beta virt. eigenvalues --    3.10999   3.11331   3.11490   3.11816   3.12114
  Beta virt. eigenvalues --    3.12277   3.12819   3.13191   3.13261   3.13466
  Beta virt. eigenvalues --    3.13808   3.14402   3.15173   3.15266   3.15340
  Beta virt. eigenvalues --    3.15624   3.15810   3.15954   3.16149   3.16434
  Beta virt. eigenvalues --    3.16690   3.17237   3.17727   3.18175   3.18246
  Beta virt. eigenvalues --    3.18346   3.18664   3.19185   3.19545   3.19815
  Beta virt. eigenvalues --    3.20016   3.20076   3.20351   3.20809   3.21093
  Beta virt. eigenvalues --    3.21179   3.21491   3.21890   3.22028   3.22390
  Beta virt. eigenvalues --    3.22753   3.22924   3.23284   3.23621   3.24132
  Beta virt. eigenvalues --    3.24275   3.24465   3.24690   3.24962   3.25358
  Beta virt. eigenvalues --    3.25375   3.25680   3.25938   3.26188   3.26563
  Beta virt. eigenvalues --    3.26919   3.27553   3.27892   3.28055   3.28199
  Beta virt. eigenvalues --    3.28233   3.28501   3.28883   3.29105   3.29516
  Beta virt. eigenvalues --    3.29780   3.30070   3.30166   3.30866   3.30979
  Beta virt. eigenvalues --    3.31317   3.31582   3.32534   3.32793   3.33569
  Beta virt. eigenvalues --    3.33733   3.33827   3.34077   3.34384   3.34593
  Beta virt. eigenvalues --    3.34917   3.35827   3.36505   3.36698   3.36864
  Beta virt. eigenvalues --    3.37407   3.37846   3.38293   3.38841   3.39330
  Beta virt. eigenvalues --    3.39698   3.40095   3.40565   3.41031   3.41538
  Beta virt. eigenvalues --    3.42016   3.42827   3.43067   3.43607   3.43668
  Beta virt. eigenvalues --    3.44401   3.44692   3.45230   3.45602   3.45676
  Beta virt. eigenvalues --    3.46386   3.46972   3.47568   3.47990   3.48322
  Beta virt. eigenvalues --    3.48995   3.49080   3.49620   3.50260   3.50535
  Beta virt. eigenvalues --    3.50972   3.51487   3.51910   3.52502   3.53123
  Beta virt. eigenvalues --    3.53968   3.54354   3.54851   3.55050   3.55641
[...]
  1442. BD*(   2) N   4 - C  14          0.32868    -0.09430  1464(v),1468(v),1473(v)
                                                    154(v),500(g),240(g),155(v)
                                                    766(v),1527(r),1429(r)
                                                    1529(r),1445(r),1516(r)
  1443. BD*(   1) N   4 - C  17          0.01330     0.40049   
  1444. BD*(   1) N   5 - C  18          0.01391     0.40241   
  1445. BD*(   2) N   5 - C  18          0.32569    -0.09644  1473(v),1482(v),1477(v)
                                                    153(v),156(v),604(g),267(g)
                                                    155(v),797(v),154(v),1439(r)
                                                    266(g)
  1446. BD*(   1) N   5 - C  21          0.01381     0.40103   
  1447. BD*(   1) C   6 - C   7          0.01719     0.38424   
  1448. BD*(   1) C   6 - C  22          0.01011     0.46707   
  1449. BD*(   1) C   7 - C   8          0.01168     0.49149   
  1450. BD*(   2) C   7 - C   8          0.12177    -0.03418  1455(v),1436(v),1487(v)
                                                    1491(v),1489(v),1490(v)
  1451. BD*(   1) C   7 - C  34          0.00807     0.31692   
  1452. BD*(   1) C   8 - C   9          0.01760     0.37502   
  1453. BD*(   1) C   8 - C  30          0.00825     0.31415   
  1454. BD*(   1) C   9 - C  24          0.01029     0.46194   
  1455. BD*(   2) C   9 - C  24          0.20120    -0.06271  1439(v),1450(v),1436(v)
                                                    736(g),372(g),1482(r)
                                                    1464(r)
  1456. BD*(   1) C  10 - C  11          0.01704     0.39246   
  1457. BD*(   1) C  10 - C  24          0.01046     0.45657   
  1458. BD*(   1) C  11 - C  12          0.01240     0.49099   
  1459. BD*(   2) C  11 - C  12          0.13705    -0.03397  1498(v),1464(v),1439(v)
                                                    1494(v),1493(v)
  1460. BD*(   1) C  11 - C  38          0.00777     0.32110   
  1461. BD*(   1) C  12 - C  13          0.01689     0.38096   
  1462. BD*(   1) C  12 - C  42          0.01321     0.40246   
  1463. BD*(   1) C  13 - C  26          0.01007     0.47292   
  1464. BD*(   2) C  13 - C  26          0.19143    -0.05514  1442(v),1459(v),1439(v)
                                                    766(g),1473(r),476(g)
  1465. BD*(   1) C  14 - C  15          0.01680     0.41601   
  1466. BD*(   1) C  14 - C  26          0.01034     0.46825   
  1467. BD*(   1) C  15 - C  16          0.01249     0.49163   
  1468. BD*(   2) C  15 - C  16          0.13761    -0.03480  1506(v),1473(v),1442(v)
                                                    1501(v),1502(v)
  1469. BD*(   1) C  15 - C  47          0.00766     0.32222   
  1470. BD*(   1) C  16 - C  17          0.01696     0.38231   
  1471. BD*(   1) C  16 - C  51          0.01326     0.40165   
  1472. BD*(   1) C  17 - C  28          0.01009     0.46644   
  1473. BD*(   2) C  17 - C  28          0.20008    -0.05900  1445(v),1468(v),1442(v)
                                                    797(g),1482(r),1464(r)
                                                    580(g)
  1474. BD*(   1) C  18 - C  19          0.01765     0.37646   
  1475. BD*(   1) C  18 - C  28          0.01036     0.46826   
  1476. BD*(   1) C  19 - C  20          0.01162     0.49723   
  1477. BD*(   2) C  19 - C  20          0.11780    -0.02991  1482(v),1445(v),1509(v)
                                                    1513(v),1514(v)
  1478. BD*(   1) C  19 - C  56          0.00828     0.31785   
  1479. BD*(   1) C  20 - C  21          0.01727     0.39088   
  1480. BD*(   1) C  20 - C  60          0.00813     0.31943   
  1481. BD*(   1) C  21 - C  22          0.01001     0.46839   
  1482. BD*(   2) C  21 - C  22          0.19625    -0.05701  1436(v),1477(v),1445(v)
                                                    705(g),1473(r),683(g)
                                                    1455(r)
  1483. BD*(   1) C  22 - H  23          0.00610     0.33168   
  1484. BD*(   1) C  24 - H  25          0.00639     0.33212   
  1485. BD*(   1) C  26 - H  27          0.00653     0.33217   
  1486. BD*(   1) C  28 - H  29          0.00653     0.33478   
  1487. BD*(   1) C  30 - H  31          0.00465     0.29274   
  1488. BD*(   1) C  30 - H  32          0.00299     0.30340   
  1489. BD*(   1) C  30 - H  33          0.00437     0.29061   
  1490. BD*(   1) C  34 - H  35          0.00436     0.29197   
  1491. BD*(   1) C  34 - H  36          0.00460     0.29196   
  1492. BD*(   1) C  34 - H  37          0.00299     0.30470   
  1493. BD*(   1) C  38 - H  39          0.00440     0.29742   
  1494. BD*(   1) C  38 - H  40          0.00535     0.29028   
  1495. BD*(   1) C  38 - H  41          0.00379     0.30769   
  1496. BD*(   1) C  42 - H  43          0.01032     0.33507   
  1497. BD*(   1) C  42 - C  44          0.00366     0.55158   
  1498. BD*(   2) C  42 - C  44          0.03015    -0.02746   
  1499. BD*(   1) C  44 - H  45          0.00516     0.34995   
  1500. BD*(   1) C  44 - H  46          0.00384     0.35506   
  1501. BD*(   1) C  47 - H  48          0.00528     0.29224   
  1502. BD*(   1) C  47 - H  49          0.00431     0.29898   
  1503. BD*(   1) C  47 - H  50          0.00371     0.30740   
  1504. BD*(   1) C  51 - H  52          0.01036     0.33395   
  1505. BD*(   1) C  51 - C  53          0.00364     0.54357   
  1506. BD*(   2) C  51 - C  53          0.02940    -0.02821   
  1507. BD*(   1) C  53 - H  54          0.00512     0.37604   
  1508. BD*(   1) C  53 - H  55          0.00383     0.41276   
  1509. BD*(   1) C  56 - H  57          0.00456     0.34400   
  1510. BD*(   1) C  56 - H  58          0.00447     0.41521   
  1511. BD*(   1) C  56 - H  59          0.00301     0.31079   
  1512. BD*(   1) C  60 - H  61          0.00301     0.31774   
  1513. BD*(   1) C  60 - H  62          0.00442     0.36025   
  1514. BD*(   1) C  60 - H  63          0.00461     0.44958   
  1517. BD*(   1) C  67 - H  68          0.00512     0.37618   
  1518. BD*(   1) C  67 - H  69          0.00482     0.35148   
  1519. BD*(   1) C  67 - H  70          0.00154     0.29355   
  1520. BD*(   1) C  67 - C  73          0.00611     0.48914   
  1521. BD*(   1) N  71 - H  72          0.00646     0.37981   
  1522. BD*(   1) N  71 - C  73          0.01358     0.45921   
  1523. BD*(   1) N  71 - C  74          0.01026     0.46553   
  1524. BD*(   1) C  73 - C  77          0.01034     0.45567   
  1525. BD*(   1) C  74 - H  75          0.00775     0.27258   
  1526. BD*(   1) C  74 - N  76          0.00907     0.41678   
  1527. BD*(   2) C  74 - N  76          0.21966     6.73795  1429(r),1529(v),1424(v)
                                                    1421(v),1418(v),1423(v)
                                                    1422(v),1528(g),1412(v)
                                                    1415(v),1410(v),1520(r)
                                                    1399(v),1405(v),1514(r)
                                                    1510(r),1409(v),1517(r)
                                                    1523(g),1521(v),1380(g)
                                                    1522(v),1327(r),1411(v)
                                                    1513(r),1508(r),1509(r)
                                                    1416(v),1413(v),1426(r)
                                                    1428(r),1403(v),1401(v)
                                                    1507(r),1393(g),1425(r)
                                                    169(v),1419(v),1320(r)
                                                    1516(r),1353(g),1381(g)
                                                    1398(g),1382(g),1512(r)
                                                    610(r),1408(v),1305(v)
                                                    1402(v),1315(r),1351(g)
                                                    166(v),1375(g),1329(r)
                                                    1364(g),1257(r),1282(r)
                                                    1387(g),1417(v),1311(r)
                                                    1497(r),1390(g),641(r)
                                                    1407(v),1300(v),1515(r)
                                                    1218(r),1226(r),1307(v)
                                                    1301(v),1318(r),1299(v)
                                                    1427(r),1511(r),1373(g)
                                                    1158(r),1406(v),1206(r)
                                                    817(r),1176(r),1358(g)
                                                    167(v),1370(v),1479(r)
                                                    1157(r),586(r),1331(r)
                                                    1314(r),1395(g),1338(r)
                                                    1294(v),1518(r),1180(r)
                                                    585(r),1465(r),1135(r)
                                                    1325(r),1386(g),1397(g)
                                                    1389(g),814(r),1341(r)
                                                    1339(r),810(r),1205(r)
                                                    1487(r),1362(g),1356(g)
                                                    1372(v),812(r),611(r)
                                                    1126(r),778(r),612(r)
                                                    1170(r),1442(r),588(r)
                                                    1177(r),1224(r),1133(r)
                                                    1256(r),1304(v),625(r)
                                                    1361(g),1348(g),802(r)
                                                    1138(r),1392(g),1334(r)
                                                    1290(v),1374(g),1219(r)
                                                    1208(r),1214(r),1241(r)
                                                    1237(r),1225(r),1217(r)
  1528. BD*(   1) N  76 - C  77          0.00862     3.39382   
  1529. BD*(   1) C  77 - H  78          0.00662     4.83587   
       -------------------------------
              Total Lewis  145.43846  ( 96.8875%)
        Valence non-Lewis    4.40085  (  2.9317%)
        Rydberg non-Lewis    0.27138  (  0.1808%)
       -------------------------------
            Total unit  1  150.11070  (100.0000%)
           Charge unit  1    2.88930
 
 Molecular unit  2  (H2O)
    86. BD (   1) O  64 - H  65          0.99285    -0.92688  155(r),154(r),1434(r)
                                                    1240(v),153(r),160(r)
                                                    1374(r),1432(r),162(r)
                                                    156(r),242(r),166(r),1430(r)
                                                    240(r),1433(r)
    87. BD (   1) O  64 - H  66          0.99657    -0.99145  155(r),1434(r),1236(v)
                                                    1515(g),160(r),162(r)
                                                    1376(r),190(r),154(r),191(r)
                                                    1374(r),217(r),195(r),165(r)
                                                    166(r),269(r),156(r)
   146. CR (   1) O  64                  0.99991   -19.07272  155(r),1434(r),1240(v)
                                                    1236(v),163(r),1432(r)
                                                    1431(r),1433(r),1430(r)
                                                    154(r),153(r)
   157. LP (   1) O  64                  0.98320    -0.44576  153(r),1433(r),1431(r)
                                                    1239(v),1234(v),154(r)
                                                    1375(r),267(r)
   158. LP (   2) O  64                  0.90930    -0.60470  155(r),1434(r),1515(g)
                                                    1241(v),1236(v),1516(g)
                                                    166(r),153(r),156(r),216(r)
                                                    190(r),154(r),265(r),213(r)
                                                    1376(r),268(r),242(r),267(r)
                                                    1381(r),187(r),1430(r)
                                                    239(r),1437(r),165(r)
                                                    1435(r)
  1208. RY*(   1) O  64                  0.00097     1.12337   
  1209. RY*(   2) O  64                  0.00037     0.51809   
  1210. RY*(   3) O  64                  0.00018     1.12509   
  1211. RY*(   4) O  64                  0.00011     0.87941   
  1212. RY*(   5) O  64                  0.00002     2.25457   
  1213. RY*(   6) O  64                  0.00003     2.24388   
  1214. RY*(   7) O  64                  0.00000     3.11769   
  1215. RY*(   8) O  64                  0.00001     4.68396   
  1216. RY*(   9) O  64                  0.00001     2.96602   
  1217. RY*(  10) O  64                  0.00001     2.53477   
  1218. RY*(  11) O  64                  0.00000     6.27563   
  1219. RY*(  12) O  64                  0.00000     2.71593   
  1220. RY*(  13) O  64                  0.00000     6.32285   
  1221. RY*(  14) O  64                  0.00000    42.42109   
  1222. RY*(  15) O  64                  0.00000     6.41703   
  1223. RY*(  16) O  64                  0.00000     2.17014   
  1224. RY*(  17) O  64                  0.00000     6.10887   
  1225. RY*(  18) O  64                  0.00000     2.26827   
  1226. RY*(  19) O  64                  0.00000     6.33689   
  1227. RY*(  20) O  64                  0.00000     5.24709   
  1228. RY*(  21) O  64                  0.00000     5.14331   
  1229. RY*(  22) O  64                  0.00000     5.51875   
  1230. RY*(  23) O  64                  0.00000     5.33664   
  1231. RY*(  24) O  64                  0.00000     5.45901   
  1232. RY*(  25) O  64                  0.00000     5.52101   
  1233. RY*(  26) O  64                  0.00000     5.25214   
  1234. RY*(   1) H  65                  0.00039     1.74998   
  1235. RY*(   2) H  65                  0.00036     0.87512   
  1236. RY*(   3) H  65                  0.00028     2.30471   
  1237. RY*(   4) H  65                  0.00008     1.88464   
  1238. RY*(   5) H  65                  0.00001     2.80339   
  1239. RY*(   1) H  66                  0.00043     1.91437   
  1240. RY*(   2) H  66                  0.00039     1.59892   
  1241. RY*(   3) H  66                  0.00031     1.23220   
  1242. RY*(   4) H  66                  0.00012     1.91897   
  1243. RY*(   5) H  66                  0.00000     2.90967   
  1515. BD*(   1) O  64 - H  65          0.00188     0.33273   
  1516. BD*(   1) O  64 - H  66          0.00136     0.52997   
       -------------------------------
              Total Lewis    4.88183  ( 99.8501%)
        Valence non-Lewis    0.00324  (  0.0663%)
        Rydberg non-Lewis    0.00409  (  0.0836%)
       -------------------------------
            Total unit  2    4.88916  (100.0000%)
           Charge unit  2    0.11084
 Unable to Open any file for archive entry.
 1\1\GINC-BGN1013\SP\UAPFD\def2TZVP\C34H36Fe1N6O1(1+,6)\BEBJONES\28-May
 -2024\0\\# apfd/def2TZVP guess=read scf=maxcycle=999 geom=check pop=nb
 o\\1cck_III_H\\1,6\Fe,0,-5.9894739034,57.0049288112,111.744006282\N,0,
 -6.6527253893,56.1251638978,113.4032580421\N,0,-6.9546234466,58.702760
 1441,112.2567613516\N,0,-5.129503204,57.9967408809,110.2078293238\N,0,
 -4.9374473841,55.3869103164,111.2686123406\C,0,-6.3846041181,54.853640
 5702,113.8051814617\C,0,-6.9877794308,54.5880884583,115.0911750166\C,0
 ,-7.6316890724,55.7307584798,115.4557862126\C,0,-7.3769065631,56.69249
 33826,114.4069548317\C,0,-7.6016851115,58.9377929351,113.4344059538\C,
 0,-8.1170824133,60.2817803299,113.4810193069\C,0,-7.6793828587,60.8982
 896593,112.3391713967\C,0,-6.8802803712,59.9103128961,111.6369216603\C
 ,0,-5.2894520507,59.3054298332,109.8735493754\C,0,-4.474840006,59.6547
 754728,108.7385140975\C,0,-3.7708984327,58.5265125486,108.4109062405\C
 ,0,-4.2231658728,57.4968250548,109.3274771282\C,0,-4.1732795305,55.194
 4906557,110.1633077827\C,0,-3.8159964309,53.7994764473,110.0224005073\
 C,0,-4.3530783675,53.1593677191,111.0949133339\C,0,-5.0284958655,54.17
 3408587,111.8757059301\C,0,-5.6635088345,53.9232286676,113.0778356442\
 H,0,-5.588303516,52.9255252665,113.4831942189\C,0,-7.8118620371,58.003
 5032832,114.4356224117\H,0,-8.3611089413,58.3226636231,115.3083421058\
 C,0,-6.1330847612,60.1951763158,110.5133138544\H,0,-6.1698573627,61.20
 34285086,110.1310622033\C,0,-3.7892288259,56.185123593,109.2796171772\
 H,0,-3.1057576946,55.9090425621,108.4911497099\C,0,-8.4167809548,56.02
 00507799,116.6896086296\H,0,-7.9384731369,56.8059934195,117.2754706925
 \H,0,-8.4994049312,55.1326699932,117.3123319225\H,0,-9.422351246,56.35
 50505542,116.4347012149\C,0,-6.8958003313,53.2857488435,115.8100106093
 \H,0,-5.853634099,53.0231934862,115.9927709153\H,0,-7.3453048856,52.48
 77371384,115.2182867145\H,0,-7.4094572156,53.3337379048,116.7671540572
 \C,0,-8.8882709329,60.8689634368,114.6116961641\H,0,-8.499356587,60.51
 97261838,115.5671430202\H,0,-9.9412698017,60.5876647773,114.553739708\
 H,0,-8.8210820581,61.9546204771,114.585278423\C,0,-7.8947846359,62.258
 2178297,111.8996743064\H,0,-7.0778097257,62.7120848365,111.351093698\C
 ,0,-9.0002465319,62.9676758661,112.1045776277\H,0,-9.8627293244,62.555
 7475467,112.5991264213\H,0,-9.0897020682,63.9837721197,111.7574594173\
 C,0,-4.4648250307,60.9820745396,108.0635499041\H,0,-3.8257612023,61.68
 82417732,108.5974842917\H,0,-5.4701354963,61.3999096994,108.0231954917
 \H,0,-4.0891150648,60.8797246995,107.0469566812\C,0,-2.8108660842,58.3
 266597345,107.3482971038\H,0,-2.8039956711,57.3403716675,106.899029211
 5\C,0,-1.952629704,59.238864685,106.9031407989\H,0,-1.8788120783,60.21
 82936355,107.3420697678\H,0,-1.2714811696,59.0253761563,106.0960098312
 \C,0,-3.0109496969,53.2485082609,108.8955786574\H,0,-2.0163967831,53.6
 954080608,108.881083671\H,0,-3.4907508551,53.4624899043,107.9401436118
 \H,0,-2.8995897988,52.1710059434,108.9895449298\C,0,-4.293149326,51.71
 6107917,111.4616982262\H,0,-3.768298681,51.1444956655,110.7001490002\H
 ,0,-5.2974837179,51.3061500616,111.5692441341\H,0,-3.7707689553,51.582
 9612421,112.4096363537\O,0,-4.281,57.657,113.107\H,0,-4.52,57.277,113.
 953\H,0,-3.583,58.183,112.945\C,0,-9.3182951365,54.9785906077,107.7609
 738121\H,0,-9.9894967392,55.6815665656,107.2671695876\H,0,-9.872850666
 4,54.0622020968,107.9629222442\H,0,-8.4989313898,54.7490987531,107.086
 8789851\N,0,-9.5828990335,55.8981080979,110.0750625281\H,0,-10.5840914
 602,55.7982420411,110.1093783242\C,0,-8.780199518,55.5572901723,109.01
 81292599\C,0,-8.7875058995,56.3926769567,111.0508953815\H,0,-9.1420539
 297,56.7417341002,111.9985424299\N,0,-7.5310303953,56.3850598616,110.6
 758527454\C,0,-7.5106522153,55.8689773251,109.4132347993\H,0,-6.589646
 9948,55.757617923,108.879018172\\Version=ES64L-G16RevC.02\State=6-A\HF
 =-2983.8343457\S2=8.758903\S2-1=0.\S2A=8.750024\RMSD=7.602e-09\Dipole=
 -1.3542143,-0.846948,-0.1252896\Quadrupole=-1.4222801,1.5208685,-0.098
 5884,0.7635759,-7.7181228,-0.1357314\PG=C01 [X(C34H36Fe1N6O1)]\\@
 The archive entry for this job was punched.


 A true friend is someone who is there for
 you when he'd rather be anywhere else.
                               -- Len Wein
 Job cpu time:       0 days 11 hours 28 minutes 26.3 seconds.
 Elapsed time:       0 days  0 hours 10 minutes 50.2 seconds.
 File lengths (MBytes):  RWF=   2166 Int=      0 D2E=      0 Chk=    197 Scr=      1
 Normal termination of Gaussian 16 at Tue May 28 16:09:55 2024.
