 Entering Gaussian System, Link 0=g16
 Input=1ccl01.com
 Output=1ccl01.log
 Initial command:
 /sw/chem/gaussian/g16_C02/a100/g16/l1.exe "/local/bebjones_7775781/Gau-106322.inp" -scrdir="/local/bebjones_7775781/"
 Entering Link 1 = /sw/chem/gaussian/g16_C02/a100/g16/l1.exe PID=    106323.
  
 Copyright (c) 1988-2021, Gaussian, Inc.  All Rights Reserved.
  
 This is part of the Gaussian(R) 16 program.  It is based on
 the Gaussian(R) 09 system (copyright 2009, Gaussian, Inc.),
 the Gaussian(R) 03 system (copyright 2003, Gaussian, Inc.),
 the Gaussian(R) 98 system (copyright 1998, Gaussian, Inc.),
 the Gaussian(R) 94 system (copyright 1995, Gaussian, Inc.),
 the Gaussian 92(TM) system (copyright 1992, Gaussian, Inc.),
 the Gaussian 90(TM) system (copyright 1990, Gaussian, Inc.),
 the Gaussian 88(TM) system (copyright 1988, Gaussian, Inc.),
 the Gaussian 86(TM) system (copyright 1986, Carnegie Mellon
 University), and the Gaussian 82(TM) system (copyright 1983,
 Carnegie Mellon University). Gaussian is a federally registered
 trademark of Gaussian, Inc.
  
 This software contains proprietary and confidential information,
 including trade secrets, belonging to Gaussian, Inc.
  
 This software is provided under written license and may be
 used, copied, transmitted, or stored only in accord with that
 written license.
  
 The following legend is applicable only to US Government
 contracts under FAR:
  
                    RESTRICTED RIGHTS LEGEND
  
 Use, reproduction and disclosure by the US Government is
 subject to restrictions as set forth in subparagraphs (a)
 and (c) of the Commercial Computer Software - Restricted
 Rights clause in FAR 52.227-19.
  
 Gaussian, Inc.
 340 Quinnipiac St., Bldg. 40, Wallingford CT 06492
  
  
 ---------------------------------------------------------------
 Warning -- This program may not be used in any manner that
 competes with the business of Gaussian, Inc. or will provide
 assistance to any competitor of Gaussian, Inc.  The licensee
 of this program is prohibited from giving any competitor of
 Gaussian, Inc. access to this program.  By using this program,
 the user acknowledges that Gaussian, Inc. is engaged in the
 business of creating and licensing software in the field of
 computational chemistry and represents and warrants to the
 licensee that it is not a competitor of Gaussian, Inc. and that
 it will not use this program in any manner prohibited above.
 ---------------------------------------------------------------
  

 Cite this work as:
 Gaussian 16, Revision C.02,
 M. J. Frisch, G. W. Trucks, H. B. Schlegel, G. E. Scuseria, 
 M. A. Robb, J. R. Cheeseman, G. Scalmani, V. Barone, 
 G. A. Petersson, H. Nakatsuji, X. Li, M. Caricato, A. V. Marenich, 
 J. Bloino, B. G. Janesko, R. Gomperts, B. Mennucci, H. P. Hratchian, 
 J. V. Ortiz, A. F. Izmaylov, J. L. Sonnenberg, D. Williams-Young, 
 F. Ding, F. Lipparini, F. Egidi, J. Goings, B. Peng, A. Petrone, 
 T. Henderson, D. Ranasinghe, V. G. Zakrzewski, J. Gao, N. Rega, 
 G. Zheng, W. Liang, M. Hada, M. Ehara, K. Toyota, R. Fukuda, 
 J. Hasegawa, M. Ishida, T. Nakajima, Y. Honda, O. Kitao, H. Nakai, 
 T. Vreven, K. Throssell, J. A. Montgomery, Jr., J. E. Peralta, 
 F. Ogliaro, M. J. Bearpark, J. J. Heyd, E. N. Brothers, K. N. Kudin, 
 V. N. Staroverov, T. A. Keith, R. Kobayashi, J. Normand, 
 K. Raghavachari, A. P. Rendell, J. C. Burant, S. S. Iyengar, 
 J. Tomasi, M. Cossi, J. M. Millam, M. Klene, C. Adamo, R. Cammi, 
 J. W. Ochterski, R. L. Martin, K. Morokuma, O. Farkas, 
 J. B. Foresman, and D. J. Fox, Gaussian, Inc., Wallingford CT, 2019.
 
 ******************************************
 Gaussian 16:  ES64L-G16RevC.02  7-Dec-2021
                18-Mar-2024 
 ******************************************
 %mem=16GB
 %CPU=0-71
 SetSPE:  set environment variable "OMP_PROC_BIND" = "true"
 SetSPE:  set environment variable "OMP_PLACES" = "{0},{1},{2},{3},{4},{5},{6},{7},{8},{9},{10},{11},{12},{13},{14},{15},{16},{17},{18},{19},{20},{21},{22},{23},{24},{25},{26},{27},{28},{29},{30},{31},{32},{33},{34},{35},{36},{37},{38},{39},{40},{41},{42},{43},{44},{45},{46},{47},{48},{49},{50},{51},{52},{53},{54},{55},{56},{57},{58},{59},{60},{61},{62},{63},{64},{65},{66},{67},{68},{69},{70},{71}"
 Will use up to   72 processors via shared memory.
 %gpucpu=0,1,2,3=0,1,2,3
 Will use    4 GPUs:
 Thread  CPU   GPU
      0    0     0
      1    1     1
      2    2     2
      3    3     3
      4    4    -1
      5    5    -1
      6    6    -1
      7    7    -1
      8    8    -1
      9    9    -1
     10   10    -1
     11   11    -1
     12   12    -1
     13   13    -1
     14   14    -1
     15   15    -1
     16   16    -1
     17   17    -1
     18   18    -1
     19   19    -1
     20   20    -1
     21   21    -1
     22   22    -1
     23   23    -1
     24   24    -1
     25   25    -1
     26   26    -1
     27   27    -1
     28   28    -1
     29   29    -1
     30   30    -1
     31   31    -1
     32   32    -1
     33   33    -1
     34   34    -1
     35   35    -1
     36   36    -1
     37   37    -1
     38   38    -1
     39   39    -1
     40   40    -1
     41   41    -1
     42   42    -1
     43   43    -1
     44   44    -1
     45   45    -1
     46   46    -1
     47   47    -1
     48   48    -1
     49   49    -1
     50   50    -1
     51   51    -1
     52   52    -1
     53   53    -1
     54   54    -1
     55   55    -1
     56   56    -1
     57   57    -1
     58   58    -1
     59   59    -1
     60   60    -1
     61   61    -1
     62   62    -1
     63   63    -1
     64   64    -1
     65   65    -1
     66   66    -1
     67   67    -1
     68   68    -1
     69   69    -1
     70   70    -1
     71   71    -1
 SetGPE:  set environment variable "OMP_PROC_BIND" = "true"
 SetGPE:  set environment variable "OMP_PLACES" = "{0},{1},{2},{3},{4},{5},{6},{7},{8},{9},{10},{11},{12},{13},{14},{15},{16},{17},{18},{19},{20},{21},{22},{23},{24},{25},{26},{27},{28},{29},{30},{31},{32},{33},{34},{35},{36},{37},{38},{39},{40},{41},{42},{43},{44},{45},{46},{47},{48},{49},{50},{51},{52},{53},{54},{55},{56},{57},{58},{59},{60},{61},{62},{63},{64},{65},{66},{67},{68},{69},{70},{71}"
 %chk=1ccl_II_S.chk
 Properties for Device   0
 Minimum vector length:                              32
 Maximum vector length:                            1024
 Number of SMPs:                                    108
 Maximum number of threads per SMP:                2048
 Number of ASync Engines:                             5
 Memory:                                           9192980480
 Properties for Device   1
 Minimum vector length:                              32
 Maximum vector length:                            1024
 Number of SMPs:                                    108
 Maximum number of threads per SMP:                2048
 Number of ASync Engines:                             5
 Memory:                                           9192980480
 Properties for Device   2
 Minimum vector length:                              32
 Maximum vector length:                            1024
 Number of SMPs:                                    108
 Maximum number of threads per SMP:                2048
 Number of ASync Engines:                             5
 Memory:                                           9192980480
 Properties for Device   3
 Minimum vector length:                              32
 Maximum vector length:                            1024
 Number of SMPs:                                    108
 Maximum number of threads per SMP:                2048
 Number of ASync Engines:                             5
 Memory:                                           9192980480
   8273682432 words of memory will be used on each GPU.
 ------------------------------------------
 # polar def2tzvp apfd int=(grid=ultrafine)
 ------------------------------------------
 1/38=1,172=1/1;
 2/12=2,17=6,18=5,40=1/2;
 3/5=44,7=101,11=2,25=1,30=1,74=-44,75=-5/1,2,3;
 4//1;
 5/5=2,38=5,98=1/2;
 8/6=4,10=90,11=11/1;
 10/6=1,13=10/2;
 6/7=2,8=2,9=2,10=2,28=1/1;
 99/5=1,9=1/99;
 ---------
 1ccl_II_S
 ---------
 Symbolic Z-matrix:
 Charge =  0 Multiplicity = 1
 Fe                   -6.13404   56.99945   111.66865 
 N                    -7.01195   56.10104   113.24412 
 N                    -7.10356   58.7084   112.19905 
 N                    -5.39279   57.95265   110.07858 
 N                    -5.26633   55.31785   111.13488 
 C                    -6.81697   54.80238   113.60366 
 C                    -7.37045   54.54556   114.91326 
 C                    -7.8572    55.73494   115.3628 
 C                    -7.62756   56.6907   114.30467 
 C                    -7.78698   58.94271   113.35374 
 C                    -8.30709   60.28572   113.38195 
 C                    -7.89561   60.88117   112.21949 
 C                    -7.09874   59.88721   111.52401 
 C                    -5.53657   59.26114   109.74294 
 C                    -4.67121   59.6094   108.64518 
 C                    -3.97238   58.47312   108.33151 
 C                    -4.4503    57.44918   109.24033 
 C                    -4.49464   55.12529   110.03482 
 C                    -4.17922   53.72139   109.87548 
 C                    -4.76533   53.07775   110.91997 
 C                    -5.44884   54.09368   111.69284 
 C                    -6.17823   53.84017   112.83805 
 H                    -6.19073   52.82545   113.20647 
 C                    -8.01668   58.01503   114.35566 
 H                    -8.54171   58.34759   115.23799 
 C                    -6.40398   60.14574   110.35956 
 H                    -6.48637   61.13526   109.93691 
 C                    -4.04556   56.12546   109.19184 
 H                    -3.36363   55.8412   108.40437 
 C                    -8.51591   56.05881   116.6603 
 H                    -8.55097   55.18428   117.30532 
 H                    -9.53695   56.4055   116.49747 
 H                    -7.97194   56.84731   117.18109 
 C                    -7.34364   53.22045   115.59518 
 H                    -6.31679   52.88529   115.74411 
 H                    -7.85885   52.47074   114.99443 
 H                    -7.83048   53.27442   116.56594 
 C                    -9.0701    60.88741   114.5106 
 H                    -8.66919   60.55525   115.46729 
 H                    -10.12247   60.60101   114.46894 
 H                    -9.00788   61.97278   114.46581 
 C                    -8.13819   62.22754   111.75204 
 H                    -7.3379    62.67859   111.17717 
 C                    -9.24871   62.92722   111.96239 
 H                    -10.09554   62.51569   112.4835 
 H                    -9.35892   63.9337   111.59397 
 C                    -4.53035   60.97344   108.06462 
 H                    -4.60918   61.73301   108.84083 
 H                    -5.31053   61.16386   107.32556 
 H                    -3.56308   61.0738   107.57626 
 C                    -2.9489    58.271    107.33015 
 H                    -2.1799    57.55179   107.58838 
 C                    -2.89036   58.87903   106.14951 
 H                    -3.65063   59.56533   105.81985 
 H                    -2.08707   58.68856   105.45699 
 C                    -3.35348   53.16755   108.7652 
 H                    -2.34177   53.57298   108.80066 
 H                    -3.78659   53.42755   107.79919 
 H                    -3.28974   52.08423   108.83244 
 C                    -4.76477   51.6258   111.25618 
 H                    -4.19519   51.05859   110.52408 
 H                    -5.78291   51.23642   111.27725 
 H                    -4.32024   51.46101   112.23807 
 O                    -4.42      57.516    113.057 
 H                    -4.698     57.129    113.887 
 H                    -3.675     57.981    112.916 
 C                    -9.60671   55.26239   107.63581 
 H                    -10.26797   55.99901   107.17969 
 H                    -10.18151   54.3541   107.81675 
 H                    -8.80628   55.03462   106.93898 
 N                    -9.80806   56.15941   109.9652 
 H                    -10.81382   56.12777   109.9991 
 C                    -9.03048   55.78299   108.90143 
 C                    -8.98149   56.58066   110.94791 
 H                    -9.31391   56.93661   111.90078 
 N                    -7.72919   56.49361   110.57219 
 C                    -7.74291   55.99977   109.30143 
 H                    -6.83315   55.83458   108.76235 
 
 Stoichiometry    C34H36FeN6O
 Framework group  C1[X(C34H36FeN6O)]
 Deg. of freedom   228
 Full point group                 C1      NOp   1
 Largest Abelian subgroup         C1      NOp   1
 Largest concise Abelian subgroup C1      NOp   1
                         Standard orientation:                         
 ---------------------------------------------------------------------
 Center     Atomic      Atomic             Coordinates (Angstroms)
 Number     Number       Type             X           Y           Z
 ---------------------------------------------------------------------
      1         26           0        0.043168   -0.196236   -0.431363
      2          7           0        1.379040   -1.699662   -0.308290
      3          7           0        1.603784    1.101731   -0.284383
      4          7           0       -1.207143    1.360318   -0.446038
      5          7           0       -1.453024   -1.470002   -0.498395
      6          6           0        1.063738   -3.023130   -0.361525
      7          6           0        2.254402   -3.826813   -0.515683
      8          6           0        3.295260   -2.954299   -0.610393
      9          6           0        2.727938   -1.633161   -0.474053
     10          6           0        2.931012    0.805582   -0.362130
     11          6           0        3.732938    1.996749   -0.247999
     12          6           0        2.854786    3.040579   -0.127788
     13          6           0        1.528749    2.455927   -0.208163
     14          6           0       -0.899106    2.683411   -0.449689
     15          6           0       -2.073089    3.484949   -0.683117
     16          6           0       -3.112015    2.606274   -0.845738
     17          6           0       -2.541892    1.282727   -0.684456
     18          6           0       -2.773708   -1.157849   -0.531189
     19          6           0       -3.581014   -2.351781   -0.394790
     20          6           0       -2.710618   -3.391965   -0.299000
     21          6           0       -1.382351   -2.818438   -0.357162
     22          6           0       -0.214491   -3.552092   -0.282073
     23          1           0       -0.303536   -4.626852   -0.231853
     24          6           0        3.466759   -0.466108   -0.475958
     25          1           0        4.538526   -0.553774   -0.567608
     26          6           0        0.367770    3.201696   -0.245826
     27          1           0        0.460307    4.275091   -0.183950
     28          6           0       -3.287369    0.115458   -0.696923
     29          1           0       -4.358626    0.209133   -0.794772
     30          6           0        4.747652   -3.230243   -0.801933
     31          1           0        4.928287   -4.297279   -0.906261
     32          1           0        5.323904   -2.866925    0.049637
     33          1           0        5.118897   -2.730579   -1.697122
     34          6           0        2.263480   -5.315518   -0.588698
     35          1           0        1.677843   -5.662351   -1.440557
     36          1           0        1.830791   -5.745338    0.314873
     37          1           0        3.278054   -5.692005   -0.694544
     38          6           0        5.219343    2.042116   -0.329193
     39          1           0        5.586123    1.339908   -1.076646
     40          1           0        5.672287    1.780988    0.628876
     41          1           0        5.547289    3.043001   -0.602294
     42          6           0        3.133778    4.452468    0.009424
     43          1           0        2.422926    5.121602   -0.461026
     44          6           0        4.166677    4.973069    0.664516
     45          1           0        4.877951    4.361771    1.192183
     46          1           0        4.321328    6.038019    0.717855
     47          6           0       -2.086264    4.968619   -0.809754
     48          1           0       -1.187187    5.320760   -1.313061
     49          1           0       -2.130677    5.442253    0.172513
     50          1           0       -2.954064    5.287103   -1.383932
     51          6           0       -4.503506    2.872351   -1.135620
     52          1           0       -5.003742    2.126792   -1.743242
     53          6           0       -5.193246    3.928555   -0.716396
     54          1           0       -4.763070    4.675146   -0.072010
     55          1           0       -6.227456    4.068610   -0.984587
     56          6           0       -5.071366   -2.360583   -0.385784
     57          1           0       -5.462746   -1.990053   -1.333790
     58          1           0       -5.453406   -1.720179    0.409395
     59          1           0       -5.452279   -3.366813   -0.229044
     60          6           0       -2.990500   -4.847655   -0.144624
     61          1           0       -4.060967   -5.035479   -0.113978
     62          1           0       -2.547580   -5.228027    0.776151
     63          1           0       -2.568276   -5.408625   -0.978833
     64          8           0        0.306717   -0.291406   -2.679420
     65          1           0        0.938807   -1.001937   -2.786943
     66          1           0       -0.045147    0.203399   -3.329413
     67          6           0       -1.650947   -0.104550    4.903625
     68          1           0       -1.351916    0.743587    5.519395
     69          1           0       -1.526294   -1.013658    5.491948
     70          1           0       -2.700376    0.003605    4.648416
     71          7           0        0.523012   -0.295994    3.675418
     72          1           0        1.099104   -0.358449    4.498777
     73          6           0       -0.841044   -0.165367    3.660562
     74          6           0        0.946071   -0.320550    2.392141
     75          1           0        1.971173   -0.413594    2.099446
     76          7           0       -0.065652   -0.214148    1.566250
     77          6           0       -1.184165   -0.116137    2.339701
     78          1           0       -2.154459   -0.016924    1.898979
 ---------------------------------------------------------------------
 Rotational constants (GHZ):           0.0937680           0.0917229           0.0594539
 Standard basis: def2TZVP (5D, 7F)
 There are  1744 symmetry adapted cartesian basis functions of A   symmetry.
 There are  1532 symmetry adapted basis functions of A   symmetry.
  1532 basis functions,  2481 primitive gaussians,  1744 cartesian basis functions
   158 alpha electrons      158 beta electrons
       nuclear repulsion energy      5975.4718489284 Hartrees.
 NAtoms=   78 NActive=   78 NUniq=   78 SFac= 1.00D+00 NAtFMM=   60 NAOKFM=T Big=T
 Integral buffers will be    131072 words long.
 Raffenetti 2 integral format.
 Two-electron integral symmetry is turned on.
 R6APFD:  NTU= -4 IXU= 1 FactS= 1.050
 Nuclear repulsion after empirical dispersion term =     5975.3179958665 Hartrees.
 One-electron integrals computed using PRISM.
   1 Symmetry operations used in ECPInt.
 ECPInt:  NShTT=  186355 NPrTT=  576197 LenC2=  147408 LenP2D=  301751.
 LDataN:  DoStor=T MaxTD1= 6 Len=  172
 Number of processors reduced to  23 by ecpmxn.
 NBasis=  1532 RedAO= T EigKep=  3.41D-06  NBF=  1532
 NBsUse=  1532 1.00D-06 EigRej= -1.00D+00 NBFU=  1532
 ExpMin= 4.20D-02 ExpMax= 3.01D+05 ExpMxC= 2.91D+03 IAcc=3 IRadAn=         5 AccDes= 0.00D+00
 Harris functional with IExCor= 3731 and IRadAn=       5 diagonalized for initial guess.
 HarFok:  IExCor= 3731 AccDes= 0.00D+00 IRadAn=         5 IDoV= 1 UseB2=F ITyADJ=14
 ICtDFT=  3500011 ScaDFX=  1.000000  1.000000  1.000000  1.000000
 FoFCou: FMM=F IPFlag=           0 FMFlag=      100000 FMFlg1=        2001
         NFxFlg=           0 DoJE=T BraDBF=F KetDBF=T FulRan=T
         wScrn=  0.000000 ICntrl=       500 IOpCl=  0 I1Cent=   200000004 NGrid=           0
         NMat0=    1 NMatS0=      1 NMatT0=    0 NMatD0=    1 NMtDS0=    0 NMtDT0=    0
 Petite list used in FoFCou.
 Requested convergence on RMS density matrix=1.00D-08 within 128 cycles.
 Requested convergence on MAX density matrix=1.00D-06.
 Requested convergence on             energy=1.00D-06.
 No special actions if energy rises.
 EnCoef did     2 forward-backward iterations
 EnCoef did   100 forward-backward iterations
 EnCoef did   100 forward-backward iterations
 EnCoef did   100 forward-backward iterations
 EnCoef did     2 forward-backward iterations
 Restarting incremental Fock formation.
 SCF Done:  E(RAPFD) =  -2984.02088148     A.U. after   25 cycles
            NFock= 25  Conv=0.42D-08     -V/T= 2.0034
 DoSCS=F DFT=T ScalE2(SS,OS)=  1.000000  1.000000
 Range of M.O.s used for correlation:     1  1532
 NBasis=  1532 NAE=   158 NBE=   158 NFC=     0 NFV=     0
 NROrb=   1532 NOA=   158 NOB=   158 NVA=  1374 NVB=  1374

 **** Warning!!: The largest alpha MO coefficient is  0.42676532D+02

          Differentiating once with respect to electric field.
                with respect to dipole field.
          Electric field/nuclear overlap derivatives assumed to be zero.
          There are     3 degrees of freedom in the 1st order CPHF.  IDoFFX=0 NUNeed=     3.
      3 vectors produced by pass  0 Test12= 7.24D-12 3.33D-08 XBig12= 1.86D+03 2.51D+01.
 AX will form     3 AO Fock derivatives at one time.
      3 vectors produced by pass  1 Test12= 7.24D-12 3.33D-08 XBig12= 1.24D+03 8.79D+00.
      3 vectors produced by pass  2 Test12= 7.24D-12 3.33D-08 XBig12= 4.12D+02 5.47D+00.
      3 vectors produced by pass  3 Test12= 7.24D-12 3.33D-08 XBig12= 3.21D+02 3.36D+00.
      3 vectors produced by pass  4 Test12= 7.24D-12 3.33D-08 XBig12= 1.88D+02 2.66D+00.
      3 vectors produced by pass  5 Test12= 7.24D-12 3.33D-08 XBig12= 9.29D+01 2.05D+00.
      3 vectors produced by pass  6 Test12= 7.24D-12 3.33D-08 XBig12= 5.91D+01 1.77D+00.
      3 vectors produced by pass  7 Test12= 7.24D-12 3.33D-08 XBig12= 2.39D+01 1.12D+00.
      3 vectors produced by pass  8 Test12= 7.24D-12 3.33D-08 XBig12= 1.22D+01 7.03D-01.
      3 vectors produced by pass  9 Test12= 7.24D-12 3.33D-08 XBig12= 5.17D+00 4.72D-01.
      3 vectors produced by pass 10 Test12= 7.24D-12 3.33D-08 XBig12= 2.47D+00 2.29D-01.
      3 vectors produced by pass 11 Test12= 7.24D-12 3.33D-08 XBig12= 9.15D-01 1.36D-01.
      3 vectors produced by pass 12 Test12= 7.24D-12 3.33D-08 XBig12= 3.96D-01 1.40D-01.
      3 vectors produced by pass 13 Test12= 7.24D-12 3.33D-08 XBig12= 1.45D-01 1.36D-01.
      3 vectors produced by pass 14 Test12= 7.24D-12 3.33D-08 XBig12= 8.25D-02 7.32D-02.
      3 vectors produced by pass 15 Test12= 7.24D-12 3.33D-08 XBig12= 4.06D-02 4.14D-02.
      3 vectors produced by pass 16 Test12= 7.24D-12 3.33D-08 XBig12= 1.38D-02 1.46D-02.
      3 vectors produced by pass 17 Test12= 7.24D-12 3.33D-08 XBig12= 3.95D-03 1.31D-02.
      3 vectors produced by pass 18 Test12= 7.24D-12 3.33D-08 XBig12= 6.36D-04 6.51D-03.
      3 vectors produced by pass 19 Test12= 7.24D-12 3.33D-08 XBig12= 1.96D-04 5.19D-03.
      3 vectors produced by pass 20 Test12= 7.24D-12 3.33D-08 XBig12= 3.73D-05 2.01D-03.
      3 vectors produced by pass 21 Test12= 7.24D-12 3.33D-08 XBig12= 8.06D-06 6.79D-04.
      3 vectors produced by pass 22 Test12= 7.24D-12 3.33D-08 XBig12= 2.31D-06 2.63D-04.
      3 vectors produced by pass 23 Test12= 7.24D-12 3.33D-08 XBig12= 5.07D-07 8.39D-05.
      3 vectors produced by pass 24 Test12= 7.24D-12 3.33D-08 XBig12= 1.08D-07 4.63D-05.
      3 vectors produced by pass 25 Test12= 7.24D-12 3.33D-08 XBig12= 2.23D-08 2.67D-05.
      3 vectors produced by pass 26 Test12= 7.24D-12 3.33D-08 XBig12= 3.78D-09 9.60D-06.
      3 vectors produced by pass 27 Test12= 7.24D-12 3.33D-08 XBig12= 4.11D-10 2.65D-06.
      3 vectors produced by pass 28 Test12= 7.24D-12 3.33D-08 XBig12= 8.34D-11 9.64D-07.
      3 vectors produced by pass 29 Test12= 7.24D-12 3.33D-08 XBig12= 1.44D-11 4.92D-07.
      3 vectors produced by pass 30 Test12= 7.24D-12 3.33D-08 XBig12= 1.68D-12 2.28D-07.
      3 vectors produced by pass 31 Test12= 7.24D-12 3.33D-08 XBig12= 2.77D-13 8.17D-08.
      1 vectors produced by pass 32 Test12= 7.24D-12 3.33D-08 XBig12= 4.09D-14 3.80D-08.
 InvSVY:  IOpt=1 It=  1 EMax= 2.13D-14
 Solved reduced A of dimension    97 with     3 vectors.
 Isotropic polarizability for W=    0.000000      574.68 Bohr**3.
 End of Minotr F.D. properties file   721 does not exist.
 End of Minotr F.D. properties file   722 does not exist.
 End of Minotr F.D. properties file   788 does not exist.

 **********************************************************************

            Population analysis using the SCF Density.

 **********************************************************************

 Orbital symmetries:
       Occupied  (A) (A) (A) (A) (A) (A) (A) (A) (A) (A) (A) (A)
                 (A) (A) (A) (A) (A) (A) (A) (A) (A) (A) (A) (A)
                 (A) (A) (A) (A) (A) (A) (A) (A) (A) (A) (A) (A)
                 (A) (A) (A) (A) (A) (A) (A) (A) (A) (A) (A) (A)
                 (A) (A) (A) (A) (A) (A) (A) (A) (A) (A) (A) (A)
                 (A) (A) (A) (A) (A) (A) (A) (A) (A) (A) (A) (A)
                 (A) (A) (A) (A) (A) (A) (A) (A) (A) (A) (A) (A)
                 (A) (A) (A) (A) (A) (A) (A) (A) (A) (A) (A) (A)
                 (A) (A) (A) (A) (A) (A) (A) (A) (A) (A) (A) (A)
                 (A) (A) (A) (A) (A) (A) (A) (A) (A) (A) (A) (A)
                 (A) (A) (A) (A) (A) (A) (A) (A) (A) (A) (A) (A)
                 (A) (A) (A) (A) (A) (A) (A) (A) (A) (A) (A) (A)
                 (A) (A) (A) (A) (A) (A) (A) (A) (A) (A) (A) (A)
                 (A) (A)
       Virtual   (A) (A) (A) (A) (A) (A) (A) (A) (A) (A) (A) (A)
                 (A) (A) (A) (A) (A) (A) (A) (A) (A) (A) (A) (A)
                 (A) (A) (A) (A) (A) (A) (A) (A) (A) (A) (A) (A)
                 (A) (A) (A) (A) (A) (A) (A) (A) (A) (A) (A) (A)
                 (A) (A) (A) (A) (A) (A) (A) (A) (A) (A) (A) (A)
                 (A) (A) (A) (A) (A) (A) (A) (A) (A) (A) (A) (A)
                 (A) (A) (A) (A) (A) (A) (A) (A) (A) (A) (A) (A)
                 (A) (A) (A) (A) (A) (A) (A) (A) (A) (A) (A) (A)
                 (A) (A) (A) (A) (A) (A) (A) (A) (A) (A) (A) (A)
                 (A) (A) (A) (A) (A) (A) (A) (A) (A) (A) (A) (A)
                 (A) (A) (A) (A) (A) (A) (A) (A) (A) (A) (A) (A)
                 (A) (A) (A) (A) (A) (A) (A) (A) (A) (A) (A) (A)
                 (A) (A) (A) (A) (A) (A) (A) (A) (A) (A) (A) (A)
                 (A) (A) (A) (A) (A) (A) (A) (A) (A) (A) (A) (A)
                 (A) (A) (A) (A) (A) (A) (A) (A) (A) (A) (A) (A)
                 (A) (A) (A) (A) (A) (A) (A) (A) (A) (A) (A) (A)
                 (A) (A) (A) (A) (A) (A) (A) (A) (A) (A) (A) (A)
                 (A) (A) (A) (A) (A) (A) (A) (A) (A) (A) (A) (A)
                 (A) (A) (A) (A) (A) (A) (A) (A) (A) (A) (A) (A)
                 (A) (A) (A) (A) (A) (A) (A) (A) (A) (A) (A) (A)
                 (A) (A) (A) (A) (A) (A) (A) (A) (A) (A) (A) (A)
                 (A) (A) (A) (A) (A) (A) (A) (A) (A) (A) (A) (A)
                 (A) (A) (A) (A) (A) (A) (A) (A) (A) (A) (A) (A)
                 (A) (A) (A) (A) (A) (A) (A) (A) (A) (A) (A) (A)
                 (A) (A) (A) (A) (A) (A) (A) (A) (A) (A) (A) (A)
                 (A) (A) (A) (A) (A) (A) (A) (A) (A) (A) (A) (A)
                 (A) (A) (A) (A) (A) (A) (A) (A) (A) (A) (A) (A)
                 (A) (A) (A) (A) (A) (A) (A) (A) (A) (A) (A) (A)
                 (A) (A) (A) (A) (A) (A) (A) (A) (A) (A) (A) (A)
                 (A) (A) (A) (A) (A) (A) (A) (A) (A) (A) (A) (A)
                 (A) (A) (A) (A) (A) (A) (A) (A) (A) (A) (A) (A)
                 (A) (A) (A) (A) (A) (A) (A) (A) (A) (A) (A) (A)
                 (A) (A) (A) (A) (A) (A) (A) (A) (A) (A) (A) (A)
                 (A) (A) (A) (A) (A) (A) (A) (A) (A) (A) (A) (A)
                 (A) (A) (A) (A) (A) (A) (A) (A) (A) (A) (A) (A)
                 (A) (A) (A) (A) (A) (A) (A) (A) (A) (A) (A) (A)
                 (A) (A) (A) (A) (A) (A) (A) (A) (A) (A) (A) (A)
                 (A) (A) (A) (A) (A) (A) (A) (A) (A) (A) (A) (A)
                 (A) (A) (A) (A) (A) (A) (A) (A) (A) (A) (A) (A)
                 (A) (A) (A) (A) (A) (A) (A) (A) (A) (A) (A) (A)
                 (A) (A) (A) (A) (A) (A) (A) (A) (A) (A) (A) (A)
                 (A) (A) (A) (A) (A) (A) (A) (A) (A) (A) (A) (A)
                 (A) (A) (A) (A) (A) (A) (A) (A) (A) (A) (A) (A)
                 (A) (A) (A) (A) (A) (A) (A) (A) (A) (A) (A) (A)
                 (A) (A) (A) (A) (A) (A) (A) (A) (A) (A) (A) (A)
                 (A) (A) (A) (A) (A) (A) (A) (A) (A) (A) (A) (A)
                 (A) (A) (A) (A) (A) (A) (A) (A) (A) (A) (A) (A)
                 (A) (A) (A) (A) (A) (A) (A) (A) (A) (A) (A) (A)
                 (A) (A) (A) (A) (A) (A) (A) (A) (A) (A) (A) (A)
                 (A) (A) (A) (A) (A) (A) (A) (A) (A) (A) (A) (A)
                 (A) (A) (A) (A) (A) (A) (A) (A) (A) (A) (A) (A)
                 (A) (A) (A) (A) (A) (A) (A) (A) (A) (A) (A) (A)
                 (A) (A) (A) (A) (A) (A) (A) (A) (A) (A) (A) (A)
                 (A) (A) (A) (A) (A) (A) (A) (A) (A) (A) (A) (A)
                 (A) (A) (A) (A) (A) (A) (A) (A) (A) (A) (A) (A)
                 (A) (A) (A) (A) (A) (A) (A) (A) (A) (A) (A) (A)
                 (A) (A) (A) (A) (A) (A) (A) (A) (A) (A) (A) (A)
                 (A) (A) (A) (A) (A) (A) (A) (A) (A) (A) (A) (A)
                 (A) (A) (A) (A) (A) (A) (A) (A) (A) (A) (A) (A)
                 (A) (A) (A) (A) (A) (A) (A) (A) (A) (A) (A) (A)
                 (A) (A) (A) (A) (A) (A) (A) (A) (A) (A) (A) (A)
                 (A) (A) (A) (A) (A) (A) (A) (A) (A) (A) (A) (A)
                 (A) (A) (A) (A) (A) (A) (A) (A) (A) (A) (A) (A)
                 (A) (A) (A) (A) (A) (A) (A) (A) (A) (A) (A) (A)
                 (A) (A) (A) (A) (A) (A) (A) (A) (A) (A) (A) (A)
                 (A) (A) (A) (A) (A) (A) (A) (A) (A) (A) (A) (A)
                 (A) (A) (A) (A) (A) (A) (A) (A) (A) (A) (A) (A)
                 (A) (A) (A) (A) (A) (A) (A) (A) (A) (A) (A) (A)
                 (A) (A) (A) (A) (A) (A) (A) (A) (A) (A) (A) (A)
                 (A) (A) (A) (A) (A) (A) (A) (A) (A) (A) (A) (A)
                 (A) (A) (A) (A) (A) (A) (A) (A) (A) (A) (A) (A)
                 (A) (A) (A) (A) (A) (A) (A) (A) (A) (A) (A) (A)
                 (A) (A) (A) (A) (A) (A) (A) (A) (A) (A) (A) (A)
                 (A) (A) (A) (A) (A) (A) (A) (A) (A) (A) (A) (A)
                 (A) (A) (A) (A) (A) (A) (A) (A) (A) (A) (A) (A)
                 (A) (A) (A) (A) (A) (A) (A) (A) (A) (A) (A) (A)
                 (A) (A) (A) (A) (A) (A) (A) (A) (A) (A) (A) (A)
                 (A) (A) (A) (A) (A) (A) (A) (A) (A) (A) (A) (A)
                 (A) (A) (A) (A) (A) (A) (A) (A) (A) (A) (A) (A)
                 (A) (A) (A) (A) (A) (A) (A) (A) (A) (A) (A) (A)
                 (A) (A) (A) (A) (A) (A) (A) (A) (A) (A) (A) (A)
                 (A) (A) (A) (A) (A) (A) (A) (A) (A) (A) (A) (A)
                 (A) (A) (A) (A) (A) (A) (A) (A) (A) (A) (A) (A)
                 (A) (A) (A) (A) (A) (A) (A) (A) (A) (A) (A) (A)
                 (A) (A) (A) (A) (A) (A) (A) (A) (A) (A) (A) (A)
                 (A) (A) (A) (A) (A) (A) (A) (A) (A) (A) (A) (A)
                 (A) (A) (A) (A) (A) (A) (A) (A) (A) (A) (A) (A)
                 (A) (A) (A) (A) (A) (A) (A) (A) (A) (A) (A) (A)
                 (A) (A) (A) (A) (A) (A) (A) (A) (A) (A) (A) (A)
                 (A) (A) (A) (A) (A) (A) (A) (A) (A) (A) (A) (A)
                 (A) (A) (A) (A) (A) (A) (A) (A) (A) (A) (A) (A)
                 (A) (A) (A) (A) (A) (A) (A) (A) (A) (A) (A) (A)
                 (A) (A) (A) (A) (A) (A) (A) (A) (A) (A) (A) (A)
                 (A) (A) (A) (A) (A) (A) (A) (A) (A) (A) (A) (A)
                 (A) (A) (A) (A) (A) (A) (A) (A) (A) (A) (A) (A)
                 (A) (A) (A) (A) (A) (A) (A) (A) (A) (A) (A) (A)
                 (A) (A) (A) (A) (A) (A) (A) (A) (A) (A) (A) (A)
                 (A) (A) (A) (A) (A) (A) (A) (A) (A) (A) (A) (A)
                 (A) (A) (A) (A) (A) (A) (A) (A) (A) (A) (A) (A)
                 (A) (A) (A) (A) (A) (A) (A) (A) (A) (A) (A) (A)
                 (A) (A) (A) (A) (A) (A) (A) (A) (A) (A) (A) (A)
                 (A) (A) (A) (A) (A) (A) (A) (A) (A) (A) (A) (A)
                 (A) (A) (A) (A) (A) (A) (A) (A) (A) (A) (A) (A)
                 (A) (A) (A) (A) (A) (A) (A) (A) (A) (A) (A) (A)
                 (A) (A) (A) (A) (A) (A) (A) (A) (A) (A) (A) (A)
                 (A) (A) (A) (A) (A) (A) (A) (A) (A) (A) (A) (A)
                 (A) (A) (A) (A) (A) (A) (A) (A) (A) (A) (A) (A)
                 (A) (A) (A) (A) (A) (A) (A) (A) (A) (A) (A) (A)
                 (A) (A) (A) (A) (A) (A) (A) (A) (A) (A) (A) (A)
                 (A) (A) (A) (A) (A) (A) (A) (A) (A) (A) (A) (A)
                 (A) (A) (A) (A) (A) (A) (A) (A) (A) (A) (A) (A)
                 (A) (A) (A) (A) (A) (A) (A) (A) (A) (A) (A) (A)
                 (A) (A) (A) (A) (A) (A) (A) (A) (A) (A) (A) (A)
                 (A) (A) (A) (A) (A) (A) (A) (A) (A) (A) (A) (A)
                 (A) (A) (A) (A) (A) (A)
 The electronic state is 1-A.
 Alpha  occ. eigenvalues -- -256.17401 -30.02338 -25.86506 -25.86112 -25.86084
 Alpha  occ. eigenvalues --  -19.17479 -14.41426 -14.35975 -14.33073 -14.32999
 Alpha  occ. eigenvalues --  -14.32912 -14.32823 -10.25110 -10.23387 -10.20867
 Alpha  occ. eigenvalues --  -10.20753 -10.20723 -10.20703 -10.20692 -10.20644
 Alpha  occ. eigenvalues --  -10.20510 -10.20494 -10.20470 -10.20453 -10.19431
 Alpha  occ. eigenvalues --  -10.19401 -10.18778 -10.18776 -10.18758 -10.18687
 Alpha  occ. eigenvalues --  -10.18659 -10.18587 -10.18445 -10.18427 -10.18370
 Alpha  occ. eigenvalues --  -10.18325 -10.18316 -10.18313 -10.18295 -10.18255
 Alpha  occ. eigenvalues --  -10.18158 -10.18137 -10.18129 -10.18120 -10.18009
 Alpha  occ. eigenvalues --  -10.17982  -3.39959  -2.16595  -2.15830  -2.15762
 Alpha  occ. eigenvalues --   -1.05235  -1.05032  -0.96704  -0.95830  -0.95654
 Alpha  occ. eigenvalues --   -0.94776  -0.90588  -0.82034  -0.81645  -0.81336
 Alpha  occ. eigenvalues --   -0.80603  -0.80239  -0.79967  -0.79377  -0.79297
 Alpha  occ. eigenvalues --   -0.76554  -0.75494  -0.74150  -0.73736  -0.73027
 Alpha  occ. eigenvalues --   -0.71555  -0.70783  -0.69896  -0.68160  -0.67741
 Alpha  occ. eigenvalues --   -0.67630  -0.64255  -0.63949  -0.63845  -0.61013
 Alpha  occ. eigenvalues --   -0.60836  -0.60405  -0.59809  -0.57603  -0.56403
 Alpha  occ. eigenvalues --   -0.55666  -0.54337  -0.53476  -0.53090  -0.52391
 Alpha  occ. eigenvalues --   -0.50890  -0.50861  -0.50368  -0.48582  -0.47682
 Alpha  occ. eigenvalues --   -0.47527  -0.47268  -0.47121  -0.44869  -0.44589
 Alpha  occ. eigenvalues --   -0.44405  -0.44329  -0.43977  -0.43395  -0.43275
 Alpha  occ. eigenvalues --   -0.43164  -0.43020  -0.42908  -0.42643  -0.42348
 Alpha  occ. eigenvalues --   -0.42239  -0.42200  -0.41574  -0.41492  -0.41462
 Alpha  occ. eigenvalues --   -0.41182  -0.41154  -0.40053  -0.39985  -0.39910
 Alpha  occ. eigenvalues --   -0.39376  -0.39366  -0.39099  -0.38844  -0.38402
 Alpha  occ. eigenvalues --   -0.38149  -0.37643  -0.37442  -0.36986  -0.36790
 Alpha  occ. eigenvalues --   -0.36221  -0.35797  -0.35379  -0.35278  -0.34277
 Alpha  occ. eigenvalues --   -0.34220  -0.33838  -0.33576  -0.33051  -0.31675
 Alpha  occ. eigenvalues --   -0.31554  -0.30623  -0.30105  -0.29523  -0.28742
 Alpha  occ. eigenvalues --   -0.28291  -0.26527  -0.26430  -0.24216  -0.23638
 Alpha  occ. eigenvalues --   -0.23171  -0.22442  -0.21757  -0.19054  -0.18179
 Alpha  occ. eigenvalues --   -0.17788  -0.17636  -0.17518
 Alpha virt. eigenvalues --   -0.06379  -0.06272  -0.01871   0.00750   0.01089
 Alpha virt. eigenvalues --    0.01814   0.02405   0.03189   0.03617   0.04772
 Alpha virt. eigenvalues --    0.04884   0.05277   0.05545   0.05836   0.05953
 Alpha virt. eigenvalues --    0.06433   0.06689   0.07124   0.08018   0.08205
 Alpha virt. eigenvalues --    0.08392   0.08974   0.09239   0.09537   0.09762
 Alpha virt. eigenvalues --    0.10000   0.10229   0.10704   0.11337   0.11497
 Alpha virt. eigenvalues --    0.11737   0.11918   0.11930   0.12201   0.12531
 Alpha virt. eigenvalues --    0.12609   0.12903   0.13323   0.13538   0.13666
 Alpha virt. eigenvalues --    0.13719   0.14369   0.14461   0.14663   0.14737
 Alpha virt. eigenvalues --    0.14945   0.15045   0.15443   0.15597   0.15743
 Alpha virt. eigenvalues --    0.15899   0.16084   0.16214   0.16403   0.16702
 Alpha virt. eigenvalues --    0.17084   0.17326   0.17465   0.17794   0.18050
 Alpha virt. eigenvalues --    0.18415   0.18827   0.19335   0.19515   0.20039
 Alpha virt. eigenvalues --    0.20186   0.20347   0.20621   0.20791   0.21077
 Alpha virt. eigenvalues --    0.21228   0.21527   0.21685   0.21827   0.22346
 Alpha virt. eigenvalues --    0.22561   0.22889   0.23337   0.23342   0.24043
 Alpha virt. eigenvalues --    0.24315   0.24525   0.25011   0.25291   0.25508
 Alpha virt. eigenvalues --    0.25695   0.25915   0.26355   0.26596   0.26737
 Alpha virt. eigenvalues --    0.27178   0.27377   0.27586   0.27854   0.28140
 Alpha virt. eigenvalues --    0.28335   0.28810   0.29144   0.29280   0.29446
 Alpha virt. eigenvalues --    0.29725   0.30173   0.30454   0.30599   0.30799
 Alpha virt. eigenvalues --    0.31020   0.31470   0.31551   0.31682   0.32152
 Alpha virt. eigenvalues --    0.32536   0.32635   0.32986   0.33345   0.33645
 Alpha virt. eigenvalues --    0.33760   0.34219   0.34493   0.34690   0.34821
 Alpha virt. eigenvalues --    0.34962   0.35444   0.35830   0.36253   0.36379
 Alpha virt. eigenvalues --    0.36772   0.37008   0.37221   0.37496   0.37704
 Alpha virt. eigenvalues --    0.37925   0.37991   0.38516   0.38735   0.39001
 Alpha virt. eigenvalues --    0.39234   0.39388   0.39592   0.39636   0.40296
 Alpha virt. eigenvalues --    0.40341   0.40578   0.40798   0.41092   0.41279
 Alpha virt. eigenvalues --    0.41586   0.41588   0.41780   0.42067   0.42273
 Alpha virt. eigenvalues --    0.42536   0.42615   0.42743   0.43392   0.43557
 Alpha virt. eigenvalues --    0.43841   0.44071   0.44202   0.44315   0.44466
 Alpha virt. eigenvalues --    0.44787   0.44949   0.45230   0.45366   0.45838
 Alpha virt. eigenvalues --    0.46111   0.46306   0.46497   0.46826   0.46933
 Alpha virt. eigenvalues --    0.47209   0.47284   0.47569   0.47600   0.47750
 Alpha virt. eigenvalues --    0.47962   0.48296   0.48427   0.48808   0.48886
 Alpha virt. eigenvalues --    0.49325   0.49553   0.49665   0.49783   0.49911
 Alpha virt. eigenvalues --    0.50134   0.50413   0.50555   0.50985   0.51254
 Alpha virt. eigenvalues --    0.51341   0.51541   0.51881   0.52005   0.52150
 Alpha virt. eigenvalues --    0.52390   0.52646   0.52727   0.52933   0.53377
 Alpha virt. eigenvalues --    0.53647   0.54104   0.54369   0.54618   0.54789
 Alpha virt. eigenvalues --    0.55034   0.55453   0.55537   0.55599   0.56108
 Alpha virt. eigenvalues --    0.56350   0.56551   0.56658   0.56929   0.57165
 Alpha virt. eigenvalues --    0.57378   0.57725   0.58133   0.58298   0.58499
 Alpha virt. eigenvalues --    0.58783   0.58828   0.59464   0.59671   0.60398
 Alpha virt. eigenvalues --    0.60455   0.60697   0.61198   0.61818   0.62214
 Alpha virt. eigenvalues --    0.62317   0.62535   0.62951   0.63155   0.63364
 Alpha virt. eigenvalues --    0.63502   0.64076   0.64340   0.64587   0.64826
 Alpha virt. eigenvalues --    0.64986   0.65241   0.65737   0.65866   0.66206
 Alpha virt. eigenvalues --    0.66626   0.66813   0.66906   0.67178   0.67568
 Alpha virt. eigenvalues --    0.68018   0.68532   0.68808   0.69187   0.69693
 Alpha virt. eigenvalues --    0.69766   0.70696   0.70829   0.70950   0.71372
 Alpha virt. eigenvalues --    0.71749   0.71825   0.72179   0.72230   0.72671
 Alpha virt. eigenvalues --    0.72857   0.73531   0.73738   0.73802   0.74118
 Alpha virt. eigenvalues --    0.74777   0.74925   0.75006   0.75787   0.76087
 Alpha virt. eigenvalues --    0.76325   0.76651   0.77438   0.77705   0.78029
 Alpha virt. eigenvalues --    0.78125   0.78308   0.78697   0.78792   0.79252
 Alpha virt. eigenvalues --    0.79700   0.79807   0.80151   0.80486   0.80550
 Alpha virt. eigenvalues --    0.80927   0.81218   0.81618   0.81988   0.82543
 Alpha virt. eigenvalues --    0.83083   0.83417   0.83773   0.84760   0.84946
 Alpha virt. eigenvalues --    0.85467   0.85656   0.85935   0.86708   0.87053
 Alpha virt. eigenvalues --    0.87309   0.87710   0.87990   0.88278   0.88391
 Alpha virt. eigenvalues --    0.89042   0.89362   0.89740   0.90030   0.90306
 Alpha virt. eigenvalues --    0.90735   0.91384   0.91562   0.92209   0.92690
 Alpha virt. eigenvalues --    0.93053   0.93103   0.93237   0.94149   0.94604
 Alpha virt. eigenvalues --    0.94763   0.95006   0.95351   0.95609   0.95988
 Alpha virt. eigenvalues --    0.96144   0.96946   0.97216   0.97992   0.98277
 Alpha virt. eigenvalues --    0.98548   0.98661   0.98971   0.99422   0.99574
 Alpha virt. eigenvalues --    0.99769   1.00365   1.00584   1.00863   1.01352
 Alpha virt. eigenvalues --    1.01519   1.01896   1.02172   1.02500   1.02917
 Alpha virt. eigenvalues --    1.02944   1.03312   1.03697   1.03878   1.04318
 Alpha virt. eigenvalues --    1.04626   1.04778   1.05043   1.05558   1.06012
 Alpha virt. eigenvalues --    1.06457   1.06710   1.06814   1.07517   1.07901
 Alpha virt. eigenvalues --    1.08468   1.08826   1.09389   1.09738   1.09981
 Alpha virt. eigenvalues --    1.10279   1.10385   1.11573   1.12045   1.12370
 Alpha virt. eigenvalues --    1.12502   1.13151   1.13565   1.13683   1.14205
 Alpha virt. eigenvalues --    1.14823   1.15132   1.15689   1.16533   1.16727
 Alpha virt. eigenvalues --    1.16863   1.17511   1.17875   1.18202   1.18685
 Alpha virt. eigenvalues --    1.19064   1.19232   1.19704   1.19847   1.20482
 Alpha virt. eigenvalues --    1.20832   1.21096   1.21556   1.21807   1.22225
 Alpha virt. eigenvalues --    1.22743   1.23251   1.23592   1.23836   1.24471
 Alpha virt. eigenvalues --    1.24755   1.25983   1.26295   1.26440   1.27234
 Alpha virt. eigenvalues --    1.27425   1.27810   1.28203   1.28387   1.28842
 Alpha virt. eigenvalues --    1.29105   1.29377   1.29509   1.29798   1.30624
 Alpha virt. eigenvalues --    1.30813   1.31320   1.31503   1.31868   1.32444
 Alpha virt. eigenvalues --    1.32661   1.32898   1.33577   1.34328   1.34712
 Alpha virt. eigenvalues --    1.35178   1.36363   1.36675   1.37424   1.37778
 Alpha virt. eigenvalues --    1.38552   1.38906   1.39569   1.40295   1.40710
 Alpha virt. eigenvalues --    1.41058   1.41873   1.42104   1.42989   1.43297
 Alpha virt. eigenvalues --    1.43548   1.44176   1.44779   1.45065   1.45267
 Alpha virt. eigenvalues --    1.46281   1.46401   1.47032   1.47455   1.47534
 Alpha virt. eigenvalues --    1.47921   1.48345   1.48533   1.48753   1.49326
 Alpha virt. eigenvalues --    1.49532   1.50070   1.50482   1.50660   1.50812
 Alpha virt. eigenvalues --    1.51191   1.51460   1.51562   1.51897   1.52088
 Alpha virt. eigenvalues --    1.52387   1.52624   1.52773   1.53123   1.53420
 Alpha virt. eigenvalues --    1.53951   1.54016   1.54285   1.54660   1.54963
 Alpha virt. eigenvalues --    1.55286   1.55561   1.55682   1.55885   1.55985
 Alpha virt. eigenvalues --    1.56479   1.56886   1.56984   1.57270   1.57649
 Alpha virt. eigenvalues --    1.57837   1.58064   1.58332   1.58704   1.58971
 Alpha virt. eigenvalues --    1.59205   1.59496   1.59636   1.60002   1.60616
 Alpha virt. eigenvalues --    1.61111   1.61215   1.61608   1.62144   1.62548
 Alpha virt. eigenvalues --    1.62770   1.63000   1.63105   1.63468   1.63479
 Alpha virt. eigenvalues --    1.63863   1.64109   1.64676   1.64860   1.65378
 Alpha virt. eigenvalues --    1.65526   1.66160   1.66309   1.66579   1.66791
 Alpha virt. eigenvalues --    1.67181   1.67369   1.67615   1.68017   1.68543
 Alpha virt. eigenvalues --    1.69065   1.69341   1.69558   1.69754   1.70232
 Alpha virt. eigenvalues --    1.70763   1.70844   1.71273   1.71873   1.72008
 Alpha virt. eigenvalues --    1.72649   1.73117   1.73297   1.73874   1.74223
 Alpha virt. eigenvalues --    1.74330   1.74794   1.75060   1.75973   1.76329
 Alpha virt. eigenvalues --    1.77558   1.77961   1.78212   1.78403   1.79294
 Alpha virt. eigenvalues --    1.80047   1.81291   1.81421   1.81936   1.82779
 Alpha virt. eigenvalues --    1.83017   1.83565   1.83927   1.84330   1.84726
 Alpha virt. eigenvalues --    1.85383   1.85539   1.85986   1.86184   1.86654
 Alpha virt. eigenvalues --    1.87242   1.87325   1.87699   1.87982   1.88078
 Alpha virt. eigenvalues --    1.88759   1.89133   1.89814   1.90391   1.90513
 Alpha virt. eigenvalues --    1.90922   1.91600   1.92085   1.92556   1.93344
 Alpha virt. eigenvalues --    1.94135   1.95012   1.95105   1.95505   1.95755
 Alpha virt. eigenvalues --    1.96076   1.96909   1.97345   1.97642   1.97807
 Alpha virt. eigenvalues --    1.98380   1.98549   1.99167   1.99779   2.00117
 Alpha virt. eigenvalues --    2.00280   2.00976   2.01255   2.01744   2.02136
 Alpha virt. eigenvalues --    2.02302   2.02899   2.03131   2.04062   2.04826
 Alpha virt. eigenvalues --    2.05010   2.05711   2.06261   2.06668   2.07144
 Alpha virt. eigenvalues --    2.07984   2.08642   2.08898   2.09383   2.09805
 Alpha virt. eigenvalues --    2.10077   2.10253   2.10334   2.11261   2.11543
 Alpha virt. eigenvalues --    2.11821   2.12454   2.12918   2.13325   2.13857
 Alpha virt. eigenvalues --    2.14398   2.14493   2.15120   2.15491   2.15912
 Alpha virt. eigenvalues --    2.16173   2.16491   2.16864   2.17220   2.18619
 Alpha virt. eigenvalues --    2.19113   2.19499   2.19968   2.20005   2.20423
 Alpha virt. eigenvalues --    2.21260   2.21540   2.21900   2.22290   2.22667
 Alpha virt. eigenvalues --    2.22956   2.23840   2.24744   2.24998   2.25383
 Alpha virt. eigenvalues --    2.25794   2.25967   2.27005   2.27279   2.27585
 Alpha virt. eigenvalues --    2.28134   2.28442   2.28976   2.29506   2.29943
 Alpha virt. eigenvalues --    2.30316   2.31096   2.31144   2.31316   2.31826
 Alpha virt. eigenvalues --    2.32381   2.32874   2.32978   2.33353   2.34115
 Alpha virt. eigenvalues --    2.34417   2.35367   2.35401   2.35688   2.36351
 Alpha virt. eigenvalues --    2.36451   2.36873   2.37481   2.37587   2.37622
 Alpha virt. eigenvalues --    2.38271   2.39325   2.39519   2.39926   2.40246
 Alpha virt. eigenvalues --    2.40404   2.40737   2.41863   2.42312   2.42701
 Alpha virt. eigenvalues --    2.43406   2.43648   2.43858   2.44658   2.44947
 Alpha virt. eigenvalues --    2.45653   2.45858   2.46132   2.46643   2.46959
 Alpha virt. eigenvalues --    2.47306   2.47711   2.48059   2.48414   2.49099
 Alpha virt. eigenvalues --    2.49828   2.50191   2.50346   2.51083   2.51441
 Alpha virt. eigenvalues --    2.51810   2.52296   2.52717   2.52915   2.53502
 Alpha virt. eigenvalues --    2.53758   2.53985   2.54432   2.55056   2.55674
 Alpha virt. eigenvalues --    2.55790   2.56677   2.56864   2.57040   2.57463
 Alpha virt. eigenvalues --    2.58060   2.58291   2.58312   2.58664   2.59077
 Alpha virt. eigenvalues --    2.59274   2.60325   2.60540   2.60809   2.61124
 Alpha virt. eigenvalues --    2.61151   2.61741   2.62032   2.62596   2.63048
 Alpha virt. eigenvalues --    2.63288   2.63823   2.64619   2.64869   2.65356
 Alpha virt. eigenvalues --    2.65611   2.65760   2.66180   2.66886   2.66996
 Alpha virt. eigenvalues --    2.67425   2.68035   2.68508   2.68712   2.69184
 Alpha virt. eigenvalues --    2.69387   2.70060   2.70679   2.70756   2.71036
 Alpha virt. eigenvalues --    2.71595   2.72286   2.72379   2.72843   2.72950
 Alpha virt. eigenvalues --    2.73348   2.73539   2.74267   2.74841   2.75240
 Alpha virt. eigenvalues --    2.75512   2.75847   2.76600   2.77101   2.77649
 Alpha virt. eigenvalues --    2.78142   2.78269   2.78765   2.78915   2.79732
 Alpha virt. eigenvalues --    2.80202   2.80367   2.80774   2.81631   2.81989
 Alpha virt. eigenvalues --    2.82138   2.82919   2.83196   2.83577   2.84385
 Alpha virt. eigenvalues --    2.84682   2.84818   2.85228   2.85424   2.85466
 Alpha virt. eigenvalues --    2.86399   2.86905   2.87231   2.87616   2.87999
 Alpha virt. eigenvalues --    2.88161   2.88738   2.89359   2.89740   2.89912
 Alpha virt. eigenvalues --    2.89955   2.90218   2.90896   2.91281   2.91674
 Alpha virt. eigenvalues --    2.92171   2.92624   2.93083   2.93699   2.94212
 Alpha virt. eigenvalues --    2.94713   2.94827   2.95008   2.95328   2.95703
 Alpha virt. eigenvalues --    2.95952   2.96241   2.96870   2.96988   2.97518
 Alpha virt. eigenvalues --    2.97783   2.97915   2.98478   2.99002   2.99162
 Alpha virt. eigenvalues --    2.99594   3.00121   3.00297   3.00440   3.01052
 Alpha virt. eigenvalues --    3.01349   3.01797   3.02219   3.02832   3.03109
 Alpha virt. eigenvalues --    3.03400   3.03737   3.04064   3.04674   3.05095
 Alpha virt. eigenvalues --    3.05684   3.05811   3.06077   3.06587   3.06792
 Alpha virt. eigenvalues --    3.07070   3.07718   3.07959   3.08242   3.08640
 Alpha virt. eigenvalues --    3.09086   3.09398   3.09539   3.09881   3.10797
 Alpha virt. eigenvalues --    3.10976   3.11224   3.11532   3.11949   3.12102
 Alpha virt. eigenvalues --    3.12597   3.13062   3.13239   3.13631   3.14039
 Alpha virt. eigenvalues --    3.14179   3.14568   3.14621   3.15130   3.15312
 Alpha virt. eigenvalues --    3.15628   3.16304   3.16751   3.17001   3.17216
 Alpha virt. eigenvalues --    3.17592   3.18318   3.18417   3.18910   3.19105
 Alpha virt. eigenvalues --    3.19248   3.19598   3.20158   3.20601   3.20816
 Alpha virt. eigenvalues --    3.21124   3.21200   3.21359   3.21736   3.22112
 Alpha virt. eigenvalues --    3.22615   3.22710   3.22975   3.23450   3.23717
 Alpha virt. eigenvalues --    3.24039   3.24228   3.24736   3.25319   3.25529
 Alpha virt. eigenvalues --    3.25757   3.25898   3.26286   3.26457   3.26711
 Alpha virt. eigenvalues --    3.26927   3.27119   3.27832   3.28053   3.28150
 Alpha virt. eigenvalues --    3.28491   3.28605   3.28881   3.29540   3.29760
 Alpha virt. eigenvalues --    3.30102   3.30339   3.30447   3.30548   3.31004
 Alpha virt. eigenvalues --    3.31185   3.31268   3.31464   3.31881   3.31969
 Alpha virt. eigenvalues --    3.32979   3.33021   3.33435   3.33717   3.34074
 Alpha virt. eigenvalues --    3.34221   3.34785   3.34842   3.35330   3.35627
 Alpha virt. eigenvalues --    3.35881   3.36188   3.36629   3.36753   3.36924
 Alpha virt. eigenvalues --    3.37041   3.37256   3.37510   3.37891   3.38279
 Alpha virt. eigenvalues --    3.38832   3.39123   3.39296   3.39575   3.39665
 Alpha virt. eigenvalues --    3.40088   3.40242   3.40657   3.40915   3.41115
 Alpha virt. eigenvalues --    3.41422   3.42265   3.42692   3.43048   3.43269
 Alpha virt. eigenvalues --    3.43547   3.44164   3.44511   3.44732   3.44972
 Alpha virt. eigenvalues --    3.45289   3.45820   3.46300   3.46795   3.46825
 Alpha virt. eigenvalues --    3.47377   3.47875   3.48258   3.48662   3.49363
 Alpha virt. eigenvalues --    3.49474   3.49974   3.50283   3.50832   3.52044
 Alpha virt. eigenvalues --    3.52181   3.52523   3.52906   3.54057   3.54443
 Alpha virt. eigenvalues --    3.54813   3.55036   3.55612   3.55679   3.56151
 Alpha virt. eigenvalues --    3.56361   3.57038   3.57095   3.58439   3.58584
 Alpha virt. eigenvalues --    3.59260   3.59395   3.59961   3.60294   3.60901
 Alpha virt. eigenvalues --    3.61108   3.61518   3.61775   3.62568   3.63104
 Alpha virt. eigenvalues --    3.64083   3.64558   3.64945   3.65466   3.65681
 Alpha virt. eigenvalues --    3.66275   3.66630   3.66649   3.67392   3.67936
 Alpha virt. eigenvalues --    3.68299   3.68477   3.69056   3.69810   3.70171
 Alpha virt. eigenvalues --    3.70380   3.71393   3.71496   3.71568   3.72203
 Alpha virt. eigenvalues --    3.72317   3.72712   3.73137   3.73817   3.74024
 Alpha virt. eigenvalues --    3.74737   3.75071   3.75388   3.75507   3.75849
 Alpha virt. eigenvalues --    3.76044   3.76380   3.77550   3.78156   3.78689
 Alpha virt. eigenvalues --    3.79584   3.80159   3.80200   3.80835   3.81563
 Alpha virt. eigenvalues --    3.82126   3.82583   3.82964   3.83123   3.84012
 Alpha virt. eigenvalues --    3.84670   3.85433   3.85948   3.86296   3.86912
 Alpha virt. eigenvalues --    3.87846   3.88310   3.88798   3.89608   3.90224
 Alpha virt. eigenvalues --    3.90902   3.91213   3.91764   3.91928   3.92293
 Alpha virt. eigenvalues --    3.92781   3.93300   3.94374   3.94884   3.95956
 Alpha virt. eigenvalues --    3.96464   3.97428   3.97881   3.98599   3.98922
 Alpha virt. eigenvalues --    3.99838   3.99844   4.00603   4.01088   4.01666
 Alpha virt. eigenvalues --    4.01911   4.02236   4.03669   4.04474   4.04733
 Alpha virt. eigenvalues --    4.04888   4.05440   4.05874   4.06415   4.07190
 Alpha virt. eigenvalues --    4.07972   4.08418   4.09507   4.10322   4.10962
 Alpha virt. eigenvalues --    4.12005   4.12070   4.13181   4.14167   4.14676
 Alpha virt. eigenvalues --    4.15288   4.15690   4.16586   4.17083   4.17720
 Alpha virt. eigenvalues --    4.17977   4.18308   4.18497   4.18878   4.19991
 Alpha virt. eigenvalues --    4.20379   4.20710   4.20907   4.21392   4.21650
 Alpha virt. eigenvalues --    4.22030   4.22558   4.23554   4.24263   4.25220
 Alpha virt. eigenvalues --    4.26046   4.26245   4.27114   4.27544   4.27983
 Alpha virt. eigenvalues --    4.28829   4.29082   4.29954   4.30319   4.31154
 Alpha virt. eigenvalues --    4.31665   4.32038   4.32578   4.33446   4.34569
 Alpha virt. eigenvalues --    4.34763   4.34995   4.35325   4.35704   4.36337
 Alpha virt. eigenvalues --    4.37710   4.38669   4.39099   4.39329   4.39785
 Alpha virt. eigenvalues --    4.40807   4.41394   4.41476   4.41951   4.42508
 Alpha virt. eigenvalues --    4.42985   4.43866   4.43920   4.44570   4.45274
 Alpha virt. eigenvalues --    4.45552   4.46390   4.46692   4.46831   4.46918
 Alpha virt. eigenvalues --    4.47134   4.48387   4.49106   4.49299   4.50062
 Alpha virt. eigenvalues --    4.51061   4.52033   4.52711   4.53641   4.54548
 Alpha virt. eigenvalues --    4.54832   4.56012   4.56581   4.56992   4.57836
 Alpha virt. eigenvalues --    4.58507   4.59559   4.60383   4.61934   4.63410
 Alpha virt. eigenvalues --    4.65227   4.66170   4.66773   4.67177   4.68366
 Alpha virt. eigenvalues --    4.68900   4.69514   4.70071   4.70193   4.71979
 Alpha virt. eigenvalues --    4.72520   4.73468   4.73497   4.74059   4.74470
 Alpha virt. eigenvalues --    4.76068   4.76381   4.76779   4.78068   4.80281
 Alpha virt. eigenvalues --    4.80950   4.81620   4.83069   4.83360   4.83813
 Alpha virt. eigenvalues --    4.84095   4.84622   4.85057   4.85513   4.86229
 Alpha virt. eigenvalues --    4.86817   4.87931   4.88729   4.89143   4.90277
 Alpha virt. eigenvalues --    4.91605   4.91916   4.92581   4.93865   4.95273
 Alpha virt. eigenvalues --    4.96242   4.96687   4.96838   4.97683   4.98607
 Alpha virt. eigenvalues --    4.99071   5.00085   5.00787   5.02605   5.03120
 Alpha virt. eigenvalues --    5.04005   5.04454   5.04755   5.05481   5.07015
 Alpha virt. eigenvalues --    5.07509   5.07794   5.08818   5.09893   5.10634
 Alpha virt. eigenvalues --    5.11465   5.11932   5.14155   5.14963   5.16560
 Alpha virt. eigenvalues --    5.17877   5.18505   5.20019   5.20752   5.21375
 Alpha virt. eigenvalues --    5.22275   5.22750   5.23348   5.24726   5.26507
 Alpha virt. eigenvalues --    5.26664   5.27800   5.29136   5.31095   5.32264
 Alpha virt. eigenvalues --    5.34345   5.35561   5.36516   5.37909   5.38262
 Alpha virt. eigenvalues --    5.38881   5.39361   5.40046   5.40591   5.41731
 Alpha virt. eigenvalues --    5.42126   5.42926   5.44622   5.46210   5.48391
 Alpha virt. eigenvalues --    5.49770   5.50108   5.50745   5.52189   5.52474
 Alpha virt. eigenvalues --    5.52903   5.53795   5.57128   5.57747   5.60873
 Alpha virt. eigenvalues --    5.61867   5.63137   5.63501   5.63552   5.64419
 Alpha virt. eigenvalues --    5.66084   5.66267   5.67884   5.68368   5.69279
 Alpha virt. eigenvalues --    5.71481   5.74743   5.76416   5.77698   5.78644
 Alpha virt. eigenvalues --    5.81349   5.82220   5.90661   5.92607   5.93886
 Alpha virt. eigenvalues --    5.95286   5.99331   6.02141   6.03221   6.03845
 Alpha virt. eigenvalues --    6.09748   6.12180   6.12966   6.14233   6.15325
 Alpha virt. eigenvalues --    6.18473   6.19736   6.24435   6.27238   6.35170
 Alpha virt. eigenvalues --    6.35485   6.41919   6.45770   6.52352   6.54421
 Alpha virt. eigenvalues --    6.65986   6.96909   7.28201  22.36405  22.36834
 Alpha virt. eigenvalues --   22.44328  22.46126  22.46880  22.52762  22.54003
 Alpha virt. eigenvalues --   22.62165  22.62639  22.79116  22.86083  22.87469
 Alpha virt. eigenvalues --   22.92891  22.95360  22.95921  22.96432  22.97853
 Alpha virt. eigenvalues --   23.04097  23.04496  23.11275  23.15321  23.27796
 Alpha virt. eigenvalues --   23.29185  23.31411  23.32768  23.42329  23.42737
 Alpha virt. eigenvalues --   23.51411  23.52006  23.56083  23.74927  23.80054
 Alpha virt. eigenvalues --   23.80956  23.90344  32.40922  32.80748  32.92451
 Alpha virt. eigenvalues --   32.96344  33.05889  33.12660  44.06147
          Condensed to atoms (all electrons):
 Mulliken charges:
               1
     1  Fe  -0.186914
     2  N   -0.105359
     3  N   -0.034499
     4  N   -0.043299
     5  N    0.016956
     6  C    0.226506
     7  C   -0.027034
     8  C   -0.050946
     9  C    0.211244
    10  C    0.228212
    11  C   -0.049186
    12  C    0.042235
    13  C    0.238701
    14  C    0.235984
    15  C   -0.048106
    16  C    0.045034
    17  C    0.246173
    18  C    0.160780
    19  C   -0.041802
    20  C   -0.032072
    21  C    0.214326
    22  C   -0.438524
    23  H    0.135621
    24  C   -0.493301
    25  H    0.126883
    26  C   -0.436752
    27  H    0.110486
    28  C   -0.451297
    29  H    0.122106
    30  C   -0.410813
    31  H    0.120200
    32  H    0.131985
    33  H    0.135157
    34  C   -0.418822
    35  H    0.138509
    36  H    0.133312
    37  H    0.119161
    38  C   -0.446343
    39  H    0.126822
    40  H    0.137803
    41  H    0.157128
    42  C   -0.199840
    43  H    0.105038
    44  C   -0.291088
    45  H    0.135886
    46  H    0.121394
    47  C   -0.449916
    48  H    0.127247
    49  H    0.140860
    50  H    0.155433
    51  C   -0.213941
    52  H    0.112612
    53  C   -0.286328
    54  H    0.139076
    55  H    0.121306
    56  C   -0.413072
    57  H    0.133975
    58  H    0.136350
    59  H    0.118791
    60  C   -0.413829
    61  H    0.119233
    62  H    0.133990
    63  H    0.133495
    64  O   -0.586131
    65  H    0.360439
    66  H    0.325024
    67  C   -0.393002
    68  H    0.134932
    69  H    0.133789
    70  H    0.146171
    71  N   -0.233488
    72  H    0.234444
    73  C    0.181898
    74  C    0.008469
    75  H    0.175391
    76  N    0.064650
    77  C   -0.226753
    78  H    0.161242
 Sum of Mulliken charges =  -0.00000
 Mulliken charges with hydrogens summed into heavy atoms:
               1
     1  Fe  -0.186914
     2  N   -0.105359
     3  N   -0.034499
     4  N   -0.043299
     5  N    0.016956
     6  C    0.226506
     7  C   -0.027034
     8  C   -0.050946
     9  C    0.211244
    10  C    0.228212
    11  C   -0.049186
    12  C    0.042235
    13  C    0.238701
    14  C    0.235984
    15  C   -0.048106
    16  C    0.045034
    17  C    0.246173
    18  C    0.160780
    19  C   -0.041802
    20  C   -0.032072
    21  C    0.214326
    22  C   -0.302902
    24  C   -0.366418
    26  C   -0.326267
    28  C   -0.329190
    30  C   -0.023471
    34  C   -0.027840
    38  C   -0.024591
    42  C   -0.094801
    44  C   -0.033808
    47  C   -0.026376
    51  C   -0.101329
    53  C   -0.025946
    56  C   -0.023957
    60  C   -0.027110
    64  O    0.099332
    67  C    0.021889
    71  N    0.000956
    73  C    0.181898
    74  C    0.183859
    76  N    0.064650
    77  C   -0.065511
 Electronic spatial extent (au):  <R**2>=          19922.0494
 Charge=              0.0000 electrons
 Dipole moment (field-independent basis, Debye):
    X=              0.9490    Y=             -1.8856    Z=              2.9114  Tot=              3.5962
 Quadrupole moment (field-independent basis, Debye-Ang):
   XX=           -241.3544   YY=           -245.9904   ZZ=           -222.8402
   XY=             -2.7302   XZ=              1.9372   YZ=             -0.0380
 Traceless Quadrupole moment (field-independent basis, Debye-Ang):
   XX=             -4.6261   YY=             -9.2620   ZZ=             13.8881
   XY=             -2.7302   XZ=              1.9372   YZ=             -0.0380
 Octapole moment (field-independent basis, Debye-Ang**2):
  XXX=              6.4241  YYY=            -32.6963  ZZZ=             79.7451  XYY=             -3.5612
  XXY=            -35.6309  XXZ=              6.7424  XZZ=             18.0859  YZZ=            -22.6199
  YYZ=             -8.9666  XYZ=              5.2643
 Hexadecapole moment (field-independent basis, Debye-Ang**3):
 XXXX=         -11987.4228 YYYY=         -11567.2651 ZZZZ=          -2683.4064 XXXY=            -25.1532
 XXXZ=             83.7334 YYYX=            -26.4413 YYYZ=             46.7208 ZZZX=             22.9176
 ZZZY=            -26.5651 XXYY=          -4005.2880 XXZZ=          -2604.2897 YYZZ=          -2660.1718
 XXYZ=             52.3583 YYXZ=            -29.3598 ZZXY=            -25.2071
 N-N= 5.975317995867D+03 E-N=-1.896501344592D+04  KE= 2.973875828307D+03
  Exact polarizability:     713.836      -3.416     698.988      12.824       9.775     311.229
 Approx polarizability:    1327.210     -11.276    1290.441      39.310      18.098     498.656

 ----------------------------------------------------------------------

 Electric dipole moment (input orientation):
 (Debye = 10**-18 statcoulomb cm , SI units = C m)
                  (au)            (Debye)         (10**-30 SI)
   Tot        0.141484D+01      0.359617D+01      0.119955D+02
   x         -0.117241D+01     -0.297996D+01     -0.994007D+01
   y         -0.791937D+00     -0.201290D+01     -0.671432D+01
   z          0.910149D-02      0.231337D-01      0.771656D-01

 Dipole polarizability, Alpha (input orientation).
 (esu units = cm**3 , SI units = C**2 m**2 J**-1)
 Alpha(0;0):
               (au)            (10**-24 esu)      (10**-40 SI)
   iso        0.574684D+03      0.851594D+02      0.947526D+02
   aniso      0.396421D+03      0.587436D+02      0.653611D+02
   xx         0.448910D+03      0.665216D+02      0.740152D+02
   yx        -0.833413D+02     -0.123499D+02     -0.137411D+02
   yy         0.672955D+03      0.997216D+02      0.110955D+03
   zx        -0.172516D+03     -0.255643D+02     -0.284441D+02
   zy        -0.505891D+02     -0.749653D+01     -0.834102D+01
   zz         0.602188D+03      0.892351D+02      0.992874D+02

 First dipole hyperpolarizability, Beta (input orientation).
 ||, _|_  parallel and perpendicular components, (z) with respect to z axis,
 vector components x,y,z.  Values do not include the 1/n! factor of 1/2.
 (esu units = statvolt**-1 cm**4 , SI units = C**3 m**3 J**-2)
 Beta(0;0,0):
               (au)            (10**-30 esu)      (10**-50 SI)
   || (z)    -0.538351D+03     -0.465093D+01     -0.172615D+01
   _|_(z)    -0.179450D+03     -0.155031D+01     -0.575383D+00
   x         -0.219816D+03     -0.189904D+01     -0.704810D+00
   y          0.501033D+04      0.432853D+02      0.160649D+02
   z         -0.269176D+04     -0.232547D+02     -0.863074D+01
   ||         0.113837D+04      0.983465D+01      0.365003D+01
   xxx       -0.149249D+02     -0.128940D+00     -0.478547D-01
   xxy        0.552638D+03      0.477436D+01      0.177196D+01
   yxy       -0.550526D+03     -0.475611D+01     -0.176518D+01
   yyy        0.895631D+03      0.773755D+01      0.287172D+01
   xxz       -0.491678D+03     -0.424772D+01     -0.157650D+01
   yxz       -0.408886D+03     -0.353245D+01     -0.131104D+01
   yyz        0.156460D+03      0.135169D+01      0.501667D+00
   zxz        0.492179D+03      0.425204D+01      0.157810D+01
   zyz        0.221841D+03      0.191653D+01      0.711303D+00
   zzz       -0.562033D+03     -0.485553D+01     -0.180208D+01

 ----------------------------------------------------------------------

 Dipole orientation:
    26        121.54004725        197.64124664        -49.32806038
     7        124.26240228        198.90304552        -46.98388857
     7        120.30016046        201.27076243        -49.61105238
     7        118.66506685        196.55436161        -51.51636854
     7        122.68970742        194.13246798        -48.91460953
     6        126.07347559        197.42337391        -45.91118605
     6        128.01552740        198.95639843        -44.75691464
     6        127.39139255        201.40373089        -45.24729483
     6        125.03996708        201.32837149        -46.63070256
     6        121.49391083        203.39226511        -48.77467826
     6        120.05616730        205.62292756        -49.38045049
     6        117.96435572        204.80992424        -50.66876562
     6        118.21938896        202.08669903        -50.87369622
     6        116.91359022        198.02748891        -52.67935214
     6        115.41088622        196.56595795        -54.41614213
     6        116.32888650        194.14675512        -54.31238092
     6        118.35680231        194.19165982        -52.46986339
     6        121.59814847        192.04620906        -49.93269189
     6        122.76067468        189.77585485        -48.94358056
     6        124.60488275        190.55343904        -47.33229048
     6        124.51995754        193.28837826        -47.32716945
     6        126.09608996        194.80501537        -45.90293931
     1        127.54922764        193.88498478        -44.80556653
     6        123.73282192        203.44474490        -47.42157246
     1        124.50960699        205.26808970        -46.94044322
     6        116.58796086        200.58641782        -52.24924274
     1        115.01488607        201.49891833        -53.17202670
     6        119.67671096        192.06511545        -51.70408477
     1        119.10060933        190.26833176        -52.48082504
     6        128.74559646        203.77131215        -44.54261417
     1        130.49622076        203.34596304        -43.55484955
     1        127.57562049        204.93950605        -43.31243870
     1        129.20102869        204.87463108        -46.22211667
     6        130.25349234        197.92977930        -43.38897933
     1        131.39514278        196.75683845        -44.64061054
     1        129.65634618        196.76732716        -41.79650036
     1        131.43430393        199.45082639        -42.67190586
     6        120.84139056        208.26431924        -48.80836847
     1        122.86947623        208.49481888        -49.07318173
     1        120.39372423        208.76401854        -46.85801029
     1        119.86337828        209.57532201        -50.05438703
     6        115.91415937        206.27899024        -51.71871509
     1        115.10165448        205.56096860        -53.45596739
     6        114.96741937        208.37923038        -50.71725166
     1        115.63336678        209.13234298        -48.94956047
     1        113.44778804        209.39539307        -51.61375333
     6        113.39842192        197.60443201        -56.08657693
     1        113.90505160        199.48265719        -56.75714494
     1        111.60683838        197.74997070        -55.07527712
     1        113.12706310        196.37609163        -57.71334090
     6        115.55139185        191.93317894        -55.71343581
     1        117.04383902        190.60058639        -56.15373963
     6        113.20821577        191.42469134        -56.46259635
     1        111.63782702        192.63129857        -56.00201041
     1        112.77199358        189.74471128        -57.52742328
     6        122.00021531        187.16153022        -49.66430102
     1        122.31010475        186.84560425        -51.67696621
     1        120.00102030        186.85531554        -49.27284343
     1        123.08723658        185.76725524        -48.61742187
     6        126.39619525        189.01893103        -45.79328670
     1        126.08576424        187.01031182        -46.09412219
     1        126.15698272        189.42114870        -43.78682799
     1        128.34417399        189.45591631        -46.30312466
     8        124.29338470        198.28929870        -52.54160127
     1        125.76321154        198.90567423        -51.68683942
     1        124.11494423        198.09651529        -54.20177405
     6        114.65266794        194.13917447        -42.10181878
     1        112.89985337        195.19127638        -41.85103106
     1        115.38190383        193.64904516        -40.23878120
     1        114.24045276        192.40858858        -43.12276517
     7        117.39818263        197.94586617        -42.70701256
     1        116.87494607        198.81645055        -41.09819230
     6        116.52711429        195.65358184        -43.53941305
     6        119.06645729        198.81370043        -44.43497409
     1        120.04897606        200.57435068        -44.27936322
     7        119.30584050        197.21236632        -46.30845746
     6        117.73778218        195.23745565        -45.78007239
     1        117.58374150        193.65996652        -47.03650808

 Electric dipole moment (dipole orientation):
 (Debye = 10**-18 statcoulomb cm , SI units = C m)
                  (au)            (Debye)         (10**-30 SI)
   Tot        0.141484D+01      0.359617D+01      0.119955D+02
   x          0.000000D+00      0.000000D+00      0.000000D+00
   y          0.000000D+00      0.000000D+00      0.000000D+00
   z          0.141484D+01      0.359617D+01      0.119955D+02

 Dipole polarizability, Alpha (dipole orientation).
 (esu units = cm**3 , SI units = C**2 m**2 J**-1)
 Alpha(0;0):
               (au)            (10**-24 esu)      (10**-40 SI)
   iso        0.574684D+03      0.851594D+02      0.947526D+02
   aniso      0.396421D+03      0.587436D+02      0.653611D+02
   xx         0.573947D+03      0.850502D+02      0.946311D+02
   yx        -0.165743D+02     -0.245606D+01     -0.273273D+01
   yy         0.706103D+03      0.104634D+03      0.116421D+03
   zx         0.183327D+03      0.271663D+02      0.302266D+02
   zy         0.364023D+02      0.539427D+01      0.600194D+01
   zz         0.444003D+03      0.657944D+02      0.732061D+02

 First dipole hyperpolarizability, Beta (dipole orientation).
 ||, _|_  parallel and perpendicular components, (z) with respect to z axis,
 vector components x,y,z.  Values do not include the 1/n! factor of 1/2.
 (esu units = statvolt**-1 cm**4 , SI units = C**3 m**3 J**-2)
 Beta(0;0,0):
               (au)            (10**-30 esu)      (10**-50 SI)
   || (z)    -0.527924D+03     -0.456086D+01     -0.169272D+01
   _|_(z)    -0.175975D+03     -0.152029D+01     -0.564239D+00
   x         -0.460941D+04     -0.398217D+02     -0.147794D+02
   y          0.204524D+04      0.176693D+02      0.655779D+01
   z         -0.263962D+04     -0.228043D+02     -0.846358D+01
   ||         0.113837D+04      0.983465D+01      0.365003D+01
   xxx       -0.228097D+03     -0.197058D+01     -0.731360D+00
   xxy       -0.434063D+01     -0.374997D-01     -0.139176D-01
   yxy       -0.786329D+03     -0.679327D+01     -0.252125D+01
   yyy        0.111449D+04      0.962836D+01      0.357347D+01
   xxz       -0.219083D+03     -0.189271D+01     -0.702461D+00
   yxz       -0.307672D+03     -0.265805D+01     -0.986509D+00
   yyz       -0.290831D+03     -0.251256D+01     -0.932510D+00
   zxz       -0.522044D+03     -0.451005D+01     -0.167386D+01
   zyz       -0.428405D+03     -0.370109D+01     -0.137362D+01
   zzz       -0.369959D+03     -0.319616D+01     -0.118622D+01

 ----------------------------------------------------------------------
 Unable to Open any file for archive entry.
 1\1\GINC-BGN1017\SP\RAPFD\def2TZVP\C34H36Fe1N6O1\BEBJONES\18-Mar-2024\
 0\\# polar def2tzvp apfd int=(grid=ultrafine)\\1ccl_II_S\\0,1\Fe,0,-6.
 1340355954,56.9994453236,111.6686458036\N,0,-7.011949477,56.1010433196
 ,113.2441244937\N,0,-7.1035645966,58.7084004842,112.1990498144\N,0,-5.
 3927873078,57.9526485594,110.0785806227\N,0,-5.2663282196,55.317854362
 1,111.1348836436\C,0,-6.8169658425,54.8023760868,113.6036562589\C,0,-7
 .370450656,54.5455647703,114.9132574332\C,0,-7.8572032818,55.734941682
 6,115.3628017847\C,0,-7.6275617873,56.6906964423,114.3046687884\C,0,-7
 .7869839667,58.9427097408,113.3537445627\C,0,-8.3070945669,60.28572080
 88,113.3819504782\C,0,-7.895607199,60.8811658738,112.2194927491\C,0,-7
 .0987364019,59.8872066966,111.5240109123\C,0,-5.5365661747,59.26113775
 14,109.742936312\C,0,-4.671211158,59.6093997119,108.6451829302\C,0,-3.
 9723761106,58.4731240444,108.3315147213\C,0,-4.4503045947,57.449178474
 7,109.2403306342\C,0,-4.4946425123,55.1252892928,110.0348205372\C,0,-4
 .1792209348,53.7213869168,109.8754798358\C,0,-4.7653266673,53.07775313
 89,110.9199715238\C,0,-5.4488360215,54.0936796276,111.6928353964\C,0,-
 6.1782262179,53.8401732895,112.8380456082\H,0,-6.1907256047,52.8254482
 878,113.2064713392\C,0,-8.016676124,58.0150315532,114.3556598259\H,0,-
 8.5417143075,58.3475897578,115.2379915253\C,0,-6.4039800872,60.1457390
 644,110.3595638185\H,0,-6.4863675759,61.135256468,109.9369094705\C,0,-
 4.0455612365,56.1254559311,109.1918383581\H,0,-3.3636325572,55.8411956
 735,108.404367612\C,0,-8.5159092479,56.0588095787,116.6602954905\H,0,-
 8.5509674308,55.1842843942,117.3053204238\H,0,-9.5369529017,56.4055025
 761,116.4974654213\H,0,-7.9719430813,56.8473057085,117.1810876784\C,0,
 -7.3436388625,53.2204537237,115.5951802816\H,0,-6.3167917595,52.885293
 8001,115.7441105024\H,0,-7.8588513872,52.4707436902,114.9944349654\H,0
 ,-7.8304838641,53.2744227339,116.5659409114\C,0,-9.0700984506,60.88741
 32914,114.510596611\H,0,-8.6691938583,60.5552545032,115.4672864262\H,0
 ,-10.122466236,60.6010064325,114.4689441753\H,0,-9.0078799671,61.97278
 30398,114.4658133761\C,0,-8.138187131,62.2275447786,111.7520413865\H,0
 ,-7.3379048522,62.6785885205,111.1771661113\C,0,-9.2487092771,62.92721
 89076,111.9623930874\H,0,-10.0955386443,62.51568967,112.4835002941\H,0
 ,-9.3589163971,63.9336970334,111.5939678501\C,0,-4.5303526807,60.97343
 71798,108.0646240003\H,0,-4.6091777067,61.7330120494,108.8408273033\H,
 0,-5.3105340421,61.1638552362,107.3255638981\H,0,-3.5630785443,61.0737
 995213,107.5762620159\C,0,-2.9489010789,58.2710024506,107.3301541844\H
 ,0,-2.1799046485,57.5517933511,107.5883822934\C,0,-2.8903612005,58.879
 0310385,106.1495054789\H,0,-3.6506315179,59.5653260512,105.8198522325\
 H,0,-2.0870728257,58.6885569761,105.456988436\C,0,-3.3534762045,53.167
 5461065,108.7652039454\H,0,-2.3417699946,53.5729837309,108.800662455\H
 ,0,-3.7865918179,53.4275533552,107.7991871066\H,0,-3.2897353334,52.084
 2285698,108.8324446864\C,0,-4.764765862,51.625802321,111.2561830148\H,
 0,-4.1951912373,51.0585868169,110.5240836625\H,0,-5.7829115318,51.2364
 151724,111.277254791\H,0,-4.3202434555,51.4610081748,112.2380726139\O,
 0,-4.42,57.516,113.057\H,0,-4.698,57.129,113.887\H,0,-3.675,57.981,112
 .916\C,0,-9.6067055481,55.2623938269,107.6358121338\H,0,-10.2679716727
 ,55.9990115096,107.1796864964\H,0,-10.1815069943,54.3540965332,107.816
 7489749\H,0,-8.8062808357,55.0346246793,106.9389821702\N,0,-9.80806279
 4,56.1594137382,109.9652010354\H,0,-10.8138218304,56.1277666289,109.99
 91041321\C,0,-9.0304815032,55.7829929103,108.9014308439\C,0,-8.9814942
 437,56.580659852,110.9479105154\H,0,-9.3139111288,56.9366142065,111.90
 07784782\N,0,-7.7291945683,56.4936074346,110.5721891725\C,0,-7.7429087
 598,55.9997670068,109.3014262428\H,0,-6.8331495385,55.8345823056,108.7
 62351511\\Version=ES64L-G16RevC.02\State=1-A\HF=-2984.0208815\RMSD=4.1
 80e-09\Dipole=-1.1724052,-0.7919372,0.0091015\Polar=448.9098415,-83.34
 12799,672.954871,-172.5163279,-50.5891252,602.188205\HyperPolar=-14.92
 49298,552.6377293,-550.5258767,895.6306129,-491.6783945,-408.8856152,1
 56.4597693,492.1787416,221.8411148,-562.0333336\Quadrupole=7.3946314,-
 7.1174846,-0.2771468,3.2879969,4.8703915,1.3738471\PG=C01 [X(C34H36Fe1
 N6O1)]\\@
 The archive entry for this job was punched.


 YOU WILL NEVER "FIND" TIME FOR ANYTHING.
 IF YOU WANT TIME, YOU MUST MAKE IT.

                        -- CHARLES BIXTON
 Job cpu time:       2 days  4 hours 49 minutes 54.5 seconds.
 Elapsed time:       0 days  0 hours 45 minutes 43.7 seconds.
 File lengths (MBytes):  RWF=   1208 Int=      0 D2E=      0 Chk=    155 Scr=      1
 Normal termination of Gaussian 16 at Mon Mar 18 10:28:33 2024.
 Initial command:
 /sw/chem/gaussian/g16_C02/a100/g16/l1.exe "/local/bebjones_7775781/Gau-106322.inp" -scrdir="/local/bebjones_7775781/"
 Entering Link 1 = /sw/chem/gaussian/g16_C02/a100/g16/l1.exe PID=    107915.
  
 Copyright (c) 1988-2021, Gaussian, Inc.  All Rights Reserved.
  
 This is part of the Gaussian(R) 16 program.  It is based on
 the Gaussian(R) 09 system (copyright 2009, Gaussian, Inc.),
 the Gaussian(R) 03 system (copyright 2003, Gaussian, Inc.),
 the Gaussian(R) 98 system (copyright 1998, Gaussian, Inc.),
 the Gaussian(R) 94 system (copyright 1995, Gaussian, Inc.),
 the Gaussian 92(TM) system (copyright 1992, Gaussian, Inc.),
 the Gaussian 90(TM) system (copyright 1990, Gaussian, Inc.),
 the Gaussian 88(TM) system (copyright 1988, Gaussian, Inc.),
 the Gaussian 86(TM) system (copyright 1986, Carnegie Mellon
 University), and the Gaussian 82(TM) system (copyright 1983,
 Carnegie Mellon University). Gaussian is a federally registered
 trademark of Gaussian, Inc.
  
 This software contains proprietary and confidential information,
 including trade secrets, belonging to Gaussian, Inc.
  
 This software is provided under written license and may be
 used, copied, transmitted, or stored only in accord with that
 written license.
  
 The following legend is applicable only to US Government
 contracts under FAR:
  
                    RESTRICTED RIGHTS LEGEND
  
 Use, reproduction and disclosure by the US Government is
 subject to restrictions as set forth in subparagraphs (a)
 and (c) of the Commercial Computer Software - Restricted
 Rights clause in FAR 52.227-19.
  
 Gaussian, Inc.
 340 Quinnipiac St., Bldg. 40, Wallingford CT 06492
  
  
 ---------------------------------------------------------------
 Warning -- This program may not be used in any manner that
 competes with the business of Gaussian, Inc. or will provide
 assistance to any competitor of Gaussian, Inc.  The licensee
 of this program is prohibited from giving any competitor of
 Gaussian, Inc. access to this program.  By using this program,
 the user acknowledges that Gaussian, Inc. is engaged in the
 business of creating and licensing software in the field of
 computational chemistry and represents and warrants to the
 licensee that it is not a competitor of Gaussian, Inc. and that
 it will not use this program in any manner prohibited above.
 ---------------------------------------------------------------
  

 Cite this work as:
 Gaussian 16, Revision C.02,
 M. J. Frisch, G. W. Trucks, H. B. Schlegel, G. E. Scuseria, 
[...]
                                                    1324(v)
   141. CR (   1) N  71                  1.99938   -14.21848  1352(v),1326(v),1320(v)
                                                    1327(v),1522(v)
   142. CR (   1) C  73                  1.99915   -10.08638  1409(v),1526(g),1532(v)
                                                    1254(v)
   143. CR (   1) C  74                  1.99934   -10.11812  1382(v),1381(v),1523(v)
                                                    1531(v),151(r),150(r),154(r)
   144. CR (   1) N  76                  1.99931   -14.14890  150(r),151(r),154(r),1350(v)
                                                    1407(v),1528(v),172(r)
                                                    168(r)
   145. CR (   1) C  77                  1.99897   -10.05624  1522(v),1324(v),1526(g)
                                                    1383(v),1327(v),1434(v)
                                                    151(r),150(r)
   163. LP (   1) N  71                  1.57911    -0.28161  1530(v),1527(v),1353(v)
                                                    1325(v),1319(v)
   164. LP (   1) N  76                  1.61368    -0.36128  150(r),151(r),154(r),1525(v)
                                                    1526(v),1350(v),1528(v)
                                                    1532(v),1407(v),1529(g)
                                                    1384(g),1531(g),170(r)
                                                    182(r),192(r),244(r),247(r)
                                                    221(r),273(r),195(r),220(r)
                                                    152(r),1447(r),1440(r)
                                                    246(r),218(r),194(r),1446(r)
                                                    1444(r),272(r),1441(r)
                                                    1448(r),1445(r),1438(r)
                                                    1442(r),270(r),166(r),177(r)
  1252. RY*(   1) C  67                  0.00117     1.16231   
  1253. RY*(   2) C  67                  0.00079     2.01489   
  1254. RY*(   3) C  67                  0.00051     1.34066   
  1255. RY*(   4) C  67                  0.00012     1.26278   
  1256. RY*(   5) C  67                  0.00008     2.18955   
  1257. RY*(   6) C  67                  0.00007     1.32160   
  1258. RY*(   7) C  67                  0.00001     1.66339   
  1259. RY*(   8) C  67                  0.00001     1.87864   
  1260. RY*(   9) C  67                  0.00001     1.46213   
  1261. RY*(  10) C  67                  0.00001     2.32312   
  1262. RY*(  11) C  67                  0.00001     1.39748   
  1263. RY*(  12) C  67                  0.00000     3.25675   
  1264. RY*(  13) C  67                  0.00000     2.56266   
  1265. RY*(  14) C  67                  0.00000     2.77601   
  1266. RY*(  15) C  67                  0.00000     2.31343   
  1267. RY*(  16) C  67                  0.00000     3.16090   
  1268. RY*(  17) C  67                  0.00000     2.51140   
  1269. RY*(  18) C  67                  0.00000    21.60102   
  1270. RY*(  19) C  67                  0.00001     2.69675   
  1271. RY*(  20) C  67                  0.00000     3.67366   
  1272. RY*(  21) C  67                  0.00001     3.44814   
  1273. RY*(  22) C  67                  0.00000     3.33551   
  1274. RY*(  23) C  67                  0.00000     3.75398   
  1275. RY*(  24) C  67                  0.00000     3.35780   
  1276. RY*(  25) C  67                  0.00000     3.32381   
  1277. RY*(  26) C  67                  0.00000     3.25623   
  1278. RY*(   1) H  68                  0.00075     0.99432   
  1279. RY*(   2) H  68                  0.00015     1.69839   
  1280. RY*(   3) H  68                  0.00008     1.96711   
  1281. RY*(   4) H  68                  0.00006     2.01497   
  1282. RY*(   5) H  68                  0.00000     2.88348   
  1283. RY*(   1) H  69                  0.00075     1.00059   
  1284. RY*(   2) H  69                  0.00015     1.69387   
  1285. RY*(   3) H  69                  0.00008     1.96368   
  1286. RY*(   4) H  69                  0.00006     2.01591   
  1287. RY*(   5) H  69                  0.00000     2.88303   
  1288. RY*(   1) H  70                  0.00024     1.37750   
  1289. RY*(   2) H  70                  0.00012     1.74516   
  1290. RY*(   3) H  70                  0.00008     2.05953   
  1291. RY*(   4) H  70                  0.00002     1.62015   
  1292. RY*(   5) H  70                  0.00001     2.85156   
  1293. RY*(   1) N  71                  0.00281     0.67481   
  1294. RY*(   2) N  71                  0.00226     1.78355   
  1295. RY*(   3) N  71                  0.00099     2.07689   
  1296. RY*(   4) N  71                  0.00078     2.15131   
  1297. RY*(   5) N  71                  0.00052     1.17518   
  1298. RY*(   6) N  71                  0.00026     2.09141   
  1299. RY*(   7) N  71                  0.00020     1.69209   
  1300. RY*(   8) N  71                  0.00007     2.50798   
  1301. RY*(   9) N  71                  0.00007     2.30934   
  1302. RY*(  10) N  71                  0.00005     3.22028   
  1303. RY*(  11) N  71                  0.00005     3.45953   
  1304. RY*(  12) N  71                  0.00001     2.72339   
  1305. RY*(  13) N  71                  0.00001     4.32780   
  1306. RY*(  14) N  71                  0.00000    30.55896   
  1307. RY*(  15) N  71                  0.00000     3.51872   
  1308. RY*(  16) N  71                  0.00000     2.12185   
  1309. RY*(  17) N  71                  0.00000     4.64991   
  1310. RY*(  18) N  71                  0.00001     3.75126   
  1311. RY*(  19) N  71                  0.00001     3.61457   
  1312. RY*(  20) N  71                  0.00000     4.65266   
  1313. RY*(  21) N  71                  0.00000     4.84733   
  1314. RY*(  22) N  71                  0.00000     4.36065   
  1315. RY*(  23) N  71                  0.00000     4.49246   
  1316. RY*(  24) N  71                  0.00000     4.30365   
  1317. RY*(  25) N  71                  0.00000     4.52364   
  1318. RY*(  26) N  71                  0.00000     4.41582   
  1319. RY*(   1) H  72                  0.00058     2.15364   
  1320. RY*(   2) H  72                  0.00039     2.13922   
  1321. RY*(   3) H  72                  0.00030     1.06295   
  1322. RY*(   4) H  72                  0.00021     2.50456   
  1323. RY*(   5) H  72                  0.00001     3.08220   
  1324. RY*(   1) C  73                  0.00405     1.70087   
  1325. RY*(   2) C  73                  0.00263     0.97542   
  1326. RY*(   3) C  73                  0.00193     1.49617   
  1327. RY*(   4) C  73                  0.00162     2.03434   
  1328. RY*(   5) C  73                  0.00122     1.77737   
  1329. RY*(   6) C  73                  0.00111     1.72513   
  1330. RY*(   7) C  73                  0.00037     2.86239   
  1331. RY*(   8) C  73                  0.00018     2.82071   
  1332. RY*(   9) C  73                  0.00016     2.44080   
  1333. RY*(  10) C  73                  0.00007     3.62973   
  1334. RY*(  11) C  73                  0.00001     1.39866   
  1335. RY*(  12) C  73                  0.00002     2.00780   
  1336. RY*(  13) C  73                  0.00001     3.48098   
  1337. RY*(  14) C  73                  0.00002     2.80848   
  1338. RY*(  15) C  73                  0.00001     2.81601   
  1339. RY*(  16) C  73                  0.00000     1.08653   
  1340. RY*(  17) C  73                  0.00000    20.89877   
  1341. RY*(  18) C  73                  0.00001     1.59088   
  1342. RY*(  19) C  73                  0.00001     1.96469   
  1343. RY*(  20) C  73                  0.00000     4.03563   
  1344. RY*(  21) C  73                  0.00001     4.00179   
  1345. RY*(  22) C  73                  0.00000     3.50932   
  1346. RY*(  23) C  73                  0.00000     3.79147   
  1347. RY*(  24) C  73                  0.00000     3.38640   
  1348. RY*(  25) C  73                  0.00000     3.51011   
  1349. RY*(  26) C  73                  0.00000     3.51819   
  1350. RY*(   1) C  74                  0.00411     1.60408   
  1351. RY*(   2) C  74                  0.00331     0.69028   
  1352. RY*(   3) C  74                  0.00204     1.33611   
  1353. RY*(   4) C  74                  0.00126     2.58052   
  1354. RY*(   5) C  74                  0.00080     1.67661   
  1355. RY*(   6) C  74                  0.00038     1.68340   
  1356. RY*(   7) C  74                  0.00025     1.84569   
  1357. RY*(   8) C  74                  0.00009     2.68694   
  1358. RY*(   9) C  74                  0.00006     1.98059   
  1359. RY*(  10) C  74                  0.00004     3.29618   
  1360. RY*(  11) C  74                  0.00005     2.69155   
  1361. RY*(  12) C  74                  0.00003     1.78975   
  1362. RY*(  13) C  74                  0.00001     2.34638   
  1363. RY*(  14) C  74                  0.00002     3.01620   
  1364. RY*(  15) C  74                  0.00001     2.57122   
  1365. RY*(  16) C  74                  0.00000     3.62708   
  1366. RY*(  17) C  74                  0.00001     2.77244   
  1367. RY*(  18) C  74                  0.00001     4.08313   
  1368. RY*(  19) C  74                  0.00000    21.23075   
  1369. RY*(  20) C  74                  0.00000     3.17384   
  1370. RY*(  21) C  74                  0.00001     4.09229   
  1371. RY*(  22) C  74                  0.00000     3.56856   
  1372. RY*(  23) C  74                  0.00000     3.75861   
  1373. RY*(  24) C  74                  0.00000     3.50764   
  1374. RY*(  25) C  74                  0.00000     3.51565   
  1375. RY*(  26) C  74                  0.00000     3.34923   
  1376. RY*(   1) H  75                  0.00060     0.75109   
  1377. RY*(   2) H  75                  0.00030     2.40919   
  1378. RY*(   3) H  75                  0.00021     2.10815   
  1379. RY*(   4) H  75                  0.00012     2.40417   
  1380. RY*(   5) H  75                  0.00002     3.17209   
  1381. RY*(   1) N  76                  0.00782     1.06630   
  1382. RY*(   2) N  76                  0.00761     1.10156   
  1383. RY*(   3) N  76                  0.00599     1.42179   
  1384. RY*(   4) N  76                  0.00074     1.60527   
  1385. RY*(   5) N  76                  0.00074     1.70659   
  1386. RY*(   6) N  76                  0.00061     1.96167   
  1387. RY*(   7) N  76                  0.00037     3.45184   
  1388. RY*(   8) N  76                  0.00031     3.07099   
  1389. RY*(   9) N  76                  0.00012     3.09090   
  1390. RY*(  10) N  76                  0.00010     3.11282   
  1391. RY*(  11) N  76                  0.00009     2.49748   
  1392. RY*(  12) N  76                  0.00008     3.44042   
  1393. RY*(  13) N  76                  0.00006     3.19644   
  1394. RY*(  14) N  76                  0.00004     3.67880   
  1395. RY*(  15) N  76                  0.00002     4.80285   
  1396. RY*(  16) N  76                  0.00001     4.06557   
  1397. RY*(  17) N  76                  0.00002     4.81307   
  1398. RY*(  18) N  76                  0.00001     4.17915   
  1399. RY*(  19) N  76                  0.00000    31.56594   
  1400. RY*(  20) N  76                  0.00000     4.42363   
  1401. RY*(  21) N  76                  0.00000     4.84469   
  1402. RY*(  22) N  76                  0.00000     4.16330   
  1403. RY*(  23) N  76                  0.00000     4.76296   
  1404. RY*(  24) N  76                  0.00000     4.66493   
  1405. RY*(  25) N  76                  0.00000     4.79523   
  1406. RY*(  26) N  76                  0.00000     4.53452   
  1407. RY*(   1) C  77                  0.00395     1.51343   
  1408. RY*(   2) C  77                  0.00272     0.72879   
  1409. RY*(   3) C  77                  0.00172     1.82673   
  1410. RY*(   4) C  77                  0.00069     1.92090   
  1411. RY*(   5) C  77                  0.00058     1.61617   
  1412. RY*(   6) C  77                  0.00049     1.74998   
  1413. RY*(   7) C  77                  0.00044     2.16070   
  1414. RY*(   8) C  77                  0.00023     1.49237   
  1415. RY*(   9) C  77                  0.00020     1.78805   
  1416. RY*(  10) C  77                  0.00017     1.84182   
  1417. RY*(  11) C  77                  0.00010     1.16795   
  1418. RY*(  12) C  77                  0.00006     1.97899   
  1419. RY*(  13) C  77                  0.00006     2.33274   
  1420. RY*(  14) C  77                  0.00004     2.89784   
  1421. RY*(  15) C  77                  0.00002     3.37150   
  1422. RY*(  16) C  77                  0.00003     1.77426   
  1423. RY*(  17) C  77                  0.00002     6.16242   
  1424. RY*(  18) C  77                  0.00000     3.28595   
  1425. RY*(  19) C  77                  0.00000    19.15447   
  1426. RY*(  20) C  77                  0.00001     3.95004   
  1427. RY*(  21) C  77                  0.00001     3.69984   
  1428. RY*(  22) C  77                  0.00000     3.47737   
  1429. RY*(  23) C  77                  0.00000     3.88616   
  1430. RY*(  24) C  77                  0.00000     3.34228   
  1431. RY*(  25) C  77                  0.00000     3.69168   
  1432. RY*(  26) C  77                  0.00000     3.44518   
  1433. RY*(   1) H  78                  0.00051     0.70705   
  1434. RY*(   2) H  78                  0.00034     2.34272   
  1435. RY*(   3) H  78                  0.00025     2.31075   
  1436. RY*(   4) H  78                  0.00008     2.75019   
  1437. RY*(   5) H  78                  0.00001     3.12685   
  1519. BD*(   1) C  67 - H  68          0.01195     0.36117   
  1520. BD*(   1) C  67 - H  69          0.01201     0.36071   
  1521. BD*(   1) C  67 - H  70          0.00345     0.37459   
  1522. BD*(   1) C  67 - C  73          0.01379     0.39110   
  1523. BD*(   1) N  71 - H  72          0.01435     0.36841   
  1524. BD*(   1) N  71 - C  73          0.02719     0.43200   
  1525. BD*(   1) N  71 - C  74          0.02254     0.45135   
  1526. BD*(   1) C  73 - C  77          0.02112     0.56827   
  1527. BD*(   2) C  73 - C  77          0.30025     0.03742  1530(v),1520(v),1519(v)
                                                    1413(g),1328(g)
  1528. BD*(   1) C  74 - H  75          0.01785     0.39505   
  1529. BD*(   1) C  74 - N  76          0.01632     0.54204   
  1530. BD*(   2) C  74 - N  76          0.41604    -0.00207  1527(v),1351(g),1408(v)
                                                    1447(r),153(r),158(r)
  1531. BD*(   1) N  76 - C  77          0.01659     0.48623   
  1532. BD*(   1) C  77 - H  78          0.01482     0.43531   
       -------------------------------
              Total Lewis   42.69117  ( 97.7383%)
        Valence non-Lewis    0.90825  (  2.0794%)
        Rydberg non-Lewis    0.07963  (  0.1823%)
       -------------------------------
            Total unit  4   43.67904  (100.0000%)
           Charge unit  4    0.32096
 Unable to Open any file for archive entry.
 1\1\GINC-BGN1017\SP\RAPFD\def2TZVP\C34H36Fe1N6O1\BEBJONES\18-Mar-2024\
 0\\# apfd/def2TZVP int=(grid=ultrafine) geom=check guess=read pop=nbo 
 scf=qc\\1ccl_II_S_nbo\\0,1\Fe,0,-6.1340355954,56.9994453236,111.668645
 8036\N,0,-7.011949477,56.1010433196,113.2441244937\N,0,-7.1035645966,5
 8.7084004842,112.1990498144\N,0,-5.3927873078,57.9526485594,110.078580
 6227\N,0,-5.2663282196,55.3178543621,111.1348836436\C,0,-6.8169658425,
 54.8023760868,113.6036562589\C,0,-7.370450656,54.5455647703,114.913257
 4332\C,0,-7.8572032818,55.7349416826,115.3628017847\C,0,-7.6275617873,
 56.6906964423,114.3046687884\C,0,-7.7869839667,58.9427097408,113.35374
 45627\C,0,-8.3070945669,60.2857208088,113.3819504782\C,0,-7.895607199,
 60.8811658738,112.2194927491\C,0,-7.0987364019,59.8872066966,111.52401
 09123\C,0,-5.5365661747,59.2611377514,109.742936312\C,0,-4.671211158,5
 9.6093997119,108.6451829302\C,0,-3.9723761106,58.4731240444,108.331514
 7213\C,0,-4.4503045947,57.4491784747,109.2403306342\C,0,-4.4946425123,
 55.1252892928,110.0348205372\C,0,-4.1792209348,53.7213869168,109.87547
 98358\C,0,-4.7653266673,53.0777531389,110.9199715238\C,0,-5.4488360215
 ,54.0936796276,111.6928353964\C,0,-6.1782262179,53.8401732895,112.8380
 456082\H,0,-6.1907256047,52.8254482878,113.2064713392\C,0,-8.016676124
 ,58.0150315532,114.3556598259\H,0,-8.5417143075,58.3475897578,115.2379
 915253\C,0,-6.4039800872,60.1457390644,110.3595638185\H,0,-6.486367575
 9,61.135256468,109.9369094705\C,0,-4.0455612365,56.1254559311,109.1918
 383581\H,0,-3.3636325572,55.8411956735,108.404367612\C,0,-8.5159092479
 ,56.0588095787,116.6602954905\H,0,-8.5509674308,55.1842843942,117.3053
 204238\H,0,-9.5369529017,56.4055025761,116.4974654213\H,0,-7.971943081
 3,56.8473057085,117.1810876784\C,0,-7.3436388625,53.2204537237,115.595
 1802816\H,0,-6.3167917595,52.8852938001,115.7441105024\H,0,-7.85885138
 72,52.4707436902,114.9944349654\H,0,-7.8304838641,53.2744227339,116.56
 59409114\C,0,-9.0700984506,60.8874132914,114.510596611\H,0,-8.66919385
 83,60.5552545032,115.4672864262\H,0,-10.122466236,60.6010064325,114.46
 89441753\H,0,-9.0078799671,61.9727830398,114.4658133761\C,0,-8.1381871
 31,62.2275447786,111.7520413865\H,0,-7.3379048522,62.6785885205,111.17
 71661113\C,0,-9.2487092771,62.9272189076,111.9623930874\H,0,-10.095538
 6443,62.51568967,112.4835002941\H,0,-9.3589163971,63.9336970334,111.59
 39678501\C,0,-4.5303526807,60.9734371798,108.0646240003\H,0,-4.6091777
 067,61.7330120494,108.8408273033\H,0,-5.3105340421,61.1638552362,107.3
 255638981\H,0,-3.5630785443,61.0737995213,107.5762620159\C,0,-2.948901
 0789,58.2710024506,107.3301541844\H,0,-2.1799046485,57.5517933511,107.
 5883822934\C,0,-2.8903612005,58.8790310385,106.1495054789\H,0,-3.65063
 15179,59.5653260512,105.8198522325\H,0,-2.0870728257,58.6885569761,105
 .456988436\C,0,-3.3534762045,53.1675461065,108.7652039454\H,0,-2.34176
 99946,53.5729837309,108.800662455\H,0,-3.7865918179,53.4275533552,107.
 7991871066\H,0,-3.2897353334,52.0842285698,108.8324446864\C,0,-4.76476
 5862,51.625802321,111.2561830148\H,0,-4.1951912373,51.0585868169,110.5
 240836625\H,0,-5.7829115318,51.2364151724,111.277254791\H,0,-4.3202434
 555,51.4610081748,112.2380726139\O,0,-4.42,57.516,113.057\H,0,-4.698,5
 7.129,113.887\H,0,-3.675,57.981,112.916\C,0,-9.6067055481,55.262393826
 9,107.6358121338\H,0,-10.2679716727,55.9990115096,107.1796864964\H,0,-
 10.1815069943,54.3540965332,107.8167489749\H,0,-8.8062808357,55.034624
 6793,106.9389821702\N,0,-9.808062794,56.1594137382,109.9652010354\H,0,
 -10.8138218304,56.1277666289,109.9991041321\C,0,-9.0304815032,55.78299
 29103,108.9014308439\C,0,-8.9814942437,56.580659852,110.9479105154\H,0
 ,-9.3139111288,56.9366142065,111.9007784782\N,0,-7.7291945683,56.49360
 74346,110.5721891725\C,0,-7.7429087598,55.9997670068,109.3014262428\H,
 0,-6.8331495385,55.8345823056,108.762351511\\Version=ES64L-G16RevC.02\
 State=1-A\HF=-2984.0208815\RMSD=1.938e-09\Dipole=-1.1724052,-0.7919372
 ,0.0091015\Quadrupole=7.3946314,-7.1174846,-0.2771468,3.2879969,4.8703
 915,1.3738471\PG=C01 [X(C34H36Fe1N6O1)]\\@
 The archive entry for this job was punched.


 BETTER TO HUNT IN FIELDS, FOR HEALTH UNBOUGHT
 THAN FEE THE DOCTOR FOR A NAUSEOUS DRAUGHT.
 THE WISE, FOR CURE, ON EXERCISE DEPEND;
 GOD NEVER MADE HIS WORK FOR MAN TO MEND.
     -- JOHN DRYDEN (1631-1700)
 Job cpu time:       0 days  0 hours 44 minutes 56.0 seconds.
 Elapsed time:       0 days  0 hours  0 minutes 55.5 seconds.
 File lengths (MBytes):  RWF=    792 Int=      0 D2E=      0 Chk=    155 Scr=      1
 Normal termination of Gaussian 16 at Mon Mar 18 10:29:31 2024.
