 Entering Gaussian System, Link 0=g16
 Input=1ccr05.com
 Output=1ccr05.log
 Initial command:
 /sw/chem/gaussian/g16_C02/a100/g16/l1.exe "/local/bebjones_7790701/Gau-382602.inp" -scrdir="/local/bebjones_7790701/"
 Entering Link 1 = /sw/chem/gaussian/g16_C02/a100/g16/l1.exe PID=    382603.
  
 Copyright (c) 1988-2021, Gaussian, Inc.  All Rights Reserved.
  
 This is part of the Gaussian(R) 16 program.  It is based on
 the Gaussian(R) 09 system (copyright 2009, Gaussian, Inc.),
 the Gaussian(R) 03 system (copyright 2003, Gaussian, Inc.),
 the Gaussian(R) 98 system (copyright 1998, Gaussian, Inc.),
 the Gaussian(R) 94 system (copyright 1995, Gaussian, Inc.),
 the Gaussian 92(TM) system (copyright 1992, Gaussian, Inc.),
 the Gaussian 90(TM) system (copyright 1990, Gaussian, Inc.),
 the Gaussian 88(TM) system (copyright 1988, Gaussian, Inc.),
 the Gaussian 86(TM) system (copyright 1986, Carnegie Mellon
 University), and the Gaussian 82(TM) system (copyright 1983,
 Carnegie Mellon University). Gaussian is a federally registered
 trademark of Gaussian, Inc.
  
 This software contains proprietary and confidential information,
 including trade secrets, belonging to Gaussian, Inc.
  
 This software is provided under written license and may be
 used, copied, transmitted, or stored only in accord with that
 written license.
  
 The following legend is applicable only to US Government
 contracts under FAR:
  
                    RESTRICTED RIGHTS LEGEND
  
 Use, reproduction and disclosure by the US Government is
 subject to restrictions as set forth in subparagraphs (a)
 and (c) of the Commercial Computer Software - Restricted
 Rights clause in FAR 52.227-19.
  
 Gaussian, Inc.
 340 Quinnipiac St., Bldg. 40, Wallingford CT 06492
  
  
 ---------------------------------------------------------------
 Warning -- This program may not be used in any manner that
 competes with the business of Gaussian, Inc. or will provide
 assistance to any competitor of Gaussian, Inc.  The licensee
 of this program is prohibited from giving any competitor of
 Gaussian, Inc. access to this program.  By using this program,
 the user acknowledges that Gaussian, Inc. is engaged in the
 business of creating and licensing software in the field of
 computational chemistry and represents and warrants to the
 licensee that it is not a competitor of Gaussian, Inc. and that
 it will not use this program in any manner prohibited above.
 ---------------------------------------------------------------
  

 Cite this work as:
 Gaussian 16, Revision C.02,
 M. J. Frisch, G. W. Trucks, H. B. Schlegel, G. E. Scuseria, 
 M. A. Robb, J. R. Cheeseman, G. Scalmani, V. Barone, 
 G. A. Petersson, H. Nakatsuji, X. Li, M. Caricato, A. V. Marenich, 
 J. Bloino, B. G. Janesko, R. Gomperts, B. Mennucci, H. P. Hratchian, 
 J. V. Ortiz, A. F. Izmaylov, J. L. Sonnenberg, D. Williams-Young, 
 F. Ding, F. Lipparini, F. Egidi, J. Goings, B. Peng, A. Petrone, 
 T. Henderson, D. Ranasinghe, V. G. Zakrzewski, J. Gao, N. Rega, 
 G. Zheng, W. Liang, M. Hada, M. Ehara, K. Toyota, R. Fukuda, 
 J. Hasegawa, M. Ishida, T. Nakajima, Y. Honda, O. Kitao, H. Nakai, 
 T. Vreven, K. Throssell, J. A. Montgomery, Jr., J. E. Peralta, 
 F. Ogliaro, M. J. Bearpark, J. J. Heyd, E. N. Brothers, K. N. Kudin, 
 V. N. Staroverov, T. A. Keith, R. Kobayashi, J. Normand, 
 K. Raghavachari, A. P. Rendell, J. C. Burant, S. S. Iyengar, 
 J. Tomasi, M. Cossi, J. M. Millam, M. Klene, C. Adamo, R. Cammi, 
 J. W. Ochterski, R. L. Martin, K. Morokuma, O. Farkas, 
 J. B. Foresman, and D. J. Fox, Gaussian, Inc., Wallingford CT, 2019.
 
 ******************************************
 Gaussian 16:  ES64L-G16RevC.02  7-Dec-2021
                27-Mar-2024 
 ******************************************
 %mem=16GB
 %CPU=0-71
 SetSPE:  set environment variable "OMP_PROC_BIND" = "true"
 SetSPE:  set environment variable "OMP_PLACES" = "{0},{1},{2},{3},{4},{5},{6},{7},{8},{9},{10},{11},{12},{13},{14},{15},{16},{17},{18},{19},{20},{21},{22},{23},{24},{25},{26},{27},{28},{29},{30},{31},{32},{33},{34},{35},{36},{37},{38},{39},{40},{41},{42},{43},{44},{45},{46},{47},{48},{49},{50},{51},{52},{53},{54},{55},{56},{57},{58},{59},{60},{61},{62},{63},{64},{65},{66},{67},{68},{69},{70},{71}"
 Will use up to   72 processors via shared memory.
 %gpucpu=0,1,2,3=0,1,2,3
 Will use    4 GPUs:
 Thread  CPU   GPU
      0    0     0
      1    1     1
      2    2     2
      3    3     3
      4    4    -1
      5    5    -1
      6    6    -1
      7    7    -1
      8    8    -1
      9    9    -1
     10   10    -1
     11   11    -1
     12   12    -1
     13   13    -1
     14   14    -1
     15   15    -1
     16   16    -1
     17   17    -1
     18   18    -1
     19   19    -1
     20   20    -1
     21   21    -1
     22   22    -1
     23   23    -1
     24   24    -1
     25   25    -1
     26   26    -1
     27   27    -1
     28   28    -1
     29   29    -1
     30   30    -1
     31   31    -1
     32   32    -1
     33   33    -1
     34   34    -1
     35   35    -1
     36   36    -1
     37   37    -1
     38   38    -1
     39   39    -1
     40   40    -1
     41   41    -1
     42   42    -1
     43   43    -1
     44   44    -1
     45   45    -1
     46   46    -1
     47   47    -1
     48   48    -1
     49   49    -1
     50   50    -1
     51   51    -1
     52   52    -1
     53   53    -1
     54   54    -1
     55   55    -1
     56   56    -1
     57   57    -1
     58   58    -1
     59   59    -1
     60   60    -1
     61   61    -1
     62   62    -1
     63   63    -1
     64   64    -1
     65   65    -1
     66   66    -1
     67   67    -1
     68   68    -1
     69   69    -1
     70   70    -1
     71   71    -1
 SetGPE:  set environment variable "OMP_PROC_BIND" = "true"
 SetGPE:  set environment variable "OMP_PLACES" = "{0},{1},{2},{3},{4},{5},{6},{7},{8},{9},{10},{11},{12},{13},{14},{15},{16},{17},{18},{19},{20},{21},{22},{23},{24},{25},{26},{27},{28},{29},{30},{31},{32},{33},{34},{35},{36},{37},{38},{39},{40},{41},{42},{43},{44},{45},{46},{47},{48},{49},{50},{51},{52},{53},{54},{55},{56},{57},{58},{59},{60},{61},{62},{63},{64},{65},{66},{67},{68},{69},{70},{71}"
 %oldchk=1ccr_II_S.chk
 %chk=1ccr_II_Qn.chk
 Properties for Device   0
 Minimum vector length:                              32
 Maximum vector length:                            1024
 Number of SMPs:                                    108
 Maximum number of threads per SMP:                2048
 Number of ASync Engines:                             5
 Memory:                                           9192980480
 Properties for Device   1
 Minimum vector length:                              32
 Maximum vector length:                            1024
 Number of SMPs:                                    108
 Maximum number of threads per SMP:                2048
 Number of ASync Engines:                             5
 Memory:                                           9192980480
 Properties for Device   2
 Minimum vector length:                              32
 Maximum vector length:                            1024
 Number of SMPs:                                    108
 Maximum number of threads per SMP:                2048
 Number of ASync Engines:                             5
 Memory:                                           9192980480
 Properties for Device   3
 Minimum vector length:                              32
 Maximum vector length:                            1024
 Number of SMPs:                                    108
 Maximum number of threads per SMP:                2048
 Number of ASync Engines:                             5
 Memory:                                           9192980480
   8273682432 words of memory will be used on each GPU.
 Copying data from "1ccr_II_S.chk" to current chk file "1ccr_II_Qn.chk"
 IOpt=  2 FromEx=T IUOpen= 4 IOptOp= 5 NList=   0 IFRang= 0 IUIn= 4 IUOut= 2.
 ---------------------------------------------------
 # apfd/def2TZVP scf=maxcycle=999 geom=check pop=nbo
 ---------------------------------------------------
 1/29=2,38=1,172=1/1;
 2/12=2,40=1/2;
 3/5=44,7=101,11=2,14=-4,25=1,30=1,74=-44/1,2,3;
 4//1;
 5/5=2,7=999,38=5/2;
 6/7=2,8=2,9=2,10=2,28=1,40=1/1,7;
 99/5=1,9=1/99;
 ---------
 1ccr_II_Q
 ---------
 Structure from the checkpoint file:  "1ccr_II_Qn.chk"
 Charge =  0 Multiplicity = 5
 Z-Matrix found in chk file.
 Fe,0,2.8572371322,16.9226621073,24.5550120937
 N,0,0.8819430645,16.9732434944,24.481433746
 N,0,2.8408410449,15.1872090035,23.5487421451
 N,0,4.8682621424,16.8824629205,24.5097561634
 N,0,2.9093290563,18.6753606266,25.4960498924
 C,0,0.0877490882,17.9843744987,24.919054202
 C,0,-1.3070405792,17.6080189019,24.8346618105
 C,0,-1.3299357244,16.3332982049,24.3625036995
 C,0,0.0482900849,15.9645637116,24.1236777171
 C,0,1.7560542803,14.3968663877,23.3305827546
 C,0,2.1460225138,13.1492408763,22.713650947
 C,0,3.4999630983,13.194770337,22.5868372579
 C,0,3.9135516921,14.4749152141,23.1165499577
 C,0,5.6690451672,16.0220949889,23.8303123042
 C,0,7.0664245187,16.3307624256,24.0574006058
 C,0,7.0815948259,17.4533413733,24.8421543995
 C,0,5.703487916,17.7840815819,25.098146425
 C,0,4.0067666096,19.3431111724,25.9309603451
 C,0,3.6311886537,20.6224846648,26.5023309242
 C,0,2.2797186483,20.7386502307,26.3032371124
 C,0,1.8507239092,19.5038542636,25.6997797849
 C,0,0.5306606052,19.1929833852,25.4207680811
 H,0,-0.2178926461,19.9264864958,25.6795437951
 C,0,0.4463638841,14.747092232,23.6037278054
 H,0,-0.3220410595,14.0239722519,23.3766142268
 C,0,5.2288100157,14.8979859916,23.155489697
 H,0,5.9724543138,14.254313993,22.7115982821
 C,0,5.3061263049,18.8762629513,25.8517389225
 H,0,6.0822531408,19.4771710389,26.3006523703
 C,0,-2.4413307647,18.4869208094,25.2369867756
 H,0,-2.4208561702,19.4207684705,24.6746256001
 H,0,-2.3793855802,18.7302102641,26.2979320595
 H,0,-3.3946243869,17.9974141665,25.0532296353
 C,0,-2.495305237,15.4428941186,24.0976409079
 H,0,-2.4123278037,14.5247629338,24.679187486
 H,0,-2.5412794833,15.1712150378,23.0424112361
 H,0,-3.4272089564,15.9346812846,24.3654090566
 C,0,1.395633494,21.8988997417,26.6005112962
 H,0,0.8762145309,21.7613767913,27.5505655031
 H,0,0.6452781346,22.0184771891,25.8204298431
 H,0,1.9851677106,22.8116315921,26.6614544369
 C,0,4.5550228987,21.5724979388,27.079144406
 H,0,5.5581829179,21.562552633,26.6686113364
 C,0,4.2734805872,22.4235114216,28.0609652601
 H,0,3.3110663956,22.4468956448,28.5412498701
 H,0,5.0112053018,23.112692533,28.4372476158
 C,0,8.2565679727,18.2406483672,25.3076674287
 H,0,8.5056527137,17.9980068486,26.3423501718
 H,0,8.0511722816,19.3088793641,25.2530448715
 H,0,9.1220459585,18.0214453442,24.6856105223
 C,0,8.17303451,15.5935457327,23.4896984777
 H,0,7.994158024,15.1604948052,22.5121232694
 C,0,9.3529075066,15.4056036164,24.0721085102
 H,0,9.5683584484,15.7709726893,25.0611245577
 H,0,10.1399752057,14.8534410927,23.5857746539
 C,0,4.4316580932,12.1740968988,22.029694068
 H,0,3.8889762718,11.2867741008,21.7127969
 H,0,5.1663533847,11.8782128262,22.778873259
 H,0,4.9693002085,12.5729439737,21.1688940402
 C,0,1.1973805801,12.0608379672,22.3439070696
 H,0,1.7284133904,11.2133180985,21.9174262972
 H,0,0.4727618681,12.4155975553,21.6103351763
 H,0,0.6485010775,11.7165363235,23.2207981102
 C,0,3.9501276555,20.4014430027,20.3285023778
 H,0,3.1590969088,21.0783234933,20.0057787275
 H,0,4.4259324588,19.9852511927,19.4405184492
 H,0,4.688867938,20.9697905946,20.8848331291
 N,0,2.4422773736,18.4469462599,20.7523627222
 H,0,2.022609725,18.4425158289,19.8371803688
 C,0,3.4024605597,19.3221351859,21.1885315579
 C,0,2.1679124216,17.5996151044,21.768997307
 H,0,1.4528772415,16.8051964792,21.7155606726
 N,0,2.8949493592,17.8850826215,22.8206835599
 C,0,3.6679100813,18.9532160042,22.476162852
 H,0,4.359038289,19.3830880349,23.1709914657
 C,0,3.3793704136,13.0612380013,26.3681886734
 H,0,4.1498140613,12.2927200471,26.3807976449
 H,0,2.8981436978,13.0532629203,25.3947890817
 H,0,2.6338112182,12.8246669656,27.1236906033
 C,0,3.996599254,14.4192651633,26.6416220306
 H,0,4.7421896711,14.6712918612,25.8899493087
 H,0,4.4475475024,14.4458347585,27.632862836
 S,0,2.6999394053,15.7261399113,26.61167793
 C,0,3.3689734468,16.7928526588,27.9253379105
 H,0,4.3698505319,17.1191710373,27.6614833035
 H,0,3.3683281614,16.2433359641,28.8630670316
 H,0,2.7112698376,17.6522234086,27.9976332792
 Recover connectivity data from disk.
 Stoichiometry    C37H42FeN6S(5)
 Framework group  C1[X(C37H42FeN6S)]
 Deg. of freedom   255
 Full point group                 C1      NOp   1
 Largest Abelian subgroup         C1      NOp   1
 Largest concise Abelian subgroup C1      NOp   1
                         Standard orientation:                         
 ---------------------------------------------------------------------
 Center     Atomic      Atomic             Coordinates (Angstroms)
 Number     Number       Type             X           Y           Z
 ---------------------------------------------------------------------
      1         26           0       -0.058712   -0.238675   -0.110427
      2          7           0        0.033791   -2.212499   -0.038148
      3          7           0       -2.043388   -0.330960    0.167404
      4          7           0       -0.187659    1.768685   -0.068457
      5          7           0        1.916050   -0.111547   -0.321070
      6          6           0        1.164028   -2.965022   -0.068401
      7          6           0        0.835674   -4.372459   -0.142625
      8          6           0       -0.521221   -4.445481   -0.185904
      9          6           0       -1.003650   -3.084898   -0.093250
     10          6           0       -2.816840   -1.444490    0.063394
     11          6           0       -4.218479   -1.107131    0.167541
     12          6           0       -4.274355    0.244610    0.312396
     13          6           0       -2.905288    0.709425    0.307365
     14          6           0       -1.269594    2.527473    0.242651
     15          6           0       -0.950289    3.938358    0.159215
     16          6           0        0.383708    4.005424   -0.144439
     17          6           0        0.837422    2.644120   -0.267312
     18          6           0        2.657128    1.015308   -0.463929
     19          6           0        4.070473    0.692374   -0.513801
     20          6           0        4.153275   -0.658639   -0.295831
     21          6           0        2.799005   -1.138966   -0.205521
     22          6           0        2.455245   -2.473751   -0.074238
     23          1           0        3.259467   -3.193183   -0.043131
     24          6           0       -2.341174   -2.736451   -0.067505
     25          1           0       -3.067519   -3.531894   -0.135493
     26          6           0       -2.547842    2.037908    0.440694
     27          1           0       -3.338398    2.751383    0.614865
     28          6           0        2.146875    2.297337   -0.556679
     29          1           0        2.843281    3.101297   -0.740130
     30          6           0        1.842852   -5.469748   -0.192594
     31          1           0        2.494910   -5.431625    0.680394
     32          1           0        2.465090   -5.377891   -1.083107
     33          1           0        1.355954   -6.441663   -0.214091
     34          6           0       -1.401887   -5.643675   -0.284978
     35          1           0       -2.036018   -5.577521   -1.169031
     36          1           0       -2.048848   -5.720349    0.589662
     37          1           0       -0.811231   -6.553766   -0.354687
     38          6           0        5.372069   -1.499230   -0.140570
     39          1           0        5.621639   -2.002666   -1.076294
     40          1           0        5.217028   -2.261653    0.621357
     41          1           0        6.218042   -0.880034    0.151441
     42          6           0        5.132706    1.657639   -0.683025
     43          1           0        4.931719    2.651143   -0.298942
     44          6           0        6.300503    1.423773   -1.273802
     45          1           0        6.538670    0.472874   -1.717117
     46          1           0        7.052715    2.190619   -1.357000
     47          6           0        1.244100    5.214174   -0.269997
     48          1           0        1.399666    5.477149   -1.317914
     49          1           0        2.220053    5.041492    0.181650
     50          1           0        0.774900    6.059050    0.230096
     51          6           0       -1.887523    5.008985    0.415551
     52          1           0       -2.649704    4.796043    1.156441
     53          6           0       -1.886122    6.194309   -0.185806
     54          1           0       -1.183648    6.441904   -0.962525
     55          1           0       -2.609553    6.953173    0.062494
     56          6           0       -5.463519    1.131725    0.450797
     57          1           0       -6.384047    0.554775    0.405788
     58          1           0       -5.482737    1.872286   -0.349074
     59          1           0       -5.438259    1.663492    1.402480
     60          6           0       -5.329963   -2.097205    0.092626
     61          1           0       -6.294774   -1.602256    0.172235
     62          1           0       -5.250742   -2.825511    0.900307
     63          1           0       -5.298255   -2.638142   -0.853488
     64          6           0        1.530284    0.874467    5.123664
     65          1           0        2.064801    0.098589    5.671710
     66          1           0        0.793112    1.318148    5.792877
     67          1           0        2.238367    1.642295    4.828167
     68          7           0       -0.063489   -0.685082    3.983040
     69          1           0       -0.396460   -1.123805    4.825863
     70          6           0        0.875191    0.311190    3.916160
     71          6           0       -0.455045   -0.964643    2.719980
     72          1           0       -1.184007   -1.705358    2.464658
     73          7           0        0.178048   -0.207036    1.858967
     74          6           0        1.008456    0.591845    2.586486
     75          1           0        1.642246    1.310633    2.110158
     76          6           0       -2.970255    0.199293   -3.241231
     77          1           0       -3.705560    0.945194   -3.536733
     78          1           0       -3.326133   -0.302280   -2.346287
     79          1           0       -2.877202   -0.537332   -4.035795
     80          6           0       -1.633114    0.864678   -2.977996
     81          1           0       -1.710420    1.601903   -2.181153
     82          1           0       -1.252184    1.336956   -3.882687
     83         16           0       -0.386421   -0.390434   -2.467514
     84          6           0        1.070643    0.339368   -3.277167
     85          1           0        1.236234    1.344284   -2.902225
     86          1           0        0.914913    0.341072   -4.352830
     87          1           0        1.917821   -0.289223   -3.025212
 ---------------------------------------------------------------------
 Rotational constants (GHZ):           0.0837108           0.0810996           0.0580721
 Standard basis: def2TZVP (5D, 7F)
 There are  1894 symmetry adapted cartesian basis functions of A   symmetry.
 There are  1667 symmetry adapted basis functions of A   symmetry.
  1667 basis functions,  2700 primitive gaussians,  1894 cartesian basis functions
   176 alpha electrons      172 beta electrons
       nuclear repulsion energy      7159.1036139296 Hartrees.
 NAtoms=   87 NActive=   87 NUniq=   87 SFac= 1.00D+00 NAtFMM=   60 NAOKFM=T Big=T
 Integral buffers will be    131072 words long.
 Raffenetti 2 integral format.
 Two-electron integral symmetry is turned on.
 R6APFD:  NTU= -4 IXU= 1 FactS= 1.050
 Nuclear repulsion after empirical dispersion term =     7158.9199062799 Hartrees.
 One-electron integrals computed using PRISM.
   1 Symmetry operations used in ECPInt.
 ECPInt:  NShTT=  224115 NPrTT=  692067 LenC2=  178356 LenP2D=  363276.
 LDataN:  DoStor=T MaxTD1= 6 Len=  172
 Number of processors reduced to  21 by ecpmxn.
 NBasis=  1667 RedAO= T EigKep=  3.35D-06  NBF=  1667
 NBsUse=  1667 1.00D-06 EigRej= -1.00D+00 NBFU=  1667
 ExpMin= 4.20D-02 ExpMax= 3.01D+05 ExpMxC= 2.91D+03 IAcc=3 IRadAn=         5 AccDes= 0.00D+00
 Harris functional with IExCor= 3731 and IRadAn=       5 diagonalized for initial guess.
 HarFok:  IExCor= 3731 AccDes= 0.00D+00 IRadAn=         5 IDoV= 1 UseB2=F ITyADJ=14
 ICtDFT=  3500011 ScaDFX=  1.000000  1.000000  1.000000  1.000000
 FoFCou: FMM=F IPFlag=           0 FMFlag=      100000 FMFlg1=        2001
         NFxFlg=           0 DoJE=T BraDBF=F KetDBF=T FulRan=T
         wScrn=  0.000000 ICntrl=       500 IOpCl=  0 I1Cent=   200000004 NGrid=           0
         NMat0=    1 NMatS0=      1 NMatT0=    0 NMatD0=    1 NMtDS0=    0 NMtDT0=    0
 Petite list used in FoFCou.
 Initial guess <Sx>= 0.0000 <Sy>= 0.0000 <Sz>= 2.0000 <S**2>= 6.0000 S= 2.0000
 Requested convergence on RMS density matrix=1.00D-08 within 999 cycles.
 Requested convergence on MAX density matrix=1.00D-06.
 Requested convergence on             energy=1.00D-06.
 No special actions if energy rises.
 EnCoef did     2 forward-backward iterations
 EnCoef did   100 forward-backward iterations
 EnCoef did   100 forward-backward iterations
 EnCoef did   100 forward-backward iterations
 EnCoef did   100 forward-backward iterations
 EnCoef did     4 forward-backward iterations
 EnCoef did     4 forward-backward iterations
 Rare condition: small coef for last iteration:  0.000D+00
 Rare condition: small coef for last iteration:  0.000D+00
 Restarting incremental Fock formation.
 Rare condition: small coef for last iteration:  0.000D+00
 Rare condition: small coef for last iteration:  0.000D+00
 Rare condition: small coef for last iteration:  0.000D+00
 Rare condition: small coef for last iteration:  0.000D+00
 EnCoef did   100 forward-backward iterations
 EnCoef did   100 forward-backward iterations
 Rare condition: small coef for last iteration:  0.163D-15
 EnCoef did   100 forward-backward iterations
 Rare condition: small coef for last iteration:  0.000D+00
 Restarting incremental Fock formation.
 Rare condition: small coef for last iteration:  0.000D+00
 Rare condition: small coef for last iteration:  0.000D+00
 Rare condition: small coef for last iteration:  0.000D+00
 Rare condition: small coef for last iteration:  0.000D+00
 Rare condition: small coef for last iteration:  0.000D+00
 Rare condition: small coef for last iteration:  0.000D+00
 Rare condition: small coef for last iteration:  0.000D+00
 Rare condition: small coef for last iteration:  0.000D+00
 Rare condition: small coef for last iteration:  0.000D+00
 Restarting incremental Fock formation.
 Rare condition: small coef for last iteration:  0.000D+00
 Rare condition: small coef for last iteration:  0.000D+00
 EnCoef did   100 forward-backward iterations
 Rare condition: small coef for last iteration:  0.000D+00
 Rare condition: small coef for last iteration:  0.000D+00
 Rare condition: small coef for last iteration:  0.000D+00
 Rare condition: small coef for last iteration:  0.000D+00
 Rare condition: small coef for last iteration:  0.000D+00
 Rare condition: small coef for last iteration:  0.000D+00
 Rare condition: small coef for last iteration:  0.000D+00
 Rare condition: small coef for last iteration:  0.000D+00
 Restarting incremental Fock formation.
 Rare condition: small coef for last iteration:  0.000D+00
 Rare condition: small coef for last iteration:  0.000D+00
 Rare condition: small coef for last iteration:  0.000D+00
 Rare condition: small coef for last iteration:  0.000D+00
 Rare condition: small coef for last iteration:  0.000D+00
 Rare condition: small coef for last iteration:  0.000D+00
 Rare condition: small coef for last iteration:  0.000D+00
 Rare condition: small coef for last iteration:  0.000D+00
 Rare condition: small coef for last iteration:  0.000D+00
 Restarting incremental Fock formation.
 Rare condition: small coef for last iteration:  0.000D+00
 Rare condition: small coef for last iteration:  0.000D+00
 Rare condition: small coef for last iteration:  0.000D+00
 Rare condition: small coef for last iteration:  0.000D+00
 Rare condition: small coef for last iteration:  0.000D+00
 Rare condition: small coef for last iteration:  0.000D+00
 Rare condition: small coef for last iteration:  0.000D+00
 Rare condition: small coef for last iteration:  0.000D+00
 Rare condition: small coef for last iteration:  0.000D+00
 Rare condition: small coef for last iteration:  0.000D+00
 Rare condition: small coef for last iteration:  0.000D+00
 Rare condition: small coef for last iteration:  0.000D+00
 Restarting incremental Fock formation.
 Rare condition: small coef for last iteration:  0.000D+00
 Rare condition: small coef for last iteration:  0.000D+00
 Rare condition: small coef for last iteration:  0.000D+00
 Rare condition: small coef for last iteration:  0.000D+00
 Rare condition: small coef for last iteration:  0.000D+00
 Rare condition: small coef for last iteration:  0.000D+00
 Rare condition: small coef for last iteration:  0.000D+00
 Rare condition: small coef for last iteration:  0.000D+00
 Restarting incremental Fock formation.
 Rare condition: small coef for last iteration:  0.000D+00
 Rare condition: small coef for last iteration:  0.000D+00
 Rare condition: small coef for last iteration:  0.000D+00
 Rare condition: small coef for last iteration:  0.000D+00
 Rare condition: small coef for last iteration:  0.000D+00
 Rare condition: small coef for last iteration:  0.000D+00
 Rare condition: small coef for last iteration:  0.000D+00
 Rare condition: small coef for last iteration:  0.000D+00
 Rare condition: small coef for last iteration:  0.000D+00
 Restarting incremental Fock formation.
 Rare condition: small coef for last iteration:  0.000D+00
 Rare condition: small coef for last iteration:  0.000D+00
 Rare condition: small coef for last iteration:  0.000D+00
 Rare condition: small coef for last iteration:  0.000D+00
 Rare condition: small coef for last iteration:  0.000D+00
 Rare condition: small coef for last iteration:  0.000D+00
 Rare condition: small coef for last iteration:  0.000D+00
 Rare condition: small coef for last iteration:  0.000D+00
 Rare condition: small coef for last iteration:  0.000D+00
 Rare condition: small coef for last iteration:  0.000D+00
 Rare condition: small coef for last iteration:  0.000D+00
 Rare condition: small coef for last iteration:  0.000D+00
 Rare condition: small coef for last iteration:  0.000D+00
 Rare condition: small coef for last iteration:  0.000D+00
 Restarting incremental Fock formation.
 Rare condition: small coef for last iteration:  0.000D+00
 Rare condition: small coef for last iteration:  0.000D+00
 Rare condition: small coef for last iteration:  0.000D+00
 Rare condition: small coef for last iteration:  0.000D+00
 Rare condition: small coef for last iteration:  0.000D+00
 Rare condition: small coef for last iteration:  0.000D+00
 Rare condition: small coef for last iteration:  0.000D+00
 Rare condition: small coef for last iteration:  0.000D+00
 Rare condition: small coef for last iteration:  0.000D+00
 Rare condition: small coef for last iteration:  0.000D+00
 Rare condition: small coef for last iteration:  0.000D+00
 Rare condition: small coef for last iteration:  0.000D+00
 Rare condition: small coef for last iteration:  0.000D+00
 Restarting incremental Fock formation.
 Rare condition: small coef for last iteration:  0.000D+00
 Rare condition: small coef for last iteration:  0.000D+00
 Rare condition: small coef for last iteration:  0.000D+00
 Rare condition: small coef for last iteration:  0.000D+00
 Rare condition: small coef for last iteration:  0.000D+00
 Rare condition: small coef for last iteration:  0.000D+00
 Rare condition: small coef for last iteration:  0.000D+00
 Rare condition: small coef for last iteration:  0.000D+00
 Rare condition: small coef for last iteration:  0.000D+00
 Rare condition: small coef for last iteration:  0.000D+00
 Rare condition: small coef for last iteration:  0.000D+00
 Rare condition: small coef for last iteration:  0.000D+00
 Rare condition: small coef for last iteration:  0.000D+00
 Restarting incremental Fock formation.
 Rare condition: small coef for last iteration:  0.000D+00
 Rare condition: small coef for last iteration:  0.000D+00
 Rare condition: small coef for last iteration:  0.000D+00
 Rare condition: small coef for last iteration:  0.000D+00
 Rare condition: small coef for last iteration:  0.000D+00
 Rare condition: small coef for last iteration:  0.000D+00
 Rare condition: small coef for last iteration:  0.000D+00
 Rare condition: small coef for last iteration:  0.000D+00
 Rare condition: small coef for last iteration:  0.000D+00
 Rare condition: small coef for last iteration:  0.000D+00
 Rare condition: small coef for last iteration:  0.000D+00
 Rare condition: small coef for last iteration:  0.000D+00
 Rare condition: small coef for last iteration:  0.000D+00
 Rare condition: small coef for last iteration:  0.000D+00
 Restarting incremental Fock formation.
 Rare condition: small coef for last iteration:  0.000D+00
 Rare condition: small coef for last iteration:  0.000D+00
 Rare condition: small coef for last iteration:  0.000D+00
 Rare condition: small coef for last iteration:  0.000D+00
 Rare condition: small coef for last iteration:  0.000D+00
 Rare condition: small coef for last iteration:  0.000D+00
 Rare condition: small coef for last iteration:  0.000D+00
 Rare condition: small coef for last iteration:  0.000D+00
 Rare condition: small coef for last iteration:  0.000D+00
 Rare condition: small coef for last iteration:  0.000D+00
 Rare condition: small coef for last iteration:  0.000D+00
 Rare condition: small coef for last iteration:  0.000D+00
 Rare condition: small coef for last iteration:  0.000D+00
 Restarting incremental Fock formation.
 Rare condition: small coef for last iteration:  0.000D+00
 Rare condition: small coef for last iteration:  0.000D+00
 Rare condition: small coef for last iteration:  0.000D+00
 Rare condition: small coef for last iteration:  0.000D+00
 Rare condition: small coef for last iteration:  0.000D+00
 Rare condition: small coef for last iteration:  0.000D+00
 Rare condition: small coef for last iteration:  0.000D+00
 Rare condition: small coef for last iteration:  0.000D+00
 Rare condition: small coef for last iteration:  0.000D+00
 Rare condition: small coef for last iteration:  0.000D+00
 Rare condition: small coef for last iteration:  0.000D+00
 Rare condition: small coef for last iteration:  0.000D+00
 Rare condition: small coef for last iteration:  0.000D+00
 Restarting incremental Fock formation.
 Rare condition: small coef for last iteration:  0.000D+00
 Rare condition: small coef for last iteration:  0.000D+00
 Rare condition: small coef for last iteration:  0.000D+00
 Rare condition: small coef for last iteration:  0.000D+00
 Rare condition: small coef for last iteration:  0.000D+00
 Rare condition: small coef for last iteration:  0.000D+00
 Rare condition: small coef for last iteration:  0.000D+00
 Rare condition: small coef for last iteration:  0.000D+00
 Restarting incremental Fock formation.
 Rare condition: small coef for last iteration:  0.000D+00
 EnCoef did   100 forward-backward iterations
 Rare condition: small coef for last iteration:  0.369D-16
 EnCoef did     5 forward-backward iterations
 Rare condition: small coef for last iteration:  0.000D+00
 EnCoef did   100 forward-backward iterations
 Rare condition: small coef for last iteration:  0.000D+00
 EnCoef did   100 forward-backward iterations
 EnCoef did     2 forward-backward iterations
 Rare condition: small coef for last iteration:  0.000D+00
 Rare condition: small coef for last iteration:  0.000D+00
 EnCoef did     3 forward-backward iterations
 Rare condition: small coef for last iteration:  0.000D+00
 EnCoef did   100 forward-backward iterations
 Rare condition: small coef for last iteration:  0.000D+00
 EnCoef did   100 forward-backward iterations
 Rare condition: small coef for last iteration:  0.000D+00
 Rare condition: small coef for last iteration:  0.000D+00
 Restarting incremental Fock formation.
 Rare condition: small coef for last iteration:  0.000D+00
 Rare condition: small coef for last iteration:  0.000D+00
 Rare condition: small coef for last iteration:  0.000D+00
 Rare condition: small coef for last iteration:  0.000D+00
 Rare condition: small coef for last iteration:  0.000D+00
 Rare condition: small coef for last iteration:  0.000D+00
 Restarting incremental Fock formation.
 Restarting incremental Fock formation.
 SCF Done:  E(UAPFD) =  -3424.80478918     A.U. after  370 cycles
            NFock=370  Conv=0.37D-08     -V/T= 2.0029
 <Sx>= 0.0000 <Sy>= 0.0000 <Sz>= 2.0000 <S**2>= 6.0173 S= 2.0035
 <L.S>=  0.00000000000    
 Annihilation of the first spin contaminant:
 S**2 before annihilation     6.0173,   after     6.0001

 **********************************************************************

            Population analysis using the SCF Density.

 **********************************************************************

 Orbital symmetries:
 Alpha Orbitals:
       Occupied  (A) (A) (A) (A) (A) (A) (A) (A) (A) (A) (A) (A)
                 (A) (A) (A) (A) (A) (A) (A) (A) (A) (A) (A) (A)
                 (A) (A) (A) (A) (A) (A) (A) (A) (A) (A) (A) (A)
                 (A) (A) (A) (A) (A) (A) (A) (A) (A) (A) (A) (A)
                 (A) (A) (A) (A) (A) (A) (A) (A) (A) (A) (A) (A)
                 (A) (A) (A) (A) (A) (A) (A) (A) (A) (A) (A) (A)
                 (A) (A) (A) (A) (A) (A) (A) (A) (A) (A) (A) (A)
                 (A) (A) (A) (A) (A) (A) (A) (A) (A) (A) (A) (A)
                 (A) (A) (A) (A) (A) (A) (A) (A) (A) (A) (A) (A)
                 (A) (A) (A) (A) (A) (A) (A) (A) (A) (A) (A) (A)
                 (A) (A) (A) (A) (A) (A) (A) (A) (A) (A) (A) (A)
                 (A) (A) (A) (A) (A) (A) (A) (A) (A) (A) (A) (A)
                 (A) (A) (A) (A) (A) (A) (A) (A) (A) (A) (A) (A)
                 (A) (A) (A) (A) (A) (A) (A) (A) (A) (A) (A) (A)
                 (A) (A) (A) (A) (A) (A) (A) (A)
       Virtual   (A) (A) (A) (A) (A) (A) (A) (A) (A) (A) (A) (A)
                 (A) (A) (A) (A) (A) (A) (A) (A) (A) (A) (A) (A)
                 (A) (A) (A) (A) (A) (A) (A) (A) (A) (A) (A) (A)
                 (A) (A) (A) (A) (A) (A) (A) (A) (A) (A) (A) (A)
                 (A) (A) (A) (A) (A) (A) (A) (A) (A) (A) (A) (A)
                 (A) (A) (A) (A) (A) (A) (A) (A) (A) (A) (A) (A)
                 (A) (A) (A) (A) (A) (A) (A) (A) (A) (A) (A) (A)
                 (A) (A) (A) (A) (A) (A) (A) (A) (A) (A) (A) (A)
                 (A) (A) (A) (A) (A) (A) (A) (A) (A) (A) (A) (A)
                 (A) (A) (A) (A) (A) (A) (A) (A) (A) (A) (A) (A)
                 (A) (A) (A) (A) (A) (A) (A) (A) (A) (A) (A) (A)
                 (A) (A) (A) (A) (A) (A) (A) (A) (A) (A) (A) (A)
                 (A) (A) (A) (A) (A) (A) (A) (A) (A) (A) (A) (A)
                 (A) (A) (A) (A) (A) (A) (A) (A) (A) (A) (A) (A)
                 (A) (A) (A) (A) (A) (A) (A) (A) (A) (A) (A) (A)
                 (A) (A) (A) (A) (A) (A) (A) (A) (A) (A) (A) (A)
                 (A) (A) (A) (A) (A) (A) (A) (A) (A) (A) (A) (A)
                 (A) (A) (A) (A) (A) (A) (A) (A) (A) (A) (A) (A)
                 (A) (A) (A) (A) (A) (A) (A) (A) (A) (A) (A) (A)
                 (A) (A) (A) (A) (A) (A) (A) (A) (A) (A) (A) (A)
                 (A) (A) (A) (A) (A) (A) (A) (A) (A) (A) (A) (A)
                 (A) (A) (A) (A) (A) (A) (A) (A) (A) (A) (A) (A)
                 (A) (A) (A) (A) (A) (A) (A) (A) (A) (A) (A) (A)
                 (A) (A) (A) (A) (A) (A) (A) (A) (A) (A) (A) (A)
                 (A) (A) (A) (A) (A) (A) (A) (A) (A) (A) (A) (A)
                 (A) (A) (A) (A) (A) (A) (A) (A) (A) (A) (A) (A)
                 (A) (A) (A) (A) (A) (A) (A) (A) (A) (A) (A) (A)
                 (A) (A) (A) (A) (A) (A) (A) (A) (A) (A) (A) (A)
                 (A) (A) (A) (A) (A) (A) (A) (A) (A) (A) (A) (A)
                 (A) (A) (A) (A) (A) (A) (A) (A) (A) (A) (A) (A)
                 (A) (A) (A) (A) (A) (A) (A) (A) (A) (A) (A) (A)
                 (A) (A) (A) (A) (A) (A) (A) (A) (A) (A) (A) (A)
                 (A) (A) (A) (A) (A) (A) (A) (A) (A) (A) (A) (A)
                 (A) (A) (A) (A) (A) (A) (A) (A) (A) (A) (A) (A)
                 (A) (A) (A) (A) (A) (A) (A) (A) (A) (A) (A) (A)
                 (A) (A) (A) (A) (A) (A) (A) (A) (A) (A) (A) (A)
                 (A) (A) (A) (A) (A) (A) (A) (A) (A) (A) (A) (A)
                 (A) (A) (A) (A) (A) (A) (A) (A) (A) (A) (A) (A)
                 (A) (A) (A) (A) (A) (A) (A) (A) (A) (A) (A) (A)
                 (A) (A) (A) (A) (A) (A) (A) (A) (A) (A) (A) (A)
                 (A) (A) (A) (A) (A) (A) (A) (A) (A) (A) (A) (A)
                 (A) (A) (A) (A) (A) (A) (A) (A) (A) (A) (A) (A)
                 (A) (A) (A) (A) (A) (A) (A) (A) (A) (A) (A) (A)
                 (A) (A) (A) (A) (A) (A) (A) (A) (A) (A) (A) (A)
                 (A) (A) (A) (A) (A) (A) (A) (A) (A) (A) (A) (A)
                 (A) (A) (A) (A) (A) (A) (A) (A) (A) (A) (A) (A)
                 (A) (A) (A) (A) (A) (A) (A) (A) (A) (A) (A) (A)
                 (A) (A) (A) (A) (A) (A) (A) (A) (A) (A) (A) (A)
                 (A) (A) (A) (A) (A) (A) (A) (A) (A) (A) (A) (A)
                 (A) (A) (A) (A) (A) (A) (A) (A) (A) (A) (A) (A)
                 (A) (A) (A) (A) (A) (A) (A) (A) (A) (A) (A) (A)
                 (A) (A) (A) (A) (A) (A) (A) (A) (A) (A) (A) (A)
                 (A) (A) (A) (A) (A) (A) (A) (A) (A) (A) (A) (A)
                 (A) (A) (A) (A) (A) (A) (A) (A) (A) (A) (A) (A)
                 (A) (A) (A) (A) (A) (A) (A) (A) (A) (A) (A) (A)
                 (A) (A) (A) (A) (A) (A) (A) (A) (A) (A) (A) (A)
                 (A) (A) (A) (A) (A) (A) (A) (A) (A) (A) (A) (A)
                 (A) (A) (A) (A) (A) (A) (A) (A) (A) (A) (A) (A)
                 (A) (A) (A) (A) (A) (A) (A) (A) (A) (A) (A) (A)
                 (A) (A) (A) (A) (A) (A) (A) (A) (A) (A) (A) (A)
                 (A) (A) (A) (A) (A) (A) (A) (A) (A) (A) (A) (A)
                 (A) (A) (A) (A) (A) (A) (A) (A) (A) (A) (A) (A)
                 (A) (A) (A) (A) (A) (A) (A) (A) (A) (A) (A) (A)
                 (A) (A) (A) (A) (A) (A) (A) (A) (A) (A) (A) (A)
                 (A) (A) (A) (A) (A) (A) (A) (A) (A) (A) (A) (A)
                 (A) (A) (A) (A) (A) (A) (A) (A) (A) (A) (A) (A)
                 (A) (A) (A) (A) (A) (A) (A) (A) (A) (A) (A) (A)
                 (A) (A) (A) (A) (A) (A) (A) (A) (A) (A) (A) (A)
                 (A) (A) (A) (A) (A) (A) (A) (A) (A) (A) (A) (A)
                 (A) (A) (A) (A) (A) (A) (A) (A) (A) (A) (A) (A)
                 (A) (A) (A) (A) (A) (A) (A) (A) (A) (A) (A) (A)
                 (A) (A) (A) (A) (A) (A) (A) (A) (A) (A) (A) (A)
                 (A) (A) (A) (A) (A) (A) (A) (A) (A) (A) (A) (A)
                 (A) (A) (A) (A) (A) (A) (A) (A) (A) (A) (A) (A)
                 (A) (A) (A) (A) (A) (A) (A) (A) (A) (A) (A) (A)
                 (A) (A) (A) (A) (A) (A) (A) (A) (A) (A) (A) (A)
                 (A) (A) (A) (A) (A) (A) (A) (A) (A) (A) (A) (A)
                 (A) (A) (A) (A) (A) (A) (A) (A) (A) (A) (A) (A)
                 (A) (A) (A) (A) (A) (A) (A) (A) (A) (A) (A) (A)
                 (A) (A) (A) (A) (A) (A) (A) (A) (A) (A) (A) (A)
                 (A) (A) (A) (A) (A) (A) (A) (A) (A) (A) (A) (A)
                 (A) (A) (A) (A) (A) (A) (A) (A) (A) (A) (A) (A)
                 (A) (A) (A) (A) (A) (A) (A) (A) (A) (A) (A) (A)
                 (A) (A) (A) (A) (A) (A) (A) (A) (A) (A) (A) (A)
                 (A) (A) (A) (A) (A) (A) (A) (A) (A) (A) (A) (A)
                 (A) (A) (A) (A) (A) (A) (A) (A) (A) (A) (A) (A)
                 (A) (A) (A) (A) (A) (A) (A) (A) (A) (A) (A) (A)
                 (A) (A) (A) (A) (A) (A) (A) (A) (A) (A) (A) (A)
                 (A) (A) (A) (A) (A) (A) (A) (A) (A) (A) (A) (A)
                 (A) (A) (A) (A) (A) (A) (A) (A) (A) (A) (A) (A)
                 (A) (A) (A) (A) (A) (A) (A) (A) (A) (A) (A) (A)
                 (A) (A) (A) (A) (A) (A) (A) (A) (A) (A) (A) (A)
                 (A) (A) (A) (A) (A) (A) (A) (A) (A) (A) (A) (A)
                 (A) (A) (A) (A) (A) (A) (A) (A) (A) (A) (A) (A)
                 (A) (A) (A) (A) (A) (A) (A) (A) (A) (A) (A) (A)
                 (A) (A) (A) (A) (A) (A) (A) (A) (A) (A) (A) (A)
                 (A) (A) (A) (A) (A) (A) (A) (A) (A) (A) (A) (A)
                 (A) (A) (A) (A) (A) (A) (A) (A) (A) (A) (A) (A)
                 (A) (A) (A) (A) (A) (A) (A) (A) (A) (A) (A) (A)
                 (A) (A) (A) (A) (A) (A) (A) (A) (A) (A) (A) (A)
                 (A) (A) (A) (A) (A) (A) (A) (A) (A) (A) (A) (A)
                 (A) (A) (A) (A) (A) (A) (A) (A) (A) (A) (A) (A)
                 (A) (A) (A) (A) (A) (A) (A) (A) (A) (A) (A) (A)
                 (A) (A) (A) (A) (A) (A) (A) (A) (A) (A) (A) (A)
                 (A) (A) (A) (A) (A) (A) (A) (A) (A) (A) (A) (A)
                 (A) (A) (A) (A) (A) (A) (A) (A) (A) (A) (A) (A)
                 (A) (A) (A) (A) (A) (A) (A) (A) (A) (A) (A) (A)
                 (A) (A) (A) (A) (A) (A) (A) (A) (A) (A) (A) (A)
                 (A) (A) (A) (A) (A) (A) (A) (A) (A) (A) (A) (A)
                 (A) (A) (A) (A) (A) (A) (A) (A) (A) (A) (A) (A)
                 (A) (A) (A) (A) (A) (A) (A) (A) (A) (A) (A) (A)
                 (A) (A) (A) (A) (A) (A) (A) (A) (A) (A) (A) (A)
                 (A) (A) (A) (A) (A) (A) (A) (A) (A) (A) (A) (A)
                 (A) (A) (A) (A) (A) (A) (A) (A) (A) (A) (A) (A)
                 (A) (A) (A) (A) (A) (A) (A) (A) (A) (A) (A) (A)
                 (A) (A) (A) (A) (A) (A) (A) (A) (A) (A) (A) (A)
                 (A) (A) (A) (A) (A) (A) (A) (A) (A) (A) (A) (A)
                 (A) (A) (A) (A) (A) (A) (A) (A) (A) (A) (A) (A)
                 (A) (A) (A) (A) (A) (A) (A) (A) (A) (A) (A) (A)
                 (A) (A) (A) (A) (A) (A) (A) (A) (A) (A) (A) (A)
                 (A) (A) (A) (A) (A) (A) (A) (A) (A) (A) (A) (A)
                 (A) (A) (A) (A) (A) (A) (A) (A) (A) (A) (A) (A)
                 (A) (A) (A) (A) (A) (A) (A) (A) (A) (A) (A) (A)
                 (A) (A) (A) (A) (A) (A) (A) (A) (A) (A) (A) (A)
                 (A) (A) (A)
 Beta  Orbitals:
       Occupied  (A) (A) (A) (A) (A) (A) (A) (A) (A) (A) (A) (A)
                 (A) (A) (A) (A) (A) (A) (A) (A) (A) (A) (A) (A)
                 (A) (A) (A) (A) (A) (A) (A) (A) (A) (A) (A) (A)
                 (A) (A) (A) (A) (A) (A) (A) (A) (A) (A) (A) (A)
                 (A) (A) (A) (A) (A) (A) (A) (A) (A) (A) (A) (A)
                 (A) (A) (A) (A) (A) (A) (A) (A) (A) (A) (A) (A)
                 (A) (A) (A) (A) (A) (A) (A) (A) (A) (A) (A) (A)
                 (A) (A) (A) (A) (A) (A) (A) (A) (A) (A) (A) (A)
                 (A) (A) (A) (A) (A) (A) (A) (A) (A) (A) (A) (A)
                 (A) (A) (A) (A) (A) (A) (A) (A) (A) (A) (A) (A)
                 (A) (A) (A) (A) (A) (A) (A) (A) (A) (A) (A) (A)
                 (A) (A) (A) (A) (A) (A) (A) (A) (A) (A) (A) (A)
                 (A) (A) (A) (A) (A) (A) (A) (A) (A) (A) (A) (A)
                 (A) (A) (A) (A) (A) (A) (A) (A) (A) (A) (A) (A)
                 (A) (A) (A) (A)
       Virtual   (A) (A) (A) (A) (A) (A) (A) (A) (A) (A) (A) (A)
                 (A) (A) (A) (A) (A) (A) (A) (A) (A) (A) (A) (A)
                 (A) (A) (A) (A) (A) (A) (A) (A) (A) (A) (A) (A)
                 (A) (A) (A) (A) (A) (A) (A) (A) (A) (A) (A) (A)
                 (A) (A) (A) (A) (A) (A) (A) (A) (A) (A) (A) (A)
                 (A) (A) (A) (A) (A) (A) (A) (A) (A) (A) (A) (A)
                 (A) (A) (A) (A) (A) (A) (A) (A) (A) (A) (A) (A)
                 (A) (A) (A) (A) (A) (A) (A) (A) (A) (A) (A) (A)
                 (A) (A) (A) (A) (A) (A) (A) (A) (A) (A) (A) (A)
                 (A) (A) (A) (A) (A) (A) (A) (A) (A) (A) (A) (A)
                 (A) (A) (A) (A) (A) (A) (A) (A) (A) (A) (A) (A)
                 (A) (A) (A) (A) (A) (A) (A) (A) (A) (A) (A) (A)
                 (A) (A) (A) (A) (A) (A) (A) (A) (A) (A) (A) (A)
                 (A) (A) (A) (A) (A) (A) (A) (A) (A) (A) (A) (A)
                 (A) (A) (A) (A) (A) (A) (A) (A) (A) (A) (A) (A)
                 (A) (A) (A) (A) (A) (A) (A) (A) (A) (A) (A) (A)
                 (A) (A) (A) (A) (A) (A) (A) (A) (A) (A) (A) (A)
                 (A) (A) (A) (A) (A) (A) (A) (A) (A) (A) (A) (A)
                 (A) (A) (A) (A) (A) (A) (A) (A) (A) (A) (A) (A)
                 (A) (A) (A) (A) (A) (A) (A) (A) (A) (A) (A) (A)
                 (A) (A) (A) (A) (A) (A) (A) (A) (A) (A) (A) (A)
                 (A) (A) (A) (A) (A) (A) (A) (A) (A) (A) (A) (A)
                 (A) (A) (A) (A) (A) (A) (A) (A) (A) (A) (A) (A)
                 (A) (A) (A) (A) (A) (A) (A) (A) (A) (A) (A) (A)
                 (A) (A) (A) (A) (A) (A) (A) (A) (A) (A) (A) (A)
                 (A) (A) (A) (A) (A) (A) (A) (A) (A) (A) (A) (A)
                 (A) (A) (A) (A) (A) (A) (A) (A) (A) (A) (A) (A)
                 (A) (A) (A) (A) (A) (A) (A) (A) (A) (A) (A) (A)
                 (A) (A) (A) (A) (A) (A) (A) (A) (A) (A) (A) (A)
                 (A) (A) (A) (A) (A) (A) (A) (A) (A) (A) (A) (A)
                 (A) (A) (A) (A) (A) (A) (A) (A) (A) (A) (A) (A)
                 (A) (A) (A) (A) (A) (A) (A) (A) (A) (A) (A) (A)
                 (A) (A) (A) (A) (A) (A) (A) (A) (A) (A) (A) (A)
                 (A) (A) (A) (A) (A) (A) (A) (A) (A) (A) (A) (A)
                 (A) (A) (A) (A) (A) (A) (A) (A) (A) (A) (A) (A)
                 (A) (A) (A) (A) (A) (A) (A) (A) (A) (A) (A) (A)
                 (A) (A) (A) (A) (A) (A) (A) (A) (A) (A) (A) (A)
                 (A) (A) (A) (A) (A) (A) (A) (A) (A) (A) (A) (A)
                 (A) (A) (A) (A) (A) (A) (A) (A) (A) (A) (A) (A)
                 (A) (A) (A) (A) (A) (A) (A) (A) (A) (A) (A) (A)
                 (A) (A) (A) (A) (A) (A) (A) (A) (A) (A) (A) (A)
                 (A) (A) (A) (A) (A) (A) (A) (A) (A) (A) (A) (A)
                 (A) (A) (A) (A) (A) (A) (A) (A) (A) (A) (A) (A)
                 (A) (A) (A) (A) (A) (A) (A) (A) (A) (A) (A) (A)
                 (A) (A) (A) (A) (A) (A) (A) (A) (A) (A) (A) (A)
                 (A) (A) (A) (A) (A) (A) (A) (A) (A) (A) (A) (A)
                 (A) (A) (A) (A) (A) (A) (A) (A) (A) (A) (A) (A)
                 (A) (A) (A) (A) (A) (A) (A) (A) (A) (A) (A) (A)
                 (A) (A) (A) (A) (A) (A) (A) (A) (A) (A) (A) (A)
                 (A) (A) (A) (A) (A) (A) (A) (A) (A) (A) (A) (A)
                 (A) (A) (A) (A) (A) (A) (A) (A) (A) (A) (A) (A)
                 (A) (A) (A) (A) (A) (A) (A) (A) (A) (A) (A) (A)
                 (A) (A) (A) (A) (A) (A) (A) (A) (A) (A) (A) (A)
                 (A) (A) (A) (A) (A) (A) (A) (A) (A) (A) (A) (A)
                 (A) (A) (A) (A) (A) (A) (A) (A) (A) (A) (A) (A)
                 (A) (A) (A) (A) (A) (A) (A) (A) (A) (A) (A) (A)
                 (A) (A) (A) (A) (A) (A) (A) (A) (A) (A) (A) (A)
                 (A) (A) (A) (A) (A) (A) (A) (A) (A) (A) (A) (A)
                 (A) (A) (A) (A) (A) (A) (A) (A) (A) (A) (A) (A)
                 (A) (A) (A) (A) (A) (A) (A) (A) (A) (A) (A) (A)
                 (A) (A) (A) (A) (A) (A) (A) (A) (A) (A) (A) (A)
                 (A) (A) (A) (A) (A) (A) (A) (A) (A) (A) (A) (A)
                 (A) (A) (A) (A) (A) (A) (A) (A) (A) (A) (A) (A)
                 (A) (A) (A) (A) (A) (A) (A) (A) (A) (A) (A) (A)
                 (A) (A) (A) (A) (A) (A) (A) (A) (A) (A) (A) (A)
                 (A) (A) (A) (A) (A) (A) (A) (A) (A) (A) (A) (A)
                 (A) (A) (A) (A) (A) (A) (A) (A) (A) (A) (A) (A)
                 (A) (A) (A) (A) (A) (A) (A) (A) (A) (A) (A) (A)
                 (A) (A) (A) (A) (A) (A) (A) (A) (A) (A) (A) (A)
                 (A) (A) (A) (A) (A) (A) (A) (A) (A) (A) (A) (A)
                 (A) (A) (A) (A) (A) (A) (A) (A) (A) (A) (A) (A)
                 (A) (A) (A) (A) (A) (A) (A) (A) (A) (A) (A) (A)
                 (A) (A) (A) (A) (A) (A) (A) (A) (A) (A) (A) (A)
                 (A) (A) (A) (A) (A) (A) (A) (A) (A) (A) (A) (A)
                 (A) (A) (A) (A) (A) (A) (A) (A) (A) (A) (A) (A)
                 (A) (A) (A) (A) (A) (A) (A) (A) (A) (A) (A) (A)
                 (A) (A) (A) (A) (A) (A) (A) (A) (A) (A) (A) (A)
                 (A) (A) (A) (A) (A) (A) (A) (A) (A) (A) (A) (A)
                 (A) (A) (A) (A) (A) (A) (A) (A) (A) (A) (A) (A)
                 (A) (A) (A) (A) (A) (A) (A) (A) (A) (A) (A) (A)
                 (A) (A) (A) (A) (A) (A) (A) (A) (A) (A) (A) (A)
                 (A) (A) (A) (A) (A) (A) (A) (A) (A) (A) (A) (A)
                 (A) (A) (A) (A) (A) (A) (A) (A) (A) (A) (A) (A)
                 (A) (A) (A) (A) (A) (A) (A) (A) (A) (A) (A) (A)
                 (A) (A) (A) (A) (A) (A) (A) (A) (A) (A) (A) (A)
                 (A) (A) (A) (A) (A) (A) (A) (A) (A) (A) (A) (A)
                 (A) (A) (A) (A) (A) (A) (A) (A) (A) (A) (A) (A)
                 (A) (A) (A) (A) (A) (A) (A) (A) (A) (A) (A) (A)
                 (A) (A) (A) (A) (A) (A) (A) (A) (A) (A) (A) (A)
                 (A) (A) (A) (A) (A) (A) (A) (A) (A) (A) (A) (A)
                 (A) (A) (A) (A) (A) (A) (A) (A) (A) (A) (A) (A)
                 (A) (A) (A) (A) (A) (A) (A) (A) (A) (A) (A) (A)
                 (A) (A) (A) (A) (A) (A) (A) (A) (A) (A) (A) (A)
                 (A) (A) (A) (A) (A) (A) (A) (A) (A) (A) (A) (A)
                 (A) (A) (A) (A) (A) (A) (A) (A) (A) (A) (A) (A)
                 (A) (A) (A) (A) (A) (A) (A) (A) (A) (A) (A) (A)
                 (A) (A) (A) (A) (A) (A) (A) (A) (A) (A) (A) (A)
                 (A) (A) (A) (A) (A) (A) (A) (A) (A) (A) (A) (A)
                 (A) (A) (A) (A) (A) (A) (A) (A) (A) (A) (A) (A)
                 (A) (A) (A) (A) (A) (A) (A) (A) (A) (A) (A) (A)
                 (A) (A) (A) (A) (A) (A) (A) (A) (A) (A) (A) (A)
                 (A) (A) (A) (A) (A) (A) (A) (A) (A) (A) (A) (A)
                 (A) (A) (A) (A) (A) (A) (A) (A) (A) (A) (A) (A)
                 (A) (A) (A) (A) (A) (A) (A) (A) (A) (A) (A) (A)
                 (A) (A) (A) (A) (A) (A) (A) (A) (A) (A) (A) (A)
                 (A) (A) (A) (A) (A) (A) (A) (A) (A) (A) (A) (A)
                 (A) (A) (A) (A) (A) (A) (A) (A) (A) (A) (A) (A)
                 (A) (A) (A) (A) (A) (A) (A) (A) (A) (A) (A) (A)
                 (A) (A) (A) (A) (A) (A) (A) (A) (A) (A) (A) (A)
                 (A) (A) (A) (A) (A) (A) (A) (A) (A) (A) (A) (A)
                 (A) (A) (A) (A) (A) (A) (A) (A) (A) (A) (A) (A)
                 (A) (A) (A) (A) (A) (A) (A) (A) (A) (A) (A) (A)
                 (A) (A) (A) (A) (A) (A) (A) (A) (A) (A) (A) (A)
                 (A) (A) (A) (A) (A) (A) (A) (A) (A) (A) (A) (A)
                 (A) (A) (A) (A) (A) (A) (A) (A) (A) (A) (A) (A)
                 (A) (A) (A) (A) (A) (A) (A) (A) (A) (A) (A) (A)
                 (A) (A) (A) (A) (A) (A) (A) (A) (A) (A) (A) (A)
                 (A) (A) (A) (A) (A) (A) (A) (A) (A) (A) (A) (A)
                 (A) (A) (A) (A) (A) (A) (A) (A) (A) (A) (A) (A)
                 (A) (A) (A) (A) (A) (A) (A) (A) (A) (A) (A) (A)
                 (A) (A) (A) (A) (A) (A) (A) (A) (A) (A) (A) (A)
                 (A) (A) (A) (A) (A) (A) (A) (A) (A) (A) (A) (A)
                 (A) (A) (A) (A) (A) (A) (A) (A) (A) (A) (A) (A)
                 (A) (A) (A) (A) (A) (A) (A) (A) (A) (A) (A) (A)
                 (A) (A) (A) (A) (A) (A) (A)
 The electronic state is 5-A.
 Alpha  occ. eigenvalues -- -256.14066 -88.92795 -30.02782 -25.88007 -25.85013
 Alpha  occ. eigenvalues --  -25.84987 -14.41493 -14.34481 -14.31671 -14.31667
 Alpha  occ. eigenvalues --  -14.31534 -14.31348 -10.25245 -10.23377 -10.20935
 Alpha  occ. eigenvalues --  -10.20890 -10.20867 -10.20767 -10.20759 -10.20729
 Alpha  occ. eigenvalues --  -10.20691 -10.20634 -10.20557 -10.20536 -10.20495
 Alpha  occ. eigenvalues --  -10.20092 -10.19621 -10.19574 -10.19057 -10.18998
 Alpha  occ. eigenvalues --  -10.18714 -10.18695 -10.18639 -10.18635 -10.18615
 Alpha  occ. eigenvalues --  -10.18555 -10.18527 -10.18527 -10.18504 -10.18444
 Alpha  occ. eigenvalues --  -10.18380 -10.18371 -10.18361 -10.18250 -10.18225
 Alpha  occ. eigenvalues --  -10.18209 -10.18192 -10.18183 -10.17289  -7.95687
 Alpha  occ. eigenvalues --   -5.90270  -5.89978  -5.89439  -3.48480  -2.29406
 Alpha  occ. eigenvalues --   -2.23280  -2.23250  -1.05030  -0.96677  -0.95748
 Alpha  occ. eigenvalues --   -0.95608  -0.94688  -0.90591  -0.82193  -0.81902
 Alpha  occ. eigenvalues --   -0.81545  -0.81271  -0.80646  -0.80282  -0.79993
 Alpha  occ. eigenvalues --   -0.79500  -0.79433  -0.76723  -0.75689  -0.74467
 Alpha  occ. eigenvalues --   -0.74233  -0.73850  -0.73111  -0.71588  -0.70952
 Alpha  occ. eigenvalues --   -0.70111  -0.68169  -0.67810  -0.67733  -0.64868
 Alpha  occ. eigenvalues --   -0.64393  -0.64047  -0.63986  -0.61088  -0.60590
 Alpha  occ. eigenvalues --   -0.59989  -0.58669  -0.57785  -0.56394  -0.55769
 Alpha  occ. eigenvalues --   -0.54388  -0.53541  -0.53282  -0.52634  -0.50980
 Alpha  occ. eigenvalues --   -0.50940  -0.50377  -0.48815  -0.47893  -0.47730
 Alpha  occ. eigenvalues --   -0.47445  -0.47257  -0.46851  -0.44957  -0.44906
 Alpha  occ. eigenvalues --   -0.44585  -0.44489  -0.44308  -0.43682  -0.43607
 Alpha  occ. eigenvalues --   -0.43459  -0.43321  -0.43207  -0.43012  -0.42956
 Alpha  occ. eigenvalues --   -0.42512  -0.42408  -0.42298  -0.42271  -0.41802
 Alpha  occ. eigenvalues --   -0.41650  -0.41592  -0.41435  -0.41284  -0.40303
 Alpha  occ. eigenvalues --   -0.40196  -0.40100  -0.39502  -0.39368  -0.39230
 Alpha  occ. eigenvalues --   -0.38985  -0.38458  -0.38252  -0.38128  -0.37784
 Alpha  occ. eigenvalues --   -0.37580  -0.37388  -0.37247  -0.36997  -0.36507
 Alpha  occ. eigenvalues --   -0.36379  -0.35804  -0.35701  -0.35335  -0.34508
 Alpha  occ. eigenvalues --   -0.34216  -0.33853  -0.33690  -0.32928  -0.32436
 Alpha  occ. eigenvalues --   -0.32070  -0.31422  -0.30736  -0.29428  -0.29240
 Alpha  occ. eigenvalues --   -0.29078  -0.28413  -0.27580  -0.26388  -0.26250
 Alpha  occ. eigenvalues --   -0.25440  -0.23655  -0.22748  -0.22059  -0.21622
 Alpha  occ. eigenvalues --   -0.21196  -0.21108  -0.17884  -0.17844  -0.15277
 Alpha  occ. eigenvalues --   -0.12088
 Alpha virt. eigenvalues --   -0.06743  -0.06562  -0.02045   0.00468   0.01677
 Alpha virt. eigenvalues --    0.02219   0.02576   0.03549   0.04025   0.04774
 Alpha virt. eigenvalues --    0.04986   0.05517   0.05702   0.05968   0.06517
 Alpha virt. eigenvalues --    0.06682   0.06960   0.07774   0.07858   0.08108
 Alpha virt. eigenvalues --    0.08279   0.08591   0.08995   0.09226   0.09627
 Alpha virt. eigenvalues --    0.09675   0.09890   0.10376   0.10789   0.10978
 Alpha virt. eigenvalues --    0.11373   0.11528   0.11575   0.11934   0.12119
 Alpha virt. eigenvalues --    0.12234   0.12442   0.12729   0.12982   0.13174
 Alpha virt. eigenvalues --    0.13338   0.13461   0.13561   0.13968   0.14096
 Alpha virt. eigenvalues --    0.14558   0.14588   0.14659   0.14791   0.15104
 Alpha virt. eigenvalues --    0.15181   0.15264   0.15425   0.15656   0.15887
 Alpha virt. eigenvalues --    0.15965   0.16236   0.16316   0.16572   0.16950
 Alpha virt. eigenvalues --    0.17278   0.17371   0.17438   0.17794   0.17992
 Alpha virt. eigenvalues --    0.18136   0.18344   0.18615   0.18886   0.19360
 Alpha virt. eigenvalues --    0.19728   0.19966   0.20153   0.20374   0.20715
 Alpha virt. eigenvalues --    0.20798   0.21034   0.21264   0.21702   0.22003
 Alpha virt. eigenvalues --    0.22219   0.22415   0.22660   0.22918   0.23341
 Alpha virt. eigenvalues --    0.23571   0.23700   0.24174   0.24447   0.24969
 Alpha virt. eigenvalues --    0.24999   0.25564   0.25649   0.25786   0.25984
 Alpha virt. eigenvalues --    0.26033   0.26385   0.26772   0.26981   0.27146
 Alpha virt. eigenvalues --    0.27210   0.27836   0.27970   0.28498   0.28585
 Alpha virt. eigenvalues --    0.28662   0.28842   0.29049   0.29505   0.29594
 Alpha virt. eigenvalues --    0.29987   0.29999   0.30492   0.30770   0.30864
 Alpha virt. eigenvalues --    0.30919   0.31019   0.31473   0.31851   0.32140
 Alpha virt. eigenvalues --    0.32308   0.32647   0.32726   0.33055   0.33127
 Alpha virt. eigenvalues --    0.33419   0.34095   0.34195   0.34543   0.34716
 Alpha virt. eigenvalues --    0.34926   0.35099   0.35373   0.35908   0.36185
 Alpha virt. eigenvalues --    0.36412   0.36648   0.37176   0.37444   0.37580
 Alpha virt. eigenvalues --    0.37853   0.37939   0.38042   0.38194   0.38442
 Alpha virt. eigenvalues --    0.38710   0.38921   0.39203   0.39655   0.39804
 Alpha virt. eigenvalues --    0.40099   0.40216   0.40332   0.40611   0.40794
 Alpha virt. eigenvalues --    0.41000   0.41050   0.41299   0.41492   0.41687
 Alpha virt. eigenvalues --    0.41800   0.41989   0.42212   0.42381   0.42715
 Alpha virt. eigenvalues --    0.43123   0.43440   0.43579   0.43619   0.43835
 Alpha virt. eigenvalues --    0.44009   0.44118   0.44330   0.44407   0.44737
 Alpha virt. eigenvalues --    0.44864   0.45277   0.45365   0.45456   0.45838
 Alpha virt. eigenvalues --    0.46178   0.46319   0.46386   0.46600   0.46961
 Alpha virt. eigenvalues --    0.47078   0.47220   0.47409   0.47564   0.47615
 Alpha virt. eigenvalues --    0.47703   0.47870   0.48071   0.48305   0.48515
 Alpha virt. eigenvalues --    0.48630   0.49007   0.49358   0.49394   0.49399
 Alpha virt. eigenvalues --    0.49544   0.49792   0.49896   0.50154   0.50252
 Alpha virt. eigenvalues --    0.50498   0.50756   0.50915   0.51179   0.51301
 Alpha virt. eigenvalues --    0.51512   0.51705   0.51936   0.52030   0.52253
 Alpha virt. eigenvalues --    0.52436   0.52852   0.53083   0.53176   0.53491
 Alpha virt. eigenvalues --    0.53656   0.53840   0.53976   0.54243   0.54551
 Alpha virt. eigenvalues --    0.54702   0.54845   0.55259   0.55635   0.55882
 Alpha virt. eigenvalues --    0.56107   0.56245   0.56642   0.56748   0.57064
 Alpha virt. eigenvalues --    0.57312   0.57490   0.57597   0.57911   0.58145
 Alpha virt. eigenvalues --    0.58256   0.58761   0.58817   0.59544   0.59859
 Alpha virt. eigenvalues --    0.59985   0.60279   0.60627   0.60703   0.61115
 Alpha virt. eigenvalues --    0.61175   0.61715   0.61887   0.62785   0.62941
 Alpha virt. eigenvalues --    0.63214   0.63376   0.63553   0.63777   0.63953
 Alpha virt. eigenvalues --    0.64171   0.64822   0.65109   0.65272   0.65322
 Alpha virt. eigenvalues --    0.65514   0.65780   0.65958   0.66273   0.66578
 Alpha virt. eigenvalues --    0.66911   0.67408   0.67887   0.67933   0.68110
 Alpha virt. eigenvalues --    0.68673   0.68972   0.69271   0.69582   0.70104
 Alpha virt. eigenvalues --    0.70192   0.70803   0.70999   0.71176   0.71696
 Alpha virt. eigenvalues --    0.71996   0.72247   0.72555   0.72666   0.72761
 Alpha virt. eigenvalues --    0.73176   0.73864   0.73887   0.74223   0.74491
 Alpha virt. eigenvalues --    0.74763   0.75136   0.75637   0.76074   0.76156
 Alpha virt. eigenvalues --    0.76633   0.76981   0.77218   0.77620   0.77820
 Alpha virt. eigenvalues --    0.78013   0.78225   0.78620   0.79110   0.79158
 Alpha virt. eigenvalues --    0.79884   0.80085   0.80326   0.80677   0.80706
 Alpha virt. eigenvalues --    0.81117   0.81285   0.81654   0.82092   0.82223
 Alpha virt. eigenvalues --    0.82669   0.83135   0.83417   0.83669   0.83974
 Alpha virt. eigenvalues --    0.84950   0.84987   0.85527   0.85603   0.85775
 Alpha virt. eigenvalues --    0.86421   0.86814   0.87098   0.87279   0.87422
 Alpha virt. eigenvalues --    0.88105   0.88359   0.89073   0.89558   0.89683
 Alpha virt. eigenvalues --    0.89970   0.90203   0.90524   0.90920   0.91127
 Alpha virt. eigenvalues --    0.91214   0.91652   0.92496   0.92691   0.92962
 Alpha virt. eigenvalues --    0.93098   0.93559   0.93882   0.94072   0.94115
 Alpha virt. eigenvalues --    0.94590   0.94872   0.95003   0.95406   0.95575
 Alpha virt. eigenvalues --    0.96155   0.96198   0.96772   0.96858   0.97047
 Alpha virt. eigenvalues --    0.97491   0.98030   0.98335   0.98628   0.98800
 Alpha virt. eigenvalues --    0.99161   0.99634   0.99725   1.00025   1.00614
 Alpha virt. eigenvalues --    1.00975   1.01329   1.01586   1.01692   1.02003
 Alpha virt. eigenvalues --    1.02418   1.02532   1.03115   1.03199   1.03568
 Alpha virt. eigenvalues --    1.03844   1.03975   1.04377   1.04863   1.04912
 Alpha virt. eigenvalues --    1.05057   1.05545   1.05951   1.06315   1.06578
 Alpha virt. eigenvalues --    1.07048   1.07308   1.07690   1.08059   1.08365
 Alpha virt. eigenvalues --    1.08546   1.09194   1.09529   1.09639   1.10446
 Alpha virt. eigenvalues --    1.10811   1.11205   1.11549   1.11961   1.12305
 Alpha virt. eigenvalues --    1.12341   1.13010   1.13535   1.13935   1.14153
 Alpha virt. eigenvalues --    1.14516   1.14573   1.14828   1.15113   1.15669
 Alpha virt. eigenvalues --    1.16326   1.16710   1.16971   1.17194   1.17364
 Alpha virt. eigenvalues --    1.17707   1.18040   1.18720   1.19195   1.19533
 Alpha virt. eigenvalues --    1.19975   1.20043   1.20276   1.20596   1.20928
 Alpha virt. eigenvalues --    1.21059   1.21819   1.21978   1.22546   1.23024
 Alpha virt. eigenvalues --    1.23365   1.23416   1.23694   1.23913   1.24951
 Alpha virt. eigenvalues --    1.25531   1.25995   1.26371   1.26771   1.26960
 Alpha virt. eigenvalues --    1.27346   1.27515   1.28140   1.28588   1.28792
 Alpha virt. eigenvalues --    1.28831   1.29180   1.29605   1.29848   1.30181
 Alpha virt. eigenvalues --    1.30417   1.31019   1.31316   1.31716   1.31882
 Alpha virt. eigenvalues --    1.32233   1.32757   1.32960   1.33788   1.34258
 Alpha virt. eigenvalues --    1.34760   1.35374   1.35717   1.36437   1.36929
 Alpha virt. eigenvalues --    1.37079   1.37542   1.38155   1.38620   1.39306
 Alpha virt. eigenvalues --    1.39462   1.40560   1.40800   1.41437   1.41612
 Alpha virt. eigenvalues --    1.41891   1.42617   1.42969   1.43468   1.43987
 Alpha virt. eigenvalues --    1.44883   1.45116   1.45668   1.46346   1.46769
 Alpha virt. eigenvalues --    1.47069   1.47359   1.47629   1.47966   1.48359
 Alpha virt. eigenvalues --    1.48590   1.48826   1.49299   1.49710   1.49826
 Alpha virt. eigenvalues --    1.50088   1.50452   1.50807   1.50903   1.51509
 Alpha virt. eigenvalues --    1.51917   1.52075   1.52247   1.52429   1.52592
 Alpha virt. eigenvalues --    1.52837   1.53123   1.53357   1.53659   1.54146
 Alpha virt. eigenvalues --    1.54290   1.54472   1.54929   1.55113   1.55382
 Alpha virt. eigenvalues --    1.55633   1.55859   1.56124   1.56353   1.56478
 Alpha virt. eigenvalues --    1.56687   1.56949   1.57209   1.57679   1.57799
 Alpha virt. eigenvalues --    1.58136   1.58168   1.58519   1.58758   1.59233
 Alpha virt. eigenvalues --    1.59536   1.59738   1.59916   1.60200   1.60378
 Alpha virt. eigenvalues --    1.60995   1.61326   1.61462   1.61779   1.62208
 Alpha virt. eigenvalues --    1.62295   1.62600   1.62764   1.63021   1.63393
 Alpha virt. eigenvalues --    1.63481   1.63985   1.64576   1.64766   1.65004
 Alpha virt. eigenvalues --    1.65231   1.65336   1.65813   1.66118   1.66401
 Alpha virt. eigenvalues --    1.66690   1.67177   1.67373   1.67458   1.67811
 Alpha virt. eigenvalues --    1.68015   1.68440   1.68786   1.68944   1.69270
 Alpha virt. eigenvalues --    1.69563   1.70039   1.70460   1.70645   1.70852
 Alpha virt. eigenvalues --    1.71311   1.71618   1.71790   1.72039   1.72474
 Alpha virt. eigenvalues --    1.72687   1.73133   1.73280   1.73552   1.73814
 Alpha virt. eigenvalues --    1.74354   1.74549   1.74802   1.74963   1.75433
 Alpha virt. eigenvalues --    1.76324   1.76556   1.77183   1.77443   1.78061
 Alpha virt. eigenvalues --    1.78268   1.78653   1.79165   1.79630   1.80100
 Alpha virt. eigenvalues --    1.80942   1.81331   1.81753   1.82107   1.82562
 Alpha virt. eigenvalues --    1.82859   1.83205   1.84016   1.84330   1.84979
 Alpha virt. eigenvalues --    1.85294   1.85566   1.85907   1.86219   1.86679
 Alpha virt. eigenvalues --    1.87042   1.87224   1.87434   1.87816   1.88051
 Alpha virt. eigenvalues --    1.88785   1.88919   1.89164   1.89403   1.90162
 Alpha virt. eigenvalues --    1.90357   1.90717   1.91242   1.91586   1.91993
 Alpha virt. eigenvalues --    1.92558   1.92918   1.93611   1.94343   1.94548
 Alpha virt. eigenvalues --    1.94973   1.95629   1.95993   1.96643   1.96889
 Alpha virt. eigenvalues --    1.97005   1.97504   1.98051   1.98264   1.98560
 Alpha virt. eigenvalues --    1.98739   1.99290   1.99725   2.00117   2.00325
 Alpha virt. eigenvalues --    2.00815   2.01374   2.01490   2.02126   2.02719
 Alpha virt. eigenvalues --    2.02995   2.03163   2.03826   2.04166   2.04445
 Alpha virt. eigenvalues --    2.04789   2.05285   2.06035   2.06355   2.07101
 Alpha virt. eigenvalues --    2.07366   2.07883   2.08628   2.08844   2.09229
 Alpha virt. eigenvalues --    2.10064   2.10399   2.10463   2.10863   2.11314
 Alpha virt. eigenvalues --    2.11725   2.12063   2.12320   2.12458   2.13163
 Alpha virt. eigenvalues --    2.13544   2.13814   2.14312   2.14540   2.14743
 Alpha virt. eigenvalues --    2.15890   2.16027   2.16350   2.16686   2.16907
 Alpha virt. eigenvalues --    2.16977   2.17978   2.18333   2.18565   2.19021
 Alpha virt. eigenvalues --    2.19416   2.19816   2.20400   2.20485   2.21000
 Alpha virt. eigenvalues --    2.21241   2.21394   2.22027   2.22246   2.22418
 Alpha virt. eigenvalues --    2.22788   2.23085   2.23174   2.24120   2.24670
 Alpha virt. eigenvalues --    2.25253   2.25900   2.26146   2.26635   2.27025
 Alpha virt. eigenvalues --    2.27365   2.28133   2.28438   2.28503   2.28992
 Alpha virt. eigenvalues --    2.29373   2.29458   2.30297   2.30508   2.30900
 Alpha virt. eigenvalues --    2.31474   2.31829   2.32168   2.32325   2.32843
 Alpha virt. eigenvalues --    2.33196   2.33353   2.34252   2.34777   2.35064
 Alpha virt. eigenvalues --    2.35451   2.35823   2.36165   2.36542   2.36894
 Alpha virt. eigenvalues --    2.37225   2.37435   2.37642   2.37780   2.37933
 Alpha virt. eigenvalues --    2.38505   2.39322   2.39520   2.39732   2.40263
 Alpha virt. eigenvalues --    2.40969   2.41529   2.41698   2.42778   2.42856
 Alpha virt. eigenvalues --    2.43572   2.43595   2.44120   2.44602   2.44838
 Alpha virt. eigenvalues --    2.45076   2.45210   2.45872   2.46177   2.46381
 Alpha virt. eigenvalues --    2.46904   2.46941   2.47668   2.48000   2.48413
 Alpha virt. eigenvalues --    2.48508   2.48837   2.49252   2.49857   2.50275
 Alpha virt. eigenvalues --    2.50482   2.51198   2.51489   2.51851   2.52282
 Alpha virt. eigenvalues --    2.52318   2.52585   2.53255   2.53595   2.54037
 Alpha virt. eigenvalues --    2.54400   2.54500   2.54787   2.55263   2.56069
 Alpha virt. eigenvalues --    2.56377   2.56547   2.56730   2.56907   2.57378
 Alpha virt. eigenvalues --    2.57811   2.57939   2.58051   2.58536   2.59147
 Alpha virt. eigenvalues --    2.59368   2.59800   2.59821   2.60217   2.60824
 Alpha virt. eigenvalues --    2.61079   2.61311   2.61648   2.61786   2.62128
 Alpha virt. eigenvalues --    2.62536   2.62658   2.63486   2.63819   2.64126
 Alpha virt. eigenvalues --    2.64430   2.64720   2.64905   2.65524   2.65632
 Alpha virt. eigenvalues --    2.66243   2.66495   2.66993   2.67035   2.67363
 Alpha virt. eigenvalues --    2.67904   2.68200   2.68556   2.69148   2.69482
 Alpha virt. eigenvalues --    2.69661   2.70076   2.70248   2.70659   2.71029
 Alpha virt. eigenvalues --    2.71307   2.71888   2.72347   2.72452   2.72853
 Alpha virt. eigenvalues --    2.73298   2.73419   2.73778   2.74298   2.74690
 Alpha virt. eigenvalues --    2.75080   2.75496   2.75684   2.75910   2.76854
 Alpha virt. eigenvalues --    2.77215   2.77681   2.78028   2.78230   2.78563
 Alpha virt. eigenvalues --    2.79142   2.79283   2.79976   2.80172   2.80546
 Alpha virt. eigenvalues --    2.81341   2.81400   2.82007   2.82390   2.82774
 Alpha virt. eigenvalues --    2.82850   2.83367   2.83610   2.83744   2.84208
 Alpha virt. eigenvalues --    2.84836   2.84902   2.85615   2.85771   2.86325
 Alpha virt. eigenvalues --    2.86824   2.86889   2.87577   2.87993   2.88113
 Alpha virt. eigenvalues --    2.88457   2.88839   2.89305   2.90195   2.90341
 Alpha virt. eigenvalues --    2.90628   2.90892   2.91277   2.91590   2.92257
 Alpha virt. eigenvalues --    2.92535   2.93251   2.93647   2.93984   2.94184
 Alpha virt. eigenvalues --    2.94737   2.94834   2.95019   2.95511   2.95876
 Alpha virt. eigenvalues --    2.96045   2.96496   2.96814   2.97029   2.97213
 Alpha virt. eigenvalues --    2.97406   2.97735   2.98090   2.98540   2.99014
 Alpha virt. eigenvalues --    2.99527   2.99863   3.00150   3.00396   3.00713
 Alpha virt. eigenvalues --    3.00881   3.01154   3.01463   3.02103   3.02164
 Alpha virt. eigenvalues --    3.02373   3.02973   3.03236   3.03672   3.04047
 Alpha virt. eigenvalues --    3.04723   3.05116   3.05217   3.06050   3.06339
 Alpha virt. eigenvalues --    3.06817   3.07106   3.07305   3.07967   3.08535
 Alpha virt. eigenvalues --    3.08726   3.08881   3.09406   3.09681   3.09920
 Alpha virt. eigenvalues --    3.10126   3.10308   3.10794   3.11157   3.11581
 Alpha virt. eigenvalues --    3.11675   3.11727   3.12290   3.12727   3.13170
 Alpha virt. eigenvalues --    3.13283   3.13491   3.14010   3.14304   3.14365
 Alpha virt. eigenvalues --    3.14871   3.15292   3.15599   3.15816   3.16061
 Alpha virt. eigenvalues --    3.16717   3.16926   3.17169   3.17633   3.17717
 Alpha virt. eigenvalues --    3.17764   3.18221   3.18271   3.18798   3.19083
 Alpha virt. eigenvalues --    3.19256   3.19724   3.19848   3.20046   3.20108
 Alpha virt. eigenvalues --    3.20815   3.21321   3.21669   3.21722   3.21922
 Alpha virt. eigenvalues --    3.22333   3.22702   3.22830   3.23351   3.23948
 Alpha virt. eigenvalues --    3.23998   3.24222   3.24696   3.24777   3.24910
 Alpha virt. eigenvalues --    3.25082   3.25527   3.25808   3.26047   3.26452
 Alpha virt. eigenvalues --    3.26680   3.26992   3.27044   3.27406   3.27625
 Alpha virt. eigenvalues --    3.27951   3.28162   3.28342   3.28545   3.29171
 Alpha virt. eigenvalues --    3.29308   3.29407   3.29652   3.29901   3.30068
 Alpha virt. eigenvalues --    3.30613   3.30813   3.30913   3.30985   3.31281
 Alpha virt. eigenvalues --    3.31390   3.31911   3.32047   3.32514   3.32624
 Alpha virt. eigenvalues --    3.33288   3.33567   3.33890   3.34181   3.34270
 Alpha virt. eigenvalues --    3.34950   3.35334   3.35460   3.35493   3.35628
 Alpha virt. eigenvalues --    3.35740   3.36225   3.36568   3.36775   3.36954
 Alpha virt. eigenvalues --    3.37297   3.37552   3.37758   3.37895   3.38479
 Alpha virt. eigenvalues --    3.38593   3.38686   3.39353   3.39364   3.39508
 Alpha virt. eigenvalues --    3.39926   3.39957   3.40205   3.40543   3.40906
 Alpha virt. eigenvalues --    3.41229   3.41433   3.41979   3.42054   3.42583
 Alpha virt. eigenvalues --    3.43185   3.43705   3.43791   3.44035   3.44228
 Alpha virt. eigenvalues --    3.44501   3.44706   3.45059   3.45660   3.46119
 Alpha virt. eigenvalues --    3.46449   3.46649   3.46699   3.47591   3.47770
 Alpha virt. eigenvalues --    3.48437   3.48557   3.48907   3.49272   3.49961
 Alpha virt. eigenvalues --    3.50686   3.50800   3.51140   3.51576   3.51806
 Alpha virt. eigenvalues --    3.52261   3.52539   3.52872   3.53268   3.54014
 Alpha virt. eigenvalues --    3.55038   3.55150   3.55567   3.55626   3.56175
 Alpha virt. eigenvalues --    3.56642   3.56947   3.57164   3.57328   3.58047
 Alpha virt. eigenvalues --    3.58374   3.59038   3.59385   3.59513   3.59770
 Alpha virt. eigenvalues --    3.60188   3.60286   3.60554   3.61340   3.61499
 Alpha virt. eigenvalues --    3.61836   3.62118   3.62599   3.63278   3.63771
 Alpha virt. eigenvalues --    3.63988   3.64734   3.65477   3.65904   3.66184
 Alpha virt. eigenvalues --    3.66516   3.66700   3.67065   3.67331   3.68059
 Alpha virt. eigenvalues --    3.68440   3.69319   3.69392   3.69672   3.69767
 Alpha virt. eigenvalues --    3.70338   3.70494   3.71084   3.71409   3.71910
 Alpha virt. eigenvalues --    3.72070   3.72433   3.72810   3.73065   3.73391
 Alpha virt. eigenvalues --    3.73518   3.73936   3.74575   3.74984   3.75251
 Alpha virt. eigenvalues --    3.75384   3.75922   3.76402   3.77208   3.77405
 Alpha virt. eigenvalues --    3.78062   3.78354   3.78879   3.79356   3.79826
 Alpha virt. eigenvalues --    3.80553   3.80648   3.81338   3.81653   3.82100
 Alpha virt. eigenvalues --    3.82521   3.82821   3.83593   3.84425   3.84997
 Alpha virt. eigenvalues --    3.85276   3.85729   3.86235   3.86982   3.87835
 Alpha virt. eigenvalues --    3.88214   3.88340   3.89266   3.89994   3.90293
 Alpha virt. eigenvalues --    3.90939   3.91365   3.91654   3.92108   3.92471
 Alpha virt. eigenvalues --    3.92796   3.93448   3.94371   3.94725   3.95214
 Alpha virt. eigenvalues --    3.96687   3.97167   3.97894   3.97994   3.98634
 Alpha virt. eigenvalues --    3.99478   3.99857   4.00181   4.00611   4.01203
 Alpha virt. eigenvalues --    4.01569   4.01619   4.02015   4.02487   4.03307
 Alpha virt. eigenvalues --    4.03810   4.04299   4.04972   4.05188   4.05594
 Alpha virt. eigenvalues --    4.05908   4.06330   4.06770   4.07575   4.08259
 Alpha virt. eigenvalues --    4.09604   4.10313   4.11556   4.12001   4.12238
 Alpha virt. eigenvalues --    4.12594   4.12844   4.14401   4.14629   4.15727
 Alpha virt. eigenvalues --    4.15955   4.16371   4.16901   4.17614   4.17649
 Alpha virt. eigenvalues --    4.18736   4.19303   4.19570   4.20203   4.20611
 Alpha virt. eigenvalues --    4.21192   4.21649   4.22067   4.23351   4.23868
 Alpha virt. eigenvalues --    4.24279   4.24808   4.25155   4.25897   4.26154
 Alpha virt. eigenvalues --    4.27075   4.27241   4.27567   4.28200   4.28565
 Alpha virt. eigenvalues --    4.29086   4.29766   4.30317   4.30871   4.31425
 Alpha virt. eigenvalues --    4.31633   4.33149   4.33684   4.33891   4.34284
 Alpha virt. eigenvalues --    4.34875   4.35001   4.35616   4.35803   4.36546
 Alpha virt. eigenvalues --    4.36717   4.37326   4.37959   4.38579   4.39228
 Alpha virt. eigenvalues --    4.40020   4.40381   4.40943   4.41297   4.41628
 Alpha virt. eigenvalues --    4.41987   4.42668   4.43020   4.43353   4.43830
 Alpha virt. eigenvalues --    4.44271   4.44596   4.45121   4.45389   4.46497
 Alpha virt. eigenvalues --    4.46682   4.46982   4.47257   4.47560   4.47907
 Alpha virt. eigenvalues --    4.48728   4.49520   4.50009   4.50892   4.51105
 Alpha virt. eigenvalues --    4.52436   4.52589   4.53659   4.54643   4.55169
 Alpha virt. eigenvalues --    4.55746   4.56285   4.57078   4.57642   4.57851
 Alpha virt. eigenvalues --    4.58878   4.59499   4.60238   4.60996   4.62207
 Alpha virt. eigenvalues --    4.64552   4.65539   4.66146   4.66982   4.68011
 Alpha virt. eigenvalues --    4.69269   4.69407   4.70254   4.70760   4.71166
 Alpha virt. eigenvalues --    4.71954   4.72547   4.73314   4.73816   4.74420
 Alpha virt. eigenvalues --    4.75013   4.76041   4.76620   4.76990   4.77148
 Alpha virt. eigenvalues --    4.78554   4.80887   4.82044   4.82462   4.83379
 Alpha virt. eigenvalues --    4.83675   4.84100   4.84886   4.85695   4.86152
 Alpha virt. eigenvalues --    4.86842   4.87111   4.87481   4.88287   4.88468
 Alpha virt. eigenvalues --    4.89652   4.90160   4.91046   4.91836   4.93536
 Alpha virt. eigenvalues --    4.95104   4.95909   4.96081   4.96611   4.97353
 Alpha virt. eigenvalues --    4.98851   4.98906   4.99381   5.00218   5.01185
 Alpha virt. eigenvalues --    5.02129   5.02875   5.03016   5.04893   5.05741
 Alpha virt. eigenvalues --    5.06379   5.07017   5.07300   5.08973   5.09090
 Alpha virt. eigenvalues --    5.09859   5.11784   5.13121   5.13262   5.14295
 Alpha virt. eigenvalues --    5.15823   5.16375   5.18487   5.20489   5.21183
 Alpha virt. eigenvalues --    5.22404   5.22944   5.23708   5.23791   5.24856
 Alpha virt. eigenvalues --    5.27699   5.28474   5.29843   5.30571   5.31605
 Alpha virt. eigenvalues --    5.32145   5.33955   5.36169   5.38002   5.38898
 Alpha virt. eigenvalues --    5.39579   5.40368   5.40510   5.40970   5.42234
 Alpha virt. eigenvalues --    5.43086   5.43435   5.45394   5.48086   5.49272
 Alpha virt. eigenvalues --    5.50658   5.51788   5.52285   5.53483   5.54012
 Alpha virt. eigenvalues --    5.55886   5.58567   5.61918   5.62422   5.62943
 Alpha virt. eigenvalues --    5.64346   5.64994   5.65397   5.66994   5.67850
 Alpha virt. eigenvalues --    5.68273   5.69689   5.70610   5.73557   5.76330
 Alpha virt. eigenvalues --    5.78681   5.79433   5.83222   5.87546   5.88760
 Alpha virt. eigenvalues --    5.94337   5.95198   5.99456   6.01462   6.02558
 Alpha virt. eigenvalues --    6.02919   6.04475   6.05164   6.10514   6.15049
 Alpha virt. eigenvalues --    6.16454   6.17351   6.18330   6.19990   6.22905
 Alpha virt. eigenvalues --    6.29090   6.35245   6.36622   6.42258   9.30977
 Alpha virt. eigenvalues --    9.48149   9.58806  20.04409  22.36329  22.36644
 Alpha virt. eigenvalues --   22.42091  22.44403  22.46238  22.47144  22.48343
 Alpha virt. eigenvalues --   22.53058  22.53813  22.54539  22.62671  22.63017
 Alpha virt. eigenvalues --   22.83141  22.86992  22.87928  22.95164  22.95963
 Alpha virt. eigenvalues --   22.97288  22.98837  23.01006  23.04388  23.05389
 Alpha virt. eigenvalues --   23.12708  23.15471  23.29358  23.29726  23.32225
 Alpha virt. eigenvalues --   23.33498  23.42980  23.44553  23.51682  23.52195
 Alpha virt. eigenvalues --   23.56320  23.74878  23.79891  23.80945  23.90888
 Alpha virt. eigenvalues --   32.42137  32.88642  32.97815  33.07427  33.10598
 Alpha virt. eigenvalues --   33.18074
  Beta  occ. eigenvalues -- -256.13947 -88.92742 -29.95052 -25.80513 -25.79091
  Beta  occ. eigenvalues --  -25.79049 -14.41478 -14.34299 -14.31543 -14.31539
  Beta  occ. eigenvalues --  -14.31384 -14.31208 -10.25215 -10.23371 -10.20909
  Beta  occ. eigenvalues --  -10.20867 -10.20864 -10.20753 -10.20743 -10.20709
  Beta  occ. eigenvalues --  -10.20661 -10.20617 -10.20523 -10.20519 -10.20482
  Beta  occ. eigenvalues --  -10.20087 -10.19624 -10.19579 -10.19042 -10.18986
  Beta  occ. eigenvalues --  -10.18709 -10.18683 -10.18630 -10.18622 -10.18604
  Beta  occ. eigenvalues --  -10.18554 -10.18518 -10.18505 -10.18495 -10.18426
  Beta  occ. eigenvalues --  -10.18379 -10.18372 -10.18370 -10.18260 -10.18231
  Beta  occ. eigenvalues --  -10.18200 -10.18189 -10.18169 -10.17288  -7.95626
  Beta  occ. eigenvalues --   -5.90229  -5.89917  -5.89324  -3.29902  -2.06248
  Beta  occ. eigenvalues --   -2.05179  -2.05109  -1.04915  -0.96532  -0.95605
  Beta  occ. eigenvalues --   -0.95465  -0.94533  -0.90393  -0.82155  -0.81836
  Beta  occ. eigenvalues --   -0.81487  -0.81126  -0.80565  -0.80202  -0.79959
  Beta  occ. eigenvalues --   -0.79457  -0.79385  -0.76690  -0.75656  -0.74408
  Beta  occ. eigenvalues --   -0.74200  -0.73829  -0.73097  -0.71521  -0.70896
  Beta  occ. eigenvalues --   -0.70052  -0.68088  -0.67724  -0.67668  -0.64758
  Beta  occ. eigenvalues --   -0.64219  -0.63996  -0.63919  -0.61017  -0.60535
  Beta  occ. eigenvalues --   -0.59930  -0.58511  -0.57715  -0.56323  -0.55664
  Beta  occ. eigenvalues --   -0.54341  -0.53491  -0.53233  -0.52463  -0.50885
  Beta  occ. eigenvalues --   -0.50854  -0.50302  -0.48618  -0.47810  -0.47596
  Beta  occ. eigenvalues --   -0.47277  -0.47085  -0.46710  -0.44824  -0.44732
  Beta  occ. eigenvalues --   -0.44423  -0.44334  -0.44201  -0.43580  -0.43513
  Beta  occ. eigenvalues --   -0.43400  -0.43205  -0.43011  -0.42958  -0.42883
  Beta  occ. eigenvalues --   -0.42405  -0.42346  -0.42234  -0.42195  -0.41760
[...]
   155. CR (   1) N  73                  0.99970   -14.12120  167(r),168(r),169(r),1329(v)
                                                    1386(v),1652(v),1563(r)
                                                    182(r),185(r)
   156. CR (   1) C  74                  0.99947   -10.05582  1303(v),1646(v),1650(g)
                                                    1361(v),167(r),168(r)
                                                    1563(r),172(r),169(r)
   177. LP (   1) N  68                  0.78647    -0.28168  1654(v),1651(v),1333(v)
                                                    1304(v),1298(v),1307(v)
                                                    184(r)
   178. LP (   1) N  73                  0.82639    -0.34894  168(r),167(r),169(r),1649(v)
                                                    1650(v),1329(v),1653(g)
                                                    1652(v),1656(v),1655(g)
                                                    1386(v),1363(g),185(r)
                                                    1563(r),235(r),288(r),189(r)
                                                    172(r),170(r),262(r),210(r)
                                                    209(r),1566(r),1572(r)
                                                    236(r),171(r),261(r),1571(r)
                                                    1567(r),181(r),287(r)
                                                    1568(r),1569(r),182(r)
                                                    1564(r),1574(r),190(r)
                                                    727(r),1573(r),186(r),789(r)
                                                    208(r)
  1231. RY*(   1) C  64                  0.00056     1.16332   
  1232. RY*(   2) C  64                  0.00039     2.02580   
  1233. RY*(   3) C  64                  0.00024     1.35982   
  1234. RY*(   4) C  64                  0.00006     1.28119   
  1235. RY*(   5) C  64                  0.00004     1.91422   
  1236. RY*(   6) C  64                  0.00000    21.67064   
  1237. RY*(   7) C  64                  0.00000     1.36881   
  1238. RY*(   8) C  64                  0.00001     1.52461   
  1239. RY*(   9) C  64                  0.00001     1.51532   
  1240. RY*(  10) C  64                  0.00000     2.92477   
  1241. RY*(  11) C  64                  0.00000     2.41644   
  1242. RY*(  12) C  64                  0.00000     2.00742   
  1243. RY*(  13) C  64                  0.00000     2.35714   
  1244. RY*(  14) C  64                  0.00000     3.04323   
  1245. RY*(  15) C  64                  0.00000     2.45864   
  1246. RY*(  16) C  64                  0.00000     2.71994   
  1247. RY*(  17) C  64                  0.00000     2.31538   
  1248. RY*(  18) C  64                  0.00001     2.28040   
  1249. RY*(  19) C  64                  0.00000     2.54565   
  1250. RY*(  20) C  64                  0.00000     3.52010   
  1251. RY*(  21) C  64                  0.00000     3.43022   
  1252. RY*(  22) C  64                  0.00000     3.38168   
  1253. RY*(  23) C  64                  0.00000     3.32412   
  1254. RY*(  24) C  64                  0.00000     3.82683   
  1255. RY*(  25) C  64                  0.00000     3.42908   
  1256. RY*(  26) C  64                  0.00000     3.34158   
  1257. RY*(   1) H  65                  0.00038     0.94043   
  1258. RY*(   2) H  65                  0.00008     1.72818   
  1259. RY*(   3) H  65                  0.00004     1.98473   
  1260. RY*(   4) H  65                  0.00003     2.03039   
  1261. RY*(   5) H  65                  0.00000     2.89309   
  1262. RY*(   1) H  66                  0.00038     0.94361   
  1263. RY*(   2) H  66                  0.00008     1.72714   
  1264. RY*(   3) H  66                  0.00004     1.98302   
  1265. RY*(   4) H  66                  0.00003     2.03079   
  1266. RY*(   5) H  66                  0.00000     2.89346   
  1267. RY*(   1) H  67                  0.00012     1.49682   
  1268. RY*(   2) H  67                  0.00006     1.68567   
  1269. RY*(   3) H  67                  0.00004     2.05994   
  1270. RY*(   4) H  67                  0.00001     2.93102   
  1271. RY*(   5) H  67                  0.00001     1.48853   
  1272. RY*(   1) N  68                  0.00125     0.70175   
  1273. RY*(   2) N  68                  0.00104     1.84262   
  1274. RY*(   3) N  68                  0.00051     2.15212   
  1275. RY*(   4) N  68                  0.00036     2.31939   
  1276. RY*(   5) N  68                  0.00025     1.10990   
  1277. RY*(   6) N  68                  0.00011     1.98357   
  1278. RY*(   7) N  68                  0.00007     2.54582   
  1279. RY*(   8) N  68                  0.00004     2.48290   
  1280. RY*(   9) N  68                  0.00002     2.77035   
  1281. RY*(  10) N  68                  0.00002     4.24158   
  1282. RY*(  11) N  68                  0.00001     3.34498   
  1283. RY*(  12) N  68                  0.00000    30.70669   
  1284. RY*(  13) N  68                  0.00001     4.32612   
  1285. RY*(  14) N  68                  0.00001     1.28712   
  1286. RY*(  15) N  68                  0.00001     4.36176   
  1287. RY*(  16) N  68                  0.00000     2.65417   
  1288. RY*(  17) N  68                  0.00000     3.78554   
  1289. RY*(  18) N  68                  0.00000     4.80326   
  1290. RY*(  19) N  68                  0.00001     2.73669   
  1291. RY*(  20) N  68                  0.00000     4.65841   
  1292. RY*(  21) N  68                  0.00000     4.46517   
  1293. RY*(  22) N  68                  0.00000     4.57344   
  1294. RY*(  23) N  68                  0.00000     4.15784   
  1295. RY*(  24) N  68                  0.00000     4.52516   
  1296. RY*(  25) N  68                  0.00000     4.39632   
  1297. RY*(  26) N  68                  0.00000     4.06943   
  1298. RY*(   1) H  69                  0.00028     2.17980   
  1299. RY*(   2) H  69                  0.00020     2.12868   
  1300. RY*(   3) H  69                  0.00010     1.13561   
  1301. RY*(   4) H  69                  0.00010     2.70234   
  1302. RY*(   5) H  69                  0.00000     3.08816   
  1303. RY*(   1) C  70                  0.00194     1.72536   
  1304. RY*(   2) C  70                  0.00129     1.02094   
  1305. RY*(   3) C  70                  0.00093     1.50847   
  1306. RY*(   4) C  70                  0.00081     2.02347   
  1307. RY*(   5) C  70                  0.00056     1.87561   
  1308. RY*(   6) C  70                  0.00047     1.77935   
  1309. RY*(   7) C  70                  0.00018     2.86197   
  1310. RY*(   8) C  70                  0.00011     2.33693   
  1311. RY*(   9) C  70                  0.00012     2.64495   
  1312. RY*(  10) C  70                  0.00005     3.04699   
  1313. RY*(  11) C  70                  0.00003     3.18948   
  1314. RY*(  12) C  70                  0.00002     2.44845   
  1315. RY*(  13) C  70                  0.00001     2.24441   
  1316. RY*(  14) C  70                  0.00000     2.21867   
  1317. RY*(  15) C  70                  0.00000     1.80426   
  1318. RY*(  16) C  70                  0.00000     1.06152   
  1319. RY*(  17) C  70                  0.00000    21.02507   
  1320. RY*(  18) C  70                  0.00000     3.59698   
  1321. RY*(  19) C  70                  0.00000     1.58182   
  1322. RY*(  20) C  70                  0.00000     3.96669   
  1323. RY*(  21) C  70                  0.00000     3.63901   
  1324. RY*(  22) C  70                  0.00000     3.59229   
  1325. RY*(  23) C  70                  0.00000     3.37098   
  1326. RY*(  24) C  70                  0.00000     3.84521   
  1327. RY*(  25) C  70                  0.00000     3.56678   
  1328. RY*(  26) C  70                  0.00000     3.53504   
  1329. RY*(   1) C  71                  0.00224     1.68686   
  1330. RY*(   2) C  71                  0.00171     0.61240   
  1331. RY*(   3) C  71                  0.00117     1.84630   
  1332. RY*(   4) C  71                  0.00064     1.34320   
  1333. RY*(   5) C  71                  0.00053     2.87554   
  1334. RY*(   6) C  71                  0.00037     1.80683   
  1335. RY*(   7) C  71                  0.00016     1.88023   
  1336. RY*(   8) C  71                  0.00010     1.65425   
  1337. RY*(   9) C  71                  0.00010     1.14525   
  1338. RY*(  10) C  71                  0.00006     1.99695   
  1339. RY*(  11) C  71                  0.00004     2.58041   
  1340. RY*(  12) C  71                  0.00003     2.83206   
  1341. RY*(  13) C  71                  0.00002     2.53796   
  1342. RY*(  14) C  71                  0.00002     1.48224   
  1343. RY*(  15) C  71                  0.00001     2.78606   
  1344. RY*(  16) C  71                  0.00002     2.64912   
  1345. RY*(  17) C  71                  0.00000     3.20069   
  1346. RY*(  18) C  71                  0.00000     3.48293   
  1347. RY*(  19) C  71                  0.00000    20.79134   
  1348. RY*(  20) C  71                  0.00000     3.86061   
  1349. RY*(  21) C  71                  0.00000     3.64413   
  1350. RY*(  22) C  71                  0.00000     3.77362   
  1351. RY*(  23) C  71                  0.00000     3.61410   
  1352. RY*(  24) C  71                  0.00000     3.79815   
  1353. RY*(  25) C  71                  0.00000     3.62629   
  1354. RY*(  26) C  71                  0.00000     3.57494   
  1355. RY*(   1) H  72                  0.00037     0.81543   
  1356. RY*(   2) H  72                  0.00020     2.25682   
  1357. RY*(   3) H  72                  0.00008     2.26675   
  1358. RY*(   4) H  72                  0.00002     2.62990   
  1359. RY*(   5) H  72                  0.00001     3.09377   
  1360. RY*(   1) N  73                  0.00376     1.11183   
  1361. RY*(   2) N  73                  0.00142     1.04357   
  1362. RY*(   3) N  73                  0.00127     1.06619   
  1363. RY*(   4) N  73                  0.00077     1.84010   
  1364. RY*(   5) N  73                  0.00033     2.05459   
  1365. RY*(   6) N  73                  0.00028     1.78537   
  1366. RY*(   7) N  73                  0.00023     2.74239   
  1367. RY*(   8) N  73                  0.00018     2.92003   
  1368. RY*(   9) N  73                  0.00007     2.71301   
  1369. RY*(  10) N  73                  0.00005     3.25559   
  1370. RY*(  11) N  73                  0.00003     3.11437   
  1371. RY*(  12) N  73                  0.00001     3.19356   
  1372. RY*(  13) N  73                  0.00001     4.87076   
  1373. RY*(  14) N  73                  0.00001     4.56241   
  1374. RY*(  15) N  73                  0.00001     4.90859   
  1375. RY*(  16) N  73                  0.00001     3.14141   
  1376. RY*(  17) N  73                  0.00000    31.77673   
  1377. RY*(  18) N  73                  0.00001     4.55101   
  1378. RY*(  19) N  73                  0.00001     3.61454   
  1379. RY*(  20) N  73                  0.00000     4.49277   
  1380. RY*(  21) N  73                  0.00001     4.69057   
  1381. RY*(  22) N  73                  0.00001     4.75459   
  1382. RY*(  23) N  73                  0.00000     4.74836   
  1383. RY*(  24) N  73                  0.00000     4.74456   
  1384. RY*(  25) N  73                  0.00000     4.57174   
  1385. RY*(  26) N  73                  0.00000     4.55082   
  1386. RY*(   1) C  74                  0.00196     1.55041   
  1387. RY*(   2) C  74                  0.00129     0.75628   
  1388. RY*(   3) C  74                  0.00081     1.89441   
  1389. RY*(   4) C  74                  0.00037     1.56734   
  1390. RY*(   5) C  74                  0.00029     1.83001   
  1391. RY*(   6) C  74                  0.00022     2.46399   
  1392. RY*(   7) C  74                  0.00017     1.71845   
  1393. RY*(   8) C  74                  0.00011     1.55802   
  1394. RY*(   9) C  74                  0.00010     2.21998   
  1395. RY*(  10) C  74                  0.00007     1.69636   
  1396. RY*(  11) C  74                  0.00005     1.73155   
  1397. RY*(  12) C  74                  0.00003     2.12902   
  1398. RY*(  13) C  74                  0.00002     2.76808   
  1399. RY*(  14) C  74                  0.00003     2.35376   
  1400. RY*(  15) C  74                  0.00003     3.11087   
  1401. RY*(  16) C  74                  0.00001     1.70753   
  1402. RY*(  17) C  74                  0.00000     3.24071   
  1403. RY*(  18) C  74                  0.00000     3.72695   
  1404. RY*(  19) C  74                  0.00000    21.44381   
  1405. RY*(  20) C  74                  0.00000     3.98909   
  1406. RY*(  21) C  74                  0.00000     3.62179   
  1407. RY*(  22) C  74                  0.00000     3.63861   
  1408. RY*(  23) C  74                  0.00000     3.35797   
  1409. RY*(  24) C  74                  0.00000     3.91689   
  1410. RY*(  25) C  74                  0.00000     3.64304   
  1411. RY*(  26) C  74                  0.00000     3.56017   
  1412. RY*(   1) H  75                  0.00029     0.92813   
  1413. RY*(   2) H  75                  0.00018     2.17618   
  1414. RY*(   3) H  75                  0.00012     2.33910   
  1415. RY*(   4) H  75                  0.00003     2.77135   
  1416. RY*(   5) H  75                  0.00000     3.16340   
  1643. BD*(   1) C  64 - H  65          0.00598     0.36093   
  1644. BD*(   1) C  64 - H  66          0.00603     0.36102   
  1645. BD*(   1) C  64 - H  67          0.00174     0.37442   
  1646. BD*(   1) C  64 - C  70          0.00693     0.39132   
  1647. BD*(   1) N  68 - H  69          0.00726     0.36932   
  1648. BD*(   1) N  68 - C  70          0.01351     0.43120   
  1649. BD*(   1) N  68 - C  71          0.01155     0.45395   
  1650. BD*(   1) C  70 - C  74          0.01070     0.57015   
  1651. BD*(   2) C  70 - C  74          0.14459     0.03799  1654(v),1644(v),1643(v)
                                                    1391(g),171(r),166(r),172(r)
  1652. BD*(   1) C  71 - H  72          0.00912     0.39392   
  1653. BD*(   1) C  71 - N  73          0.00827     0.53342   
  1654. BD*(   2) C  71 - N  73          0.20294     0.00107  1651(v),171(r),1330(g)
                                                    172(r),166(r),170(r),1573(r)
                                                    1570(r),169(r)
  1655. BD*(   1) N  73 - C  74          0.00817     0.48276   
  1656. BD*(   1) C  74 - H  75          0.00735     0.43395   
       -------------------------------
              Total Lewis   21.33011  ( 97.7978%)
        Valence non-Lewis    0.44412  (  2.0363%)
        Rydberg non-Lewis    0.03618  (  0.1659%)
       -------------------------------
            Total unit  3   21.81042  (100.0000%)
           Charge unit  3    0.18958
 Unable to Open any file for archive entry.
 1\1\GINC-BGN1017\SP\UAPFD\def2TZVP\C37H42Fe1N6S1(5)\BEBJONES\28-Mar-20
 24\0\\# apfd/def2TZVP scf=maxcycle=999 geom=check pop=nbo\\1ccr_II_Q\\
 0,5\Fe,0,2.8572371322,16.9226621073,24.5550120937\N,0,0.8819430645,16.
 9732434944,24.481433746\N,0,2.8408410449,15.1872090035,23.5487421451\N
 ,0,4.8682621424,16.8824629205,24.5097561634\N,0,2.9093290563,18.675360
 6266,25.4960498924\C,0,0.0877490882,17.9843744987,24.919054202\C,0,-1.
 3070405792,17.6080189019,24.8346618105\C,0,-1.3299357244,16.3332982049
 ,24.3625036995\C,0,0.0482900849,15.9645637116,24.1236777171\C,0,1.7560
 542803,14.3968663877,23.3305827546\C,0,2.1460225138,13.1492408763,22.7
 13650947\C,0,3.4999630983,13.194770337,22.5868372579\C,0,3.9135516921,
 14.4749152141,23.1165499577\C,0,5.6690451672,16.0220949889,23.83031230
 42\C,0,7.0664245187,16.3307624256,24.0574006058\C,0,7.0815948259,17.45
 33413733,24.8421543995\C,0,5.703487916,17.7840815819,25.098146425\C,0,
 4.0067666096,19.3431111724,25.9309603451\C,0,3.6311886537,20.622484664
 8,26.5023309242\C,0,2.2797186483,20.7386502307,26.3032371124\C,0,1.850
 7239092,19.5038542636,25.6997797849\C,0,0.5306606052,19.1929833852,25.
 4207680811\H,0,-0.2178926461,19.9264864958,25.6795437951\C,0,0.4463638
 841,14.747092232,23.6037278054\H,0,-0.3220410595,14.0239722519,23.3766
 142268\C,0,5.2288100157,14.8979859916,23.155489697\H,0,5.9724543138,14
 .254313993,22.7115982821\C,0,5.3061263049,18.8762629513,25.8517389225\
 H,0,6.0822531408,19.4771710389,26.3006523703\C,0,-2.4413307647,18.4869
 208094,25.2369867756\H,0,-2.4208561702,19.4207684705,24.6746256001\H,0
 ,-2.3793855802,18.7302102641,26.2979320595\H,0,-3.3946243869,17.997414
 1665,25.0532296353\C,0,-2.495305237,15.4428941186,24.0976409079\H,0,-2
 .4123278037,14.5247629338,24.679187486\H,0,-2.5412794833,15.1712150378
 ,23.0424112361\H,0,-3.4272089564,15.9346812846,24.3654090566\C,0,1.395
 633494,21.8988997417,26.6005112962\H,0,0.8762145309,21.7613767913,27.5
 505655031\H,0,0.6452781346,22.0184771891,25.8204298431\H,0,1.985167710
 6,22.8116315921,26.6614544369\C,0,4.5550228987,21.5724979388,27.079144
 406\H,0,5.5581829179,21.562552633,26.6686113364\C,0,4.2734805872,22.42
 35114216,28.0609652601\H,0,3.3110663956,22.4468956448,28.5412498701\H,
 0,5.0112053018,23.112692533,28.4372476158\C,0,8.2565679727,18.24064836
 72,25.3076674287\H,0,8.5056527137,17.9980068486,26.3423501718\H,0,8.05
 11722816,19.3088793641,25.2530448715\H,0,9.1220459585,18.0214453442,24
 .6856105223\C,0,8.17303451,15.5935457327,23.4896984777\H,0,7.994158024
 ,15.1604948052,22.5121232694\C,0,9.3529075066,15.4056036164,24.0721085
 102\H,0,9.5683584484,15.7709726893,25.0611245577\H,0,10.1399752057,14.
 8534410927,23.5857746539\C,0,4.4316580932,12.1740968988,22.029694068\H
 ,0,3.8889762718,11.2867741008,21.7127969\H,0,5.1663533847,11.878212826
 2,22.778873259\H,0,4.9693002085,12.5729439737,21.1688940402\C,0,1.1973
 805801,12.0608379672,22.3439070696\H,0,1.7284133904,11.2133180985,21.9
 174262972\H,0,0.4727618681,12.4155975553,21.6103351763\H,0,0.648501077
 5,11.7165363235,23.2207981102\C,0,3.9501276555,20.4014430027,20.328502
 3778\H,0,3.1590969088,21.0783234933,20.0057787275\H,0,4.4259324588,19.
 9852511927,19.4405184492\H,0,4.688867938,20.9697905946,20.8848331291\N
 ,0,2.4422773736,18.4469462599,20.7523627222\H,0,2.022609725,18.4425158
 289,19.8371803688\C,0,3.4024605597,19.3221351859,21.1885315579\C,0,2.1
 679124216,17.5996151044,21.768997307\H,0,1.4528772415,16.8051964792,21
 .7155606726\N,0,2.8949493592,17.8850826215,22.8206835599\C,0,3.6679100
 813,18.9532160042,22.476162852\H,0,4.359038289,19.3830880349,23.170991
 4657\C,0,3.3793704136,13.0612380013,26.3681886734\H,0,4.1498140613,12.
 2927200471,26.3807976449\H,0,2.8981436978,13.0532629203,25.3947890817\
 H,0,2.6338112182,12.8246669656,27.1236906033\C,0,3.996599254,14.419265
 1633,26.6416220306\H,0,4.7421896711,14.6712918612,25.8899493087\H,0,4.
 4475475024,14.4458347585,27.632862836\S,0,2.6999394053,15.7261399113,2
 6.61167793\C,0,3.3689734468,16.7928526588,27.9253379105\H,0,4.36985053
 19,17.1191710373,27.6614833035\H,0,3.3683281614,16.2433359641,28.86306
 70316\H,0,2.7112698376,17.6522234086,27.9976332792\\Version=ES64L-G16R
 evC.02\State=5-A\HF=-3424.8047892\S2=6.017286\S2-1=0.\S2A=6.000094\RMS
 D=3.700e-09\Dipole=-0.3847302,0.3462054,-1.5162425\Quadrupole=-4.38868
 79,-3.2592462,7.6479341,-0.5969599,4.9610225,-2.9830713\PG=C01 [X(C37H
 42Fe1N6S1)]\\@
 The archive entry for this job was punched.


 I KNOW YOU BELIEVE YOU UNDERSTAND WHAT YOU THINK I SAID,
 BUT I AM NOT SURE YOU REALIZE THAT WHAT YOU HEARD IS NOT WHAT I MEANT.
 Job cpu time:      14 days 18 hours 54 minutes 50.1 seconds.
 Elapsed time:       0 days  5 hours 20 minutes 12.5 seconds.
 File lengths (MBytes):  RWF=   2554 Int=      0 D2E=      0 Chk=    227 Scr=      1
 Normal termination of Gaussian 16 at Thu Mar 28 04:54:20 2024.
