 Entering Gaussian System, Link 0=g16
 Input=1ch101.com
 Output=1ch101.log
 Initial command:
 /sw/chem/gaussian/g16_C02/a100/g16/l1.exe "/local/bebjones_7775783/Gau-140021.inp" -scrdir="/local/bebjones_7775783/"
 Entering Link 1 = /sw/chem/gaussian/g16_C02/a100/g16/l1.exe PID=    140022.
  
 Copyright (c) 1988-2021, Gaussian, Inc.  All Rights Reserved.
  
 This is part of the Gaussian(R) 16 program.  It is based on
 the Gaussian(R) 09 system (copyright 2009, Gaussian, Inc.),
 the Gaussian(R) 03 system (copyright 2003, Gaussian, Inc.),
 the Gaussian(R) 98 system (copyright 1998, Gaussian, Inc.),
 the Gaussian(R) 94 system (copyright 1995, Gaussian, Inc.),
 the Gaussian 92(TM) system (copyright 1992, Gaussian, Inc.),
 the Gaussian 90(TM) system (copyright 1990, Gaussian, Inc.),
 the Gaussian 88(TM) system (copyright 1988, Gaussian, Inc.),
 the Gaussian 86(TM) system (copyright 1986, Carnegie Mellon
 University), and the Gaussian 82(TM) system (copyright 1983,
 Carnegie Mellon University). Gaussian is a federally registered
 trademark of Gaussian, Inc.
  
 This software contains proprietary and confidential information,
 including trade secrets, belonging to Gaussian, Inc.
  
 This software is provided under written license and may be
 used, copied, transmitted, or stored only in accord with that
 written license.
  
 The following legend is applicable only to US Government
 contracts under FAR:
  
                    RESTRICTED RIGHTS LEGEND
  
 Use, reproduction and disclosure by the US Government is
 subject to restrictions as set forth in subparagraphs (a)
 and (c) of the Commercial Computer Software - Restricted
 Rights clause in FAR 52.227-19.
  
 Gaussian, Inc.
 340 Quinnipiac St., Bldg. 40, Wallingford CT 06492
  
  
 ---------------------------------------------------------------
 Warning -- This program may not be used in any manner that
 competes with the business of Gaussian, Inc. or will provide
 assistance to any competitor of Gaussian, Inc.  The licensee
 of this program is prohibited from giving any competitor of
 Gaussian, Inc. access to this program.  By using this program,
 the user acknowledges that Gaussian, Inc. is engaged in the
 business of creating and licensing software in the field of
 computational chemistry and represents and warrants to the
 licensee that it is not a competitor of Gaussian, Inc. and that
 it will not use this program in any manner prohibited above.
 ---------------------------------------------------------------
  

 Cite this work as:
 Gaussian 16, Revision C.02,
 M. J. Frisch, G. W. Trucks, H. B. Schlegel, G. E. Scuseria, 
 M. A. Robb, J. R. Cheeseman, G. Scalmani, V. Barone, 
 G. A. Petersson, H. Nakatsuji, X. Li, M. Caricato, A. V. Marenich, 
 J. Bloino, B. G. Janesko, R. Gomperts, B. Mennucci, H. P. Hratchian, 
 J. V. Ortiz, A. F. Izmaylov, J. L. Sonnenberg, D. Williams-Young, 
 F. Ding, F. Lipparini, F. Egidi, J. Goings, B. Peng, A. Petrone, 
 T. Henderson, D. Ranasinghe, V. G. Zakrzewski, J. Gao, N. Rega, 
 G. Zheng, W. Liang, M. Hada, M. Ehara, K. Toyota, R. Fukuda, 
 J. Hasegawa, M. Ishida, T. Nakajima, Y. Honda, O. Kitao, H. Nakai, 
 T. Vreven, K. Throssell, J. A. Montgomery, Jr., J. E. Peralta, 
 F. Ogliaro, M. J. Bearpark, J. J. Heyd, E. N. Brothers, K. N. Kudin, 
 V. N. Staroverov, T. A. Keith, R. Kobayashi, J. Normand, 
 K. Raghavachari, A. P. Rendell, J. C. Burant, S. S. Iyengar, 
 J. Tomasi, M. Cossi, J. M. Millam, M. Klene, C. Adamo, R. Cammi, 
 J. W. Ochterski, R. L. Martin, K. Morokuma, O. Farkas, 
 J. B. Foresman, and D. J. Fox, Gaussian, Inc., Wallingford CT, 2019.
 
 ******************************************
 Gaussian 16:  ES64L-G16RevC.02  7-Dec-2021
                18-Mar-2024 
 ******************************************
 %mem=16GB
 %CPU=0-71
 SetSPE:  set environment variable "OMP_PROC_BIND" = "true"
 SetSPE:  set environment variable "OMP_PLACES" = "{0},{1},{2},{3},{4},{5},{6},{7},{8},{9},{10},{11},{12},{13},{14},{15},{16},{17},{18},{19},{20},{21},{22},{23},{24},{25},{26},{27},{28},{29},{30},{31},{32},{33},{34},{35},{36},{37},{38},{39},{40},{41},{42},{43},{44},{45},{46},{47},{48},{49},{50},{51},{52},{53},{54},{55},{56},{57},{58},{59},{60},{61},{62},{63},{64},{65},{66},{67},{68},{69},{70},{71}"
 Will use up to   72 processors via shared memory.
 %gpucpu=0,1,2,3=0,1,2,3
 Will use    4 GPUs:
 Thread  CPU   GPU
      0    0     0
      1    1     1
      2    2     2
      3    3     3
      4    4    -1
      5    5    -1
      6    6    -1
      7    7    -1
      8    8    -1
      9    9    -1
     10   10    -1
     11   11    -1
     12   12    -1
     13   13    -1
     14   14    -1
     15   15    -1
     16   16    -1
     17   17    -1
     18   18    -1
     19   19    -1
     20   20    -1
     21   21    -1
     22   22    -1
     23   23    -1
     24   24    -1
     25   25    -1
     26   26    -1
     27   27    -1
     28   28    -1
     29   29    -1
     30   30    -1
     31   31    -1
     32   32    -1
     33   33    -1
     34   34    -1
     35   35    -1
     36   36    -1
     37   37    -1
     38   38    -1
     39   39    -1
     40   40    -1
     41   41    -1
     42   42    -1
     43   43    -1
     44   44    -1
     45   45    -1
     46   46    -1
     47   47    -1
     48   48    -1
     49   49    -1
     50   50    -1
     51   51    -1
     52   52    -1
     53   53    -1
     54   54    -1
     55   55    -1
     56   56    -1
     57   57    -1
     58   58    -1
     59   59    -1
     60   60    -1
     61   61    -1
     62   62    -1
     63   63    -1
     64   64    -1
     65   65    -1
     66   66    -1
     67   67    -1
     68   68    -1
     69   69    -1
     70   70    -1
     71   71    -1
 SetGPE:  set environment variable "OMP_PROC_BIND" = "true"
 SetGPE:  set environment variable "OMP_PLACES" = "{0},{1},{2},{3},{4},{5},{6},{7},{8},{9},{10},{11},{12},{13},{14},{15},{16},{17},{18},{19},{20},{21},{22},{23},{24},{25},{26},{27},{28},{29},{30},{31},{32},{33},{34},{35},{36},{37},{38},{39},{40},{41},{42},{43},{44},{45},{46},{47},{48},{49},{50},{51},{52},{53},{54},{55},{56},{57},{58},{59},{60},{61},{62},{63},{64},{65},{66},{67},{68},{69},{70},{71}"
 %chk=1ch1_II_S.chk
 Properties for Device   0
 Minimum vector length:                              32
 Maximum vector length:                            1024
 Number of SMPs:                                    108
 Maximum number of threads per SMP:                2048
 Number of ASync Engines:                             5
 Memory:                                           9192980480
 Properties for Device   1
 Minimum vector length:                              32
 Maximum vector length:                            1024
 Number of SMPs:                                    108
 Maximum number of threads per SMP:                2048
 Number of ASync Engines:                             5
 Memory:                                           9192980480
 Properties for Device   2
 Minimum vector length:                              32
 Maximum vector length:                            1024
 Number of SMPs:                                    108
 Maximum number of threads per SMP:                2048
 Number of ASync Engines:                             5
 Memory:                                           9192980480
 Properties for Device   3
 Minimum vector length:                              32
 Maximum vector length:                            1024
 Number of SMPs:                                    108
 Maximum number of threads per SMP:                2048
 Number of ASync Engines:                             5
 Memory:                                           9192980480
   8273682432 words of memory will be used on each GPU.
 ------------------------------------------
 # polar def2tzvp apfd int=(grid=ultrafine)
 ------------------------------------------
 1/38=1,172=1/1;
 2/12=2,17=6,18=5,40=1/2;
 3/5=44,7=101,11=2,25=1,30=1,74=-44,75=-5/1,2,3;
 4//1;
 5/5=2,38=5,98=1/2;
 8/6=4,10=90,11=11/1;
 10/6=1,13=10/2;
 6/7=2,8=2,9=2,10=2,28=1/1;
 99/5=1,9=1/99;
 ---------
 1ch1_II_S
 ---------
 Symbolic Z-matrix:
 Charge =  0 Multiplicity = 1
 Fe                    35.22155   4.02257   10.33893 
 N                     37.12169   3.76451   9.78045 
 N                     34.97264   5.35027   8.84416 
 N                     33.33571   4.38657   10.9475 
 N                     35.48691   2.78535   11.87429 
 C                     38.02065   2.91555   10.34397 
 C                     39.26923   2.93234   9.61345 
 C                     39.0998   3.80949   8.58834 
 C                     37.74625   4.30751   8.70167 
 C                     35.88389   5.68292   7.88937 
 C                     35.33908   6.64959   6.97047 
 C                     34.05071   6.87838   7.37399 
 C                     33.84541   6.04587   8.54417 
 C                     32.4501   5.26865   10.40686 
 C                     31.25224   5.34698   11.20079 
 C                     31.43737   4.49844   12.26148 
 C                     32.74382   3.90051   12.07009 
 C                     34.58084   2.46362   12.83432 
 C                     35.15125   1.53393   13.78595 
 C                     36.44233   1.3452    13.40499 
 C                     36.62414   2.11402   12.19227 
 C                     37.79919   2.13931   11.46655 
 H                     38.6155   1.52632   11.81724 
 C                     37.1762   5.19189   7.8079 
 H                     37.79491   5.54638   6.99739 
 C                     32.66878   6.02015   9.26564 
 H                     31.8686   6.6653    8.9367 
 C                     33.29732   2.96641   12.92819 
 H                     32.69995   2.64292   13.76694 
 C                     40.06098   4.2187    7.52479 
 H                     39.68136   3.95097   6.53796 
 H                     41.02261   3.73088   7.66404 
 H                     40.21758   5.29733   7.54436 
 C                     40.46709   2.12231   9.97473 
 H                     40.22946   1.05848   9.95562 
 H                     40.81149   2.37302   10.97824 
 H                     41.28202   2.3037    9.27817 
 C                     36.04558   7.1978    5.77948 
 H                     36.65825   6.43216   5.30537 
 H                     36.69939   8.02472   6.0614 
 H                     35.32288   7.56437   5.05316 
 C                     33.04926   7.74271   6.78984 
 H                     32.02697   7.38916   6.86164 
 C                     33.28626   8.90762   6.19521 
 H                     34.2738   9.33095   6.13761 
 H                     32.49011   9.4944    5.76759 
 C                     30.05316   6.16378   10.86635 
 H                     29.86595   6.15011   9.79366 
 H                     30.18994   7.20295   11.17087 
 H                     29.17781   5.76836   11.37765 
 C                     30.54397   4.1987    13.35828 
 H                     30.58798   3.18342   13.73554 
 C                     29.70499   5.05844   13.92729 
 H                     29.65155   6.09078   13.62849 
 H                     29.05628   4.76186   14.73483 
 C                     34.41979   0.97613   14.95872 
 H                     33.52466   0.44523   14.63407 
 H                     34.11232   1.77379   15.63585 
 H                     35.04756   0.28143   15.51139 
 C                     37.50023   0.50518   14.03468 
 H                     37.82057  -0.28391   13.35366 
 H                     37.13438   0.04198   14.94777 
 H                     38.37169   1.11111   14.28294 
 O                     35.786    5.755     11.696 
 H                     34.962    6.145     11.986 
 H                     36.602    6.003     11.947 
 C                     32.63358  -0.43684   8.23569 
 H                     33.22558  -1.32518   8.01561 
 H                     31.93929  -0.27711   7.41087 
 H                     32.0627  -0.6148    9.14149 
 N                     34.33453   1.21884   7.43769 
 H                     34.43125   0.82759   6.51512 
 C                     33.50878   0.74772   8.42475 
 C                     34.98548   2.2982    7.92841 
 H                     35.69857   2.87309   7.37399 
 N                     34.62228   2.53826   9.1651 
 C                     33.70472   1.58164   9.48794 
 H                     33.2508   1.55942   10.45678 
 
 Stoichiometry    C34H36FeN6O
 Framework group  C1[X(C34H36FeN6O)]
 Deg. of freedom   228
 Full point group                 C1      NOp   1
 Largest Abelian subgroup         C1      NOp   1
 Largest concise Abelian subgroup C1      NOp   1
                         Standard orientation:                         
 ---------------------------------------------------------------------
 Center     Atomic      Atomic             Coordinates (Angstroms)
 Number     Number       Type             X           Y           Z
 ---------------------------------------------------------------------
      1         26           0       -0.042307   -0.189179   -0.326701
      2          7           0       -1.318956   -1.714833   -0.504317
      3          7           0       -1.594113    1.095698   -0.317566
      4          7           0        1.225630    1.375169   -0.260286
      5          7           0        1.498250   -1.443869   -0.431077
      6          6           0       -0.998614   -3.034600   -0.549243
      7          6           0       -2.192436   -3.850838   -0.587096
      8          6           0       -3.244467   -2.989858   -0.557164
      9          6           0       -2.677471   -1.660561   -0.490598
     10          6           0       -2.917092    0.775929   -0.329078
     11          6           0       -3.734922    1.961350   -0.289487
     12          6           0       -2.870599    3.021321   -0.222539
     13          6           0       -1.537169    2.450013   -0.233448
     14          6           0        0.903792    2.698451   -0.257603
     15          6           0        2.085408    3.515527   -0.344211
     16          6           0        3.146408    2.650854   -0.421440
     17          6           0        2.580250    1.318299   -0.352792
     18          6           0        2.818551   -1.123059   -0.432416
     19          6           0        3.635029   -2.314548   -0.527284
     20          6           0        2.771565   -3.358553   -0.637417
     21          6           0        1.441060   -2.796057   -0.546934
     22          6           0        0.284111   -3.550453   -0.566968
     23          1           0        0.388848   -4.623055   -0.627309
     24          6           0       -3.431623   -0.507986   -0.397107
     25          1           0       -4.505740   -0.615849   -0.402594
     26          6           0       -0.382578    3.206340   -0.210036
     27          1           0       -0.490699    4.279959   -0.191591
     28          6           0        3.333880    0.157981   -0.383375
     29          1           0        4.407552    0.260672   -0.424654
     30          6           0       -4.706333   -3.281339   -0.578314
     31          1           0       -5.184814   -2.920784    0.333100
     32          1           0       -4.886391   -4.350612   -0.657852
     33          1           0       -5.182831   -2.789310   -1.426378
     34          6           0       -2.192609   -5.339984   -0.650240
     35          1           0       -1.681338   -5.759680    0.216372
     36          1           0       -1.677161   -5.686167   -1.546320
     37          1           0       -3.208547   -5.726927   -0.669033
     38          6           0       -5.223453    1.978416   -0.243465
     39          1           0       -5.602197    1.158378    0.365168
     40          1           0       -5.644877    1.876421   -1.244839
     41          1           0       -5.572671    2.917389    0.181493
     42          6           0       -3.162205    4.435263   -0.139278
     43          1           0       -2.464491    5.022933    0.446438
     44          6           0       -4.190365    5.047211   -0.718217
     45          1           0       -4.886611    4.523959   -1.350046
     46          1           0       -4.354980    6.105617   -0.601093
     47          6           0        2.104509    5.003683   -0.301284
     48          1           0        1.366300    5.377141    0.406876
     49          1           0        1.875083    5.426602   -1.280981
     50          1           0        3.088140    5.355651    0.003023
     51          6           0        4.558606    2.944530   -0.523626
     52          1           0        5.220797    2.244216   -0.027507
     53          6           0        5.087183    3.976506   -1.173564
     54          1           0        4.484273    4.676981   -1.724665
     55          1           0        6.151591    4.141965   -1.197262
     56          6           0        5.125395   -2.313477   -0.546577
     57          1           0        5.519264   -1.841689    0.353864
     58          1           0        5.499025   -1.760015   -1.408777
     59          1           0        5.512261   -3.328293   -0.597822
     60          6           0        3.061394   -4.812976   -0.785557
     61          1           0        2.675063   -5.370811    0.068050
     62          1           0        4.132065   -4.989409   -0.853870
     63          1           0        2.590872   -5.206335   -1.686728
     64          8           0        0.070772    0.065504   -2.581458
     65          1           0        0.554864    0.876501   -2.733496
     66          1           0       -0.232697   -0.490384   -3.205361
     67          6           0        1.311805   -0.252055    5.074214
     68          1           0        1.188432   -1.181630    5.629843
     69          1           0        0.951193    0.567093    5.696176
     70          1           0        2.368734   -0.101242    4.878731
     71          7           0       -0.787909   -0.468686    3.726797
     72          1           0       -1.404625   -0.568891    4.516219
     73          6           0        0.571085   -0.302971    3.788281
     74          6           0       -1.142118   -0.468842    2.421382
     75          1           0       -2.147978   -0.580290    2.071809
     76          7           0       -0.090611   -0.313713    1.653780
     77          6           0        0.982549   -0.209898    2.489736
     78          1           0        1.970905   -0.075576    2.102060
 ---------------------------------------------------------------------
 Rotational constants (GHZ):           0.0926919           0.0912625           0.0592806
 Standard basis: def2TZVP (5D, 7F)
 There are  1744 symmetry adapted cartesian basis functions of A   symmetry.
 There are  1532 symmetry adapted basis functions of A   symmetry.
  1532 basis functions,  2481 primitive gaussians,  1744 cartesian basis functions
   158 alpha electrons      158 beta electrons
       nuclear repulsion energy      5964.8482439982 Hartrees.
 NAtoms=   78 NActive=   78 NUniq=   78 SFac= 1.00D+00 NAtFMM=   60 NAOKFM=T Big=T
 Integral buffers will be    131072 words long.
 Raffenetti 2 integral format.
 Two-electron integral symmetry is turned on.
 R6APFD:  NTU= -4 IXU= 1 FactS= 1.050
 Nuclear repulsion after empirical dispersion term =     5964.6955764334 Hartrees.
 One-electron integrals computed using PRISM.
   1 Symmetry operations used in ECPInt.
 ECPInt:  NShTT=  186355 NPrTT=  576197 LenC2=  147128 LenP2D=  301055.
 LDataN:  DoStor=T MaxTD1= 6 Len=  172
 Number of processors reduced to  23 by ecpmxn.
 NBasis=  1532 RedAO= T EigKep=  3.18D-06  NBF=  1532
 NBsUse=  1532 1.00D-06 EigRej= -1.00D+00 NBFU=  1532
 ExpMin= 4.20D-02 ExpMax= 3.01D+05 ExpMxC= 2.91D+03 IAcc=3 IRadAn=         5 AccDes= 0.00D+00
 Harris functional with IExCor= 3731 and IRadAn=       5 diagonalized for initial guess.
 HarFok:  IExCor= 3731 AccDes= 0.00D+00 IRadAn=         5 IDoV= 1 UseB2=F ITyADJ=14
 ICtDFT=  3500011 ScaDFX=  1.000000  1.000000  1.000000  1.000000
 FoFCou: FMM=F IPFlag=           0 FMFlag=      100000 FMFlg1=        2001
         NFxFlg=           0 DoJE=T BraDBF=F KetDBF=T FulRan=T
         wScrn=  0.000000 ICntrl=       500 IOpCl=  0 I1Cent=   200000004 NGrid=           0
         NMat0=    1 NMatS0=      1 NMatT0=    0 NMatD0=    1 NMtDS0=    0 NMtDT0=    0
 Petite list used in FoFCou.
 Requested convergence on RMS density matrix=1.00D-08 within 128 cycles.
 Requested convergence on MAX density matrix=1.00D-06.
 Requested convergence on             energy=1.00D-06.
 No special actions if energy rises.
 EnCoef did     3 forward-backward iterations
 EnCoef did   100 forward-backward iterations
 EnCoef did   100 forward-backward iterations
 EnCoef did   100 forward-backward iterations
 EnCoef did     4 forward-backward iterations
 Restarting incremental Fock formation.
 SCF Done:  E(RAPFD) =  -2984.02685980     A.U. after   26 cycles
            NFock= 26  Conv=0.24D-08     -V/T= 2.0034
 DoSCS=F DFT=T ScalE2(SS,OS)=  1.000000  1.000000
 Range of M.O.s used for correlation:     1  1532
 NBasis=  1532 NAE=   158 NBE=   158 NFC=     0 NFV=     0
 NROrb=   1532 NOA=   158 NOB=   158 NVA=  1374 NVB=  1374

 **** Warning!!: The largest alpha MO coefficient is  0.47210284D+02

          Differentiating once with respect to electric field.
                with respect to dipole field.
          Electric field/nuclear overlap derivatives assumed to be zero.
          There are     3 degrees of freedom in the 1st order CPHF.  IDoFFX=0 NUNeed=     3.
      3 vectors produced by pass  0 Test12= 7.24D-12 3.33D-08 XBig12= 1.85D+03 2.51D+01.
 AX will form     3 AO Fock derivatives at one time.
      3 vectors produced by pass  1 Test12= 7.24D-12 3.33D-08 XBig12= 1.23D+03 9.10D+00.
      3 vectors produced by pass  2 Test12= 7.24D-12 3.33D-08 XBig12= 3.82D+02 5.10D+00.
      3 vectors produced by pass  3 Test12= 7.24D-12 3.33D-08 XBig12= 2.26D+02 3.51D+00.
      3 vectors produced by pass  4 Test12= 7.24D-12 3.33D-08 XBig12= 1.49D+02 2.20D+00.
      3 vectors produced by pass  5 Test12= 7.24D-12 3.33D-08 XBig12= 5.83D+01 1.69D+00.
      3 vectors produced by pass  6 Test12= 7.24D-12 3.33D-08 XBig12= 4.28D+01 1.75D+00.
      3 vectors produced by pass  7 Test12= 7.24D-12 3.33D-08 XBig12= 1.82D+01 1.03D+00.
      3 vectors produced by pass  8 Test12= 7.24D-12 3.33D-08 XBig12= 9.82D+00 6.77D-01.
      3 vectors produced by pass  9 Test12= 7.24D-12 3.33D-08 XBig12= 3.59D+00 5.24D-01.
      3 vectors produced by pass 10 Test12= 7.24D-12 3.33D-08 XBig12= 2.08D+00 2.82D-01.
      3 vectors produced by pass 11 Test12= 7.24D-12 3.33D-08 XBig12= 1.10D+00 1.84D-01.
      3 vectors produced by pass 12 Test12= 7.24D-12 3.33D-08 XBig12= 4.57D-01 1.17D-01.
      3 vectors produced by pass 13 Test12= 7.24D-12 3.33D-08 XBig12= 1.30D-01 5.83D-02.
      3 vectors produced by pass 14 Test12= 7.24D-12 3.33D-08 XBig12= 3.94D-02 2.40D-02.
      3 vectors produced by pass 15 Test12= 7.24D-12 3.33D-08 XBig12= 1.43D-02 2.34D-02.
      3 vectors produced by pass 16 Test12= 7.24D-12 3.33D-08 XBig12= 4.45D-03 1.13D-02.
      3 vectors produced by pass 17 Test12= 7.24D-12 3.33D-08 XBig12= 1.85D-03 1.04D-02.
      3 vectors produced by pass 18 Test12= 7.24D-12 3.33D-08 XBig12= 5.83D-04 7.23D-03.
      3 vectors produced by pass 19 Test12= 7.24D-12 3.33D-08 XBig12= 1.22D-04 3.52D-03.
      3 vectors produced by pass 20 Test12= 7.24D-12 3.33D-08 XBig12= 3.67D-05 1.76D-03.
      3 vectors produced by pass 21 Test12= 7.24D-12 3.33D-08 XBig12= 7.93D-06 4.51D-04.
      3 vectors produced by pass 22 Test12= 7.24D-12 3.33D-08 XBig12= 2.75D-06 3.86D-04.
      3 vectors produced by pass 23 Test12= 7.24D-12 3.33D-08 XBig12= 3.89D-07 1.42D-04.
      3 vectors produced by pass 24 Test12= 7.24D-12 3.33D-08 XBig12= 6.92D-08 5.95D-05.
      3 vectors produced by pass 25 Test12= 7.24D-12 3.33D-08 XBig12= 1.70D-08 2.02D-05.
      3 vectors produced by pass 26 Test12= 7.24D-12 3.33D-08 XBig12= 3.27D-09 8.46D-06.
      3 vectors produced by pass 27 Test12= 7.24D-12 3.33D-08 XBig12= 6.52D-10 4.28D-06.
      3 vectors produced by pass 28 Test12= 7.24D-12 3.33D-08 XBig12= 1.13D-10 1.58D-06.
      3 vectors produced by pass 29 Test12= 7.24D-12 3.33D-08 XBig12= 1.14D-11 5.41D-07.
      3 vectors produced by pass 30 Test12= 7.24D-12 3.33D-08 XBig12= 1.51D-12 1.59D-07.
      2 vectors produced by pass 31 Test12= 7.24D-12 3.33D-08 XBig12= 3.26D-13 1.01D-07.
      1 vectors produced by pass 32 Test12= 7.24D-12 3.33D-08 XBig12= 2.35D-14 4.89D-08.
 InvSVY:  IOpt=1 It=  1 EMax= 1.24D-14
 Solved reduced A of dimension    96 with     3 vectors.
 Isotropic polarizability for W=    0.000000      575.54 Bohr**3.
 End of Minotr F.D. properties file   721 does not exist.
 End of Minotr F.D. properties file   722 does not exist.
 End of Minotr F.D. properties file   788 does not exist.

 **********************************************************************

            Population analysis using the SCF Density.

 **********************************************************************

 Orbital symmetries:
       Occupied  (A) (A) (A) (A) (A) (A) (A) (A) (A) (A) (A) (A)
                 (A) (A) (A) (A) (A) (A) (A) (A) (A) (A) (A) (A)
                 (A) (A) (A) (A) (A) (A) (A) (A) (A) (A) (A) (A)
                 (A) (A) (A) (A) (A) (A) (A) (A) (A) (A) (A) (A)
                 (A) (A) (A) (A) (A) (A) (A) (A) (A) (A) (A) (A)
                 (A) (A) (A) (A) (A) (A) (A) (A) (A) (A) (A) (A)
                 (A) (A) (A) (A) (A) (A) (A) (A) (A) (A) (A) (A)
                 (A) (A) (A) (A) (A) (A) (A) (A) (A) (A) (A) (A)
                 (A) (A) (A) (A) (A) (A) (A) (A) (A) (A) (A) (A)
                 (A) (A) (A) (A) (A) (A) (A) (A) (A) (A) (A) (A)
                 (A) (A) (A) (A) (A) (A) (A) (A) (A) (A) (A) (A)
                 (A) (A) (A) (A) (A) (A) (A) (A) (A) (A) (A) (A)
                 (A) (A) (A) (A) (A) (A) (A) (A) (A) (A) (A) (A)
                 (A) (A)
       Virtual   (A) (A) (A) (A) (A) (A) (A) (A) (A) (A) (A) (A)
                 (A) (A) (A) (A) (A) (A) (A) (A) (A) (A) (A) (A)
                 (A) (A) (A) (A) (A) (A) (A) (A) (A) (A) (A) (A)
                 (A) (A) (A) (A) (A) (A) (A) (A) (A) (A) (A) (A)
                 (A) (A) (A) (A) (A) (A) (A) (A) (A) (A) (A) (A)
                 (A) (A) (A) (A) (A) (A) (A) (A) (A) (A) (A) (A)
                 (A) (A) (A) (A) (A) (A) (A) (A) (A) (A) (A) (A)
                 (A) (A) (A) (A) (A) (A) (A) (A) (A) (A) (A) (A)
                 (A) (A) (A) (A) (A) (A) (A) (A) (A) (A) (A) (A)
                 (A) (A) (A) (A) (A) (A) (A) (A) (A) (A) (A) (A)
                 (A) (A) (A) (A) (A) (A) (A) (A) (A) (A) (A) (A)
                 (A) (A) (A) (A) (A) (A) (A) (A) (A) (A) (A) (A)
                 (A) (A) (A) (A) (A) (A) (A) (A) (A) (A) (A) (A)
                 (A) (A) (A) (A) (A) (A) (A) (A) (A) (A) (A) (A)
                 (A) (A) (A) (A) (A) (A) (A) (A) (A) (A) (A) (A)
                 (A) (A) (A) (A) (A) (A) (A) (A) (A) (A) (A) (A)
                 (A) (A) (A) (A) (A) (A) (A) (A) (A) (A) (A) (A)
                 (A) (A) (A) (A) (A) (A) (A) (A) (A) (A) (A) (A)
                 (A) (A) (A) (A) (A) (A) (A) (A) (A) (A) (A) (A)
                 (A) (A) (A) (A) (A) (A) (A) (A) (A) (A) (A) (A)
                 (A) (A) (A) (A) (A) (A) (A) (A) (A) (A) (A) (A)
                 (A) (A) (A) (A) (A) (A) (A) (A) (A) (A) (A) (A)
                 (A) (A) (A) (A) (A) (A) (A) (A) (A) (A) (A) (A)
                 (A) (A) (A) (A) (A) (A) (A) (A) (A) (A) (A) (A)
                 (A) (A) (A) (A) (A) (A) (A) (A) (A) (A) (A) (A)
                 (A) (A) (A) (A) (A) (A) (A) (A) (A) (A) (A) (A)
                 (A) (A) (A) (A) (A) (A) (A) (A) (A) (A) (A) (A)
                 (A) (A) (A) (A) (A) (A) (A) (A) (A) (A) (A) (A)
                 (A) (A) (A) (A) (A) (A) (A) (A) (A) (A) (A) (A)
                 (A) (A) (A) (A) (A) (A) (A) (A) (A) (A) (A) (A)
                 (A) (A) (A) (A) (A) (A) (A) (A) (A) (A) (A) (A)
                 (A) (A) (A) (A) (A) (A) (A) (A) (A) (A) (A) (A)
                 (A) (A) (A) (A) (A) (A) (A) (A) (A) (A) (A) (A)
                 (A) (A) (A) (A) (A) (A) (A) (A) (A) (A) (A) (A)
                 (A) (A) (A) (A) (A) (A) (A) (A) (A) (A) (A) (A)
                 (A) (A) (A) (A) (A) (A) (A) (A) (A) (A) (A) (A)
                 (A) (A) (A) (A) (A) (A) (A) (A) (A) (A) (A) (A)
                 (A) (A) (A) (A) (A) (A) (A) (A) (A) (A) (A) (A)
                 (A) (A) (A) (A) (A) (A) (A) (A) (A) (A) (A) (A)
                 (A) (A) (A) (A) (A) (A) (A) (A) (A) (A) (A) (A)
                 (A) (A) (A) (A) (A) (A) (A) (A) (A) (A) (A) (A)
                 (A) (A) (A) (A) (A) (A) (A) (A) (A) (A) (A) (A)
                 (A) (A) (A) (A) (A) (A) (A) (A) (A) (A) (A) (A)
                 (A) (A) (A) (A) (A) (A) (A) (A) (A) (A) (A) (A)
                 (A) (A) (A) (A) (A) (A) (A) (A) (A) (A) (A) (A)
                 (A) (A) (A) (A) (A) (A) (A) (A) (A) (A) (A) (A)
                 (A) (A) (A) (A) (A) (A) (A) (A) (A) (A) (A) (A)
                 (A) (A) (A) (A) (A) (A) (A) (A) (A) (A) (A) (A)
                 (A) (A) (A) (A) (A) (A) (A) (A) (A) (A) (A) (A)
                 (A) (A) (A) (A) (A) (A) (A) (A) (A) (A) (A) (A)
                 (A) (A) (A) (A) (A) (A) (A) (A) (A) (A) (A) (A)
                 (A) (A) (A) (A) (A) (A) (A) (A) (A) (A) (A) (A)
                 (A) (A) (A) (A) (A) (A) (A) (A) (A) (A) (A) (A)
                 (A) (A) (A) (A) (A) (A) (A) (A) (A) (A) (A) (A)
                 (A) (A) (A) (A) (A) (A) (A) (A) (A) (A) (A) (A)
                 (A) (A) (A) (A) (A) (A) (A) (A) (A) (A) (A) (A)
                 (A) (A) (A) (A) (A) (A) (A) (A) (A) (A) (A) (A)
                 (A) (A) (A) (A) (A) (A) (A) (A) (A) (A) (A) (A)
                 (A) (A) (A) (A) (A) (A) (A) (A) (A) (A) (A) (A)
                 (A) (A) (A) (A) (A) (A) (A) (A) (A) (A) (A) (A)
                 (A) (A) (A) (A) (A) (A) (A) (A) (A) (A) (A) (A)
                 (A) (A) (A) (A) (A) (A) (A) (A) (A) (A) (A) (A)
                 (A) (A) (A) (A) (A) (A) (A) (A) (A) (A) (A) (A)
                 (A) (A) (A) (A) (A) (A) (A) (A) (A) (A) (A) (A)
                 (A) (A) (A) (A) (A) (A) (A) (A) (A) (A) (A) (A)
                 (A) (A) (A) (A) (A) (A) (A) (A) (A) (A) (A) (A)
                 (A) (A) (A) (A) (A) (A) (A) (A) (A) (A) (A) (A)
                 (A) (A) (A) (A) (A) (A) (A) (A) (A) (A) (A) (A)
                 (A) (A) (A) (A) (A) (A) (A) (A) (A) (A) (A) (A)
                 (A) (A) (A) (A) (A) (A) (A) (A) (A) (A) (A) (A)
                 (A) (A) (A) (A) (A) (A) (A) (A) (A) (A) (A) (A)
                 (A) (A) (A) (A) (A) (A) (A) (A) (A) (A) (A) (A)
                 (A) (A) (A) (A) (A) (A) (A) (A) (A) (A) (A) (A)
                 (A) (A) (A) (A) (A) (A) (A) (A) (A) (A) (A) (A)
                 (A) (A) (A) (A) (A) (A) (A) (A) (A) (A) (A) (A)
                 (A) (A) (A) (A) (A) (A) (A) (A) (A) (A) (A) (A)
                 (A) (A) (A) (A) (A) (A) (A) (A) (A) (A) (A) (A)
                 (A) (A) (A) (A) (A) (A) (A) (A) (A) (A) (A) (A)
                 (A) (A) (A) (A) (A) (A) (A) (A) (A) (A) (A) (A)
                 (A) (A) (A) (A) (A) (A) (A) (A) (A) (A) (A) (A)
                 (A) (A) (A) (A) (A) (A) (A) (A) (A) (A) (A) (A)
                 (A) (A) (A) (A) (A) (A) (A) (A) (A) (A) (A) (A)
                 (A) (A) (A) (A) (A) (A) (A) (A) (A) (A) (A) (A)
                 (A) (A) (A) (A) (A) (A) (A) (A) (A) (A) (A) (A)
                 (A) (A) (A) (A) (A) (A) (A) (A) (A) (A) (A) (A)
                 (A) (A) (A) (A) (A) (A) (A) (A) (A) (A) (A) (A)
                 (A) (A) (A) (A) (A) (A) (A) (A) (A) (A) (A) (A)
                 (A) (A) (A) (A) (A) (A) (A) (A) (A) (A) (A) (A)
                 (A) (A) (A) (A) (A) (A) (A) (A) (A) (A) (A) (A)
                 (A) (A) (A) (A) (A) (A) (A) (A) (A) (A) (A) (A)
                 (A) (A) (A) (A) (A) (A) (A) (A) (A) (A) (A) (A)
                 (A) (A) (A) (A) (A) (A) (A) (A) (A) (A) (A) (A)
                 (A) (A) (A) (A) (A) (A) (A) (A) (A) (A) (A) (A)
                 (A) (A) (A) (A) (A) (A) (A) (A) (A) (A) (A) (A)
                 (A) (A) (A) (A) (A) (A) (A) (A) (A) (A) (A) (A)
                 (A) (A) (A) (A) (A) (A) (A) (A) (A) (A) (A) (A)
                 (A) (A) (A) (A) (A) (A) (A) (A) (A) (A) (A) (A)
                 (A) (A) (A) (A) (A) (A) (A) (A) (A) (A) (A) (A)
                 (A) (A) (A) (A) (A) (A) (A) (A) (A) (A) (A) (A)
                 (A) (A) (A) (A) (A) (A) (A) (A) (A) (A) (A) (A)
                 (A) (A) (A) (A) (A) (A) (A) (A) (A) (A) (A) (A)
                 (A) (A) (A) (A) (A) (A) (A) (A) (A) (A) (A) (A)
                 (A) (A) (A) (A) (A) (A) (A) (A) (A) (A) (A) (A)
                 (A) (A) (A) (A) (A) (A) (A) (A) (A) (A) (A) (A)
                 (A) (A) (A) (A) (A) (A) (A) (A) (A) (A) (A) (A)
                 (A) (A) (A) (A) (A) (A) (A) (A) (A) (A) (A) (A)
                 (A) (A) (A) (A) (A) (A) (A) (A) (A) (A) (A) (A)
                 (A) (A) (A) (A) (A) (A) (A) (A) (A) (A) (A) (A)
                 (A) (A) (A) (A) (A) (A) (A) (A) (A) (A) (A) (A)
                 (A) (A) (A) (A) (A) (A) (A) (A) (A) (A) (A) (A)
                 (A) (A) (A) (A) (A) (A) (A) (A) (A) (A) (A) (A)
                 (A) (A) (A) (A) (A) (A) (A) (A) (A) (A) (A) (A)
                 (A) (A) (A) (A) (A) (A) (A) (A) (A) (A) (A) (A)
                 (A) (A) (A) (A) (A) (A) (A) (A) (A) (A) (A) (A)
                 (A) (A) (A) (A) (A) (A)
 The electronic state is 1-A.
 Alpha  occ. eigenvalues -- -256.17506 -30.02473 -25.86644 -25.86241 -25.86212
 Alpha  occ. eigenvalues --  -19.17070 -14.41602 -14.36310 -14.33236 -14.32998
 Alpha  occ. eigenvalues --  -14.32993 -14.32805 -10.25307 -10.23586 -10.21017
 Alpha  occ. eigenvalues --  -10.20881 -10.20691 -10.20663 -10.20660 -10.20644
 Alpha  occ. eigenvalues --  -10.20609 -10.20519 -10.20476 -10.20426 -10.19508
 Alpha  occ. eigenvalues --  -10.19427 -10.18859 -10.18781 -10.18664 -10.18571
 Alpha  occ. eigenvalues --  -10.18502 -10.18431 -10.18425 -10.18419 -10.18397
 Alpha  occ. eigenvalues --  -10.18330 -10.18315 -10.18287 -10.18251 -10.18251
 Alpha  occ. eigenvalues --  -10.18232 -10.18202 -10.18181 -10.18055 -10.18010
 Alpha  occ. eigenvalues --  -10.18003  -3.40056  -2.16697  -2.15909  -2.15851
 Alpha  occ. eigenvalues --   -1.05192  -1.04889  -0.96687  -0.95824  -0.95636
 Alpha  occ. eigenvalues --   -0.94762  -0.90791  -0.82051  -0.81705  -0.81394
 Alpha  occ. eigenvalues --   -0.80498  -0.80222  -0.80102  -0.79398  -0.79315
 Alpha  occ. eigenvalues --   -0.76582  -0.75541  -0.74131  -0.73754  -0.72966
 Alpha  occ. eigenvalues --   -0.71717  -0.70826  -0.69965  -0.68054  -0.67715
 Alpha  occ. eigenvalues --   -0.67638  -0.64446  -0.63966  -0.63863  -0.61170
 Alpha  occ. eigenvalues --   -0.60582  -0.60336  -0.59852  -0.57638  -0.56410
 Alpha  occ. eigenvalues --   -0.55805  -0.54249  -0.53453  -0.53165  -0.52418
 Alpha  occ. eigenvalues --   -0.50873  -0.50843  -0.50361  -0.48572  -0.47719
 Alpha  occ. eigenvalues --   -0.47650  -0.47411  -0.47104  -0.44821  -0.44668
 Alpha  occ. eigenvalues --   -0.44360  -0.44327  -0.43911  -0.43491  -0.43337
 Alpha  occ. eigenvalues --   -0.43107  -0.43048  -0.42891  -0.42790  -0.42463
 Alpha  occ. eigenvalues --   -0.42393  -0.42223  -0.41645  -0.41580  -0.41361
 Alpha  occ. eigenvalues --   -0.41153  -0.41106  -0.40041  -0.39992  -0.39851
 Alpha  occ. eigenvalues --   -0.39438  -0.39328  -0.39013  -0.38882  -0.38425
 Alpha  occ. eigenvalues --   -0.38188  -0.37632  -0.37286  -0.36954  -0.36806
 Alpha  occ. eigenvalues --   -0.36130  -0.35793  -0.35497  -0.35164  -0.34220
 Alpha  occ. eigenvalues --   -0.34084  -0.33762  -0.33502  -0.33262  -0.31914
 Alpha  occ. eigenvalues --   -0.31773  -0.30587  -0.29921  -0.29552  -0.28885
 Alpha  occ. eigenvalues --   -0.28545  -0.26562  -0.26480  -0.24228  -0.23636
 Alpha  occ. eigenvalues --   -0.23245  -0.22500  -0.21809  -0.19057  -0.18300
 Alpha  occ. eigenvalues --   -0.17820  -0.17665  -0.17562
 Alpha virt. eigenvalues --   -0.06320  -0.06274  -0.01765   0.00590   0.01278
 Alpha virt. eigenvalues --    0.01615   0.02396   0.03069   0.03752   0.04585
 Alpha virt. eigenvalues --    0.04795   0.05409   0.05529   0.05899   0.06009
 Alpha virt. eigenvalues --    0.06177   0.06598   0.07151   0.08107   0.08191
 Alpha virt. eigenvalues --    0.08436   0.09065   0.09336   0.09626   0.09834
 Alpha virt. eigenvalues --    0.10025   0.10267   0.10564   0.11256   0.11397
 Alpha virt. eigenvalues --    0.11563   0.11677   0.12000   0.12260   0.12456
 Alpha virt. eigenvalues --    0.12747   0.12847   0.13164   0.13297   0.13525
 Alpha virt. eigenvalues --    0.14214   0.14425   0.14541   0.14600   0.14933
 Alpha virt. eigenvalues --    0.15016   0.15062   0.15629   0.15721   0.15862
 Alpha virt. eigenvalues --    0.15950   0.16130   0.16250   0.16326   0.16760
 Alpha virt. eigenvalues --    0.17068   0.17241   0.17489   0.17869   0.18052
 Alpha virt. eigenvalues --    0.18251   0.18695   0.19269   0.19532   0.19831
 Alpha virt. eigenvalues --    0.20104   0.20314   0.20442   0.20783   0.21106
 Alpha virt. eigenvalues --    0.21228   0.21457   0.21565   0.21979   0.22427
 Alpha virt. eigenvalues --    0.22747   0.22833   0.23130   0.23378   0.23938
 Alpha virt. eigenvalues --    0.24061   0.24587   0.25096   0.25385   0.25591
 Alpha virt. eigenvalues --    0.25762   0.25881   0.26298   0.26496   0.26891
 Alpha virt. eigenvalues --    0.27099   0.27416   0.27617   0.27791   0.27978
 Alpha virt. eigenvalues --    0.28205   0.28745   0.29001   0.29455   0.29779
 Alpha virt. eigenvalues --    0.29875   0.30067   0.30323   0.30415   0.30751
 Alpha virt. eigenvalues --    0.31124   0.31394   0.31486   0.31963   0.32138
 Alpha virt. eigenvalues --    0.32425   0.32637   0.33149   0.33501   0.33534
 Alpha virt. eigenvalues --    0.34023   0.34286   0.34516   0.34714   0.34837
 Alpha virt. eigenvalues --    0.34984   0.35320   0.35611   0.35973   0.36378
 Alpha virt. eigenvalues --    0.36794   0.36925   0.37363   0.37525   0.37718
 Alpha virt. eigenvalues --    0.38157   0.38249   0.38597   0.38825   0.39002
 Alpha virt. eigenvalues --    0.39133   0.39394   0.39438   0.39996   0.40214
 Alpha virt. eigenvalues --    0.40386   0.40690   0.40859   0.41090   0.41262
 Alpha virt. eigenvalues --    0.41600   0.41798   0.41835   0.41990   0.42308
 Alpha virt. eigenvalues --    0.42511   0.42649   0.42920   0.43225   0.43383
 Alpha virt. eigenvalues --    0.43603   0.43846   0.44100   0.44238   0.44539
 Alpha virt. eigenvalues --    0.44821   0.44990   0.45152   0.45281   0.45676
 Alpha virt. eigenvalues --    0.45893   0.46270   0.46421   0.46482   0.46574
 Alpha virt. eigenvalues --    0.47064   0.47272   0.47410   0.47608   0.47909
 Alpha virt. eigenvalues --    0.48110   0.48277   0.48457   0.48537   0.48799
 Alpha virt. eigenvalues --    0.49180   0.49357   0.49426   0.49613   0.49773
 Alpha virt. eigenvalues --    0.49922   0.50279   0.50512   0.50689   0.51273
 Alpha virt. eigenvalues --    0.51287   0.51650   0.51882   0.51938   0.52279
 Alpha virt. eigenvalues --    0.52648   0.52750   0.52966   0.53104   0.53220
 Alpha virt. eigenvalues --    0.53516   0.53905   0.54350   0.54371   0.54741
 Alpha virt. eigenvalues --    0.54969   0.55106   0.55294   0.55778   0.56054
 Alpha virt. eigenvalues --    0.56291   0.56704   0.56938   0.57026   0.57288
 Alpha virt. eigenvalues --    0.57593   0.58020   0.58168   0.58397   0.58897
 Alpha virt. eigenvalues --    0.59005   0.59463   0.59771   0.60162   0.60389
 Alpha virt. eigenvalues --    0.60575   0.60958   0.61115   0.61420   0.61636
 Alpha virt. eigenvalues --    0.62095   0.62392   0.62768   0.63096   0.63117
 Alpha virt. eigenvalues --    0.63694   0.64000   0.64420   0.64602   0.64792
 Alpha virt. eigenvalues --    0.65171   0.65315   0.65562   0.66108   0.66202
 Alpha virt. eigenvalues --    0.66359   0.66777   0.66985   0.67270   0.67488
 Alpha virt. eigenvalues --    0.67927   0.68068   0.68358   0.68928   0.69057
 Alpha virt. eigenvalues --    0.69579   0.70160   0.70535   0.71155   0.71616
 Alpha virt. eigenvalues --    0.71963   0.72341   0.72522   0.72594   0.72952
 Alpha virt. eigenvalues --    0.73325   0.73597   0.74009   0.74314   0.74503
 Alpha virt. eigenvalues --    0.74780   0.75033   0.75448   0.75762   0.76101
 Alpha virt. eigenvalues --    0.76419   0.76534   0.77033   0.77139   0.77304
 Alpha virt. eigenvalues --    0.78160   0.78574   0.78837   0.79389   0.79422
 Alpha virt. eigenvalues --    0.79582   0.79735   0.80274   0.80398   0.80839
 Alpha virt. eigenvalues --    0.81083   0.81469   0.81719   0.82027   0.82422
 Alpha virt. eigenvalues --    0.83040   0.83450   0.84224   0.84505   0.84778
 Alpha virt. eigenvalues --    0.85361   0.85842   0.86006   0.86273   0.86934
 Alpha virt. eigenvalues --    0.87095   0.87845   0.88017   0.88223   0.88976
 Alpha virt. eigenvalues --    0.89328   0.89580   0.90067   0.90327   0.90560
 Alpha virt. eigenvalues --    0.91049   0.91391   0.91789   0.92016   0.92880
 Alpha virt. eigenvalues --    0.92978   0.93311   0.93531   0.93740   0.93751
 Alpha virt. eigenvalues --    0.94590   0.94879   0.95433   0.95741   0.96033
 Alpha virt. eigenvalues --    0.96333   0.96850   0.97163   0.97680   0.98246
 Alpha virt. eigenvalues --    0.98302   0.98552   0.99091   0.99262   0.99552
 Alpha virt. eigenvalues --    0.99823   1.00942   1.01018   1.01544   1.01658
 Alpha virt. eigenvalues --    1.01956   1.02171   1.02592   1.02736   1.02932
 Alpha virt. eigenvalues --    1.03255   1.03566   1.03952   1.04175   1.04316
 Alpha virt. eigenvalues --    1.04394   1.04864   1.05065   1.05307   1.05715
 Alpha virt. eigenvalues --    1.06323   1.06408   1.06716   1.07556   1.08301
 Alpha virt. eigenvalues --    1.08990   1.09126   1.09168   1.09707   1.09892
 Alpha virt. eigenvalues --    1.10196   1.10669   1.11125   1.11639   1.12132
 Alpha virt. eigenvalues --    1.12303   1.13112   1.13414   1.13968   1.14280
 Alpha virt. eigenvalues --    1.14741   1.15544   1.16357   1.16571   1.17052
 Alpha virt. eigenvalues --    1.17319   1.17600   1.17963   1.18234   1.18512
 Alpha virt. eigenvalues --    1.19119   1.19326   1.19625   1.20562   1.20856
 Alpha virt. eigenvalues --    1.20949   1.21423   1.21627   1.21976   1.22091
 Alpha virt. eigenvalues --    1.22643   1.23398   1.23502   1.24315   1.24377
 Alpha virt. eigenvalues --    1.25358   1.25641   1.26415   1.26899   1.27080
 Alpha virt. eigenvalues --    1.27426   1.27882   1.28131   1.28960   1.29210
 Alpha virt. eigenvalues --    1.29302   1.29590   1.29828   1.30060   1.30367
 Alpha virt. eigenvalues --    1.30967   1.31536   1.32040   1.32187   1.32565
 Alpha virt. eigenvalues --    1.33021   1.33174   1.33212   1.34182   1.34856
 Alpha virt. eigenvalues --    1.35903   1.36161   1.37193   1.37490   1.37583
 Alpha virt. eigenvalues --    1.38306   1.38903   1.39734   1.39811   1.40389
 Alpha virt. eigenvalues --    1.40952   1.41226   1.41725   1.41999   1.42861
 Alpha virt. eigenvalues --    1.43376   1.44362   1.44909   1.45407   1.45868
 Alpha virt. eigenvalues --    1.46397   1.46910   1.47199   1.47706   1.48083
 Alpha virt. eigenvalues --    1.48146   1.48726   1.48949   1.49142   1.49556
 Alpha virt. eigenvalues --    1.49781   1.50113   1.50320   1.50645   1.50960
 Alpha virt. eigenvalues --    1.51546   1.51674   1.51705   1.51814   1.52473
 Alpha virt. eigenvalues --    1.52693   1.52812   1.53172   1.53369   1.53725
 Alpha virt. eigenvalues --    1.54198   1.54387   1.54443   1.54822   1.54947
 Alpha virt. eigenvalues --    1.55222   1.55457   1.55546   1.55810   1.56163
 Alpha virt. eigenvalues --    1.56397   1.56600   1.56966   1.57191   1.57387
 Alpha virt. eigenvalues --    1.57994   1.58251   1.58365   1.58649   1.59110
 Alpha virt. eigenvalues --    1.59224   1.59508   1.59879   1.60010   1.60228
 Alpha virt. eigenvalues --    1.60629   1.61061   1.61721   1.61799   1.62053
 Alpha virt. eigenvalues --    1.62564   1.62874   1.63043   1.63311   1.63874
 Alpha virt. eigenvalues --    1.63932   1.64241   1.64819   1.64968   1.65043
 Alpha virt. eigenvalues --    1.65565   1.65709   1.66000   1.66154   1.66356
 Alpha virt. eigenvalues --    1.66660   1.67130   1.67846   1.68082   1.68487
 Alpha virt. eigenvalues --    1.68901   1.69163   1.69596   1.69904   1.70539
 Alpha virt. eigenvalues --    1.70859   1.70909   1.70996   1.71303   1.71868
 Alpha virt. eigenvalues --    1.72291   1.72800   1.73542   1.73618   1.73935
 Alpha virt. eigenvalues --    1.74749   1.75065   1.75486   1.76360   1.76568
 Alpha virt. eigenvalues --    1.76978   1.77667   1.78174   1.79120   1.79634
 Alpha virt. eigenvalues --    1.80336   1.80491   1.81055   1.81260   1.82470
 Alpha virt. eigenvalues --    1.82784   1.83665   1.84137   1.84456   1.84768
 Alpha virt. eigenvalues --    1.84836   1.85279   1.85690   1.86093   1.86346
 Alpha virt. eigenvalues --    1.86650   1.87605   1.87929   1.87967   1.88180
 Alpha virt. eigenvalues --    1.88603   1.89075   1.89366   1.89538   1.90049
 Alpha virt. eigenvalues --    1.90313   1.91932   1.91980   1.92874   1.93095
 Alpha virt. eigenvalues --    1.93826   1.94302   1.94709   1.95081   1.95351
 Alpha virt. eigenvalues --    1.96138   1.96692   1.97011   1.97561   1.98583
 Alpha virt. eigenvalues --    1.98854   1.98905   1.99323   1.99549   1.99854
 Alpha virt. eigenvalues --    2.00084   2.00753   2.01142   2.01580   2.01789
 Alpha virt. eigenvalues --    2.03039   2.03093   2.03396   2.04267   2.04881
 Alpha virt. eigenvalues --    2.05046   2.05622   2.06391   2.07027   2.07356
 Alpha virt. eigenvalues --    2.07894   2.08699   2.08742   2.08991   2.09120
 Alpha virt. eigenvalues --    2.09725   2.10066   2.10614   2.10962   2.11329
 Alpha virt. eigenvalues --    2.11817   2.12618   2.12780   2.13638   2.14200
 Alpha virt. eigenvalues --    2.14253   2.14461   2.15016   2.15210   2.16074
 Alpha virt. eigenvalues --    2.16379   2.16835   2.17148   2.18300   2.18503
 Alpha virt. eigenvalues --    2.19037   2.19678   2.19782   2.20169   2.20302
 Alpha virt. eigenvalues --    2.20791   2.21451   2.21847   2.22337   2.22876
 Alpha virt. eigenvalues --    2.23007   2.24063   2.24839   2.25285   2.25674
 Alpha virt. eigenvalues --    2.26370   2.26728   2.27239   2.27543   2.27884
 Alpha virt. eigenvalues --    2.28131   2.28329   2.28748   2.29015   2.29385
 Alpha virt. eigenvalues --    2.30408   2.30768   2.31406   2.31895   2.32084
 Alpha virt. eigenvalues --    2.32274   2.33040   2.33454   2.33698   2.33891
 Alpha virt. eigenvalues --    2.34717   2.35423   2.35589   2.35923   2.36191
 Alpha virt. eigenvalues --    2.36719   2.37068   2.37415   2.37701   2.38059
 Alpha virt. eigenvalues --    2.38683   2.39186   2.39686   2.39874   2.40314
 Alpha virt. eigenvalues --    2.40895   2.41390   2.41760   2.42120   2.42685
 Alpha virt. eigenvalues --    2.42860   2.43726   2.44027   2.44836   2.45217
 Alpha virt. eigenvalues --    2.45387   2.45871   2.46293   2.46875   2.47070
 Alpha virt. eigenvalues --    2.47397   2.47690   2.48226   2.48416   2.48624
 Alpha virt. eigenvalues --    2.49823   2.49951   2.50536   2.50724   2.51689
 Alpha virt. eigenvalues --    2.51977   2.52305   2.52743   2.52932   2.53278
 Alpha virt. eigenvalues --    2.53820   2.54288   2.54659   2.54834   2.55903
 Alpha virt. eigenvalues --    2.56218   2.56435   2.56589   2.56803   2.57163
 Alpha virt. eigenvalues --    2.57388   2.57698   2.57894   2.58618   2.59455
 Alpha virt. eigenvalues --    2.59795   2.60084   2.60477   2.60679   2.61157
 Alpha virt. eigenvalues --    2.61290   2.61745   2.62258   2.62615   2.62762
 Alpha virt. eigenvalues --    2.63285   2.63637   2.64333   2.65090   2.65262
 Alpha virt. eigenvalues --    2.65653   2.66375   2.66557   2.66837   2.67217
 Alpha virt. eigenvalues --    2.67536   2.67807   2.68306   2.68846   2.69373
 Alpha virt. eigenvalues --    2.69748   2.69816   2.70211   2.70762   2.71117
 Alpha virt. eigenvalues --    2.71353   2.71683   2.72131   2.72788   2.73192
 Alpha virt. eigenvalues --    2.73497   2.74476   2.74885   2.75051   2.75665
 Alpha virt. eigenvalues --    2.75785   2.76904   2.76966   2.77512   2.77663
 Alpha virt. eigenvalues --    2.77915   2.78407   2.78867   2.79019   2.79728
 Alpha virt. eigenvalues --    2.80188   2.80650   2.80862   2.81221   2.82337
 Alpha virt. eigenvalues --    2.82549   2.82623   2.83341   2.83519   2.83934
 Alpha virt. eigenvalues --    2.84183   2.84460   2.85285   2.85573   2.85929
 Alpha virt. eigenvalues --    2.86493   2.86990   2.87355   2.87895   2.88273
 Alpha virt. eigenvalues --    2.88351   2.88508   2.89598   2.89884   2.89973
 Alpha virt. eigenvalues --    2.90233   2.90700   2.91056   2.91372   2.91790
 Alpha virt. eigenvalues --    2.92220   2.92834   2.93114   2.93878   2.94381
 Alpha virt. eigenvalues --    2.94468   2.94668   2.94848   2.95235   2.95716
 Alpha virt. eigenvalues --    2.95806   2.96371   2.96624   2.96748   2.97173
 Alpha virt. eigenvalues --    2.97424   2.97912   2.98154   2.98629   2.98951
 Alpha virt. eigenvalues --    2.99590   2.99799   3.00091   3.00440   3.00899
 Alpha virt. eigenvalues --    3.01119   3.01311   3.02084   3.02332   3.02676
 Alpha virt. eigenvalues --    3.03228   3.03806   3.04045   3.04661   3.04817
 Alpha virt. eigenvalues --    3.05287   3.06014   3.06309   3.06684   3.07011
 Alpha virt. eigenvalues --    3.07419   3.07534   3.07889   3.08122   3.08509
 Alpha virt. eigenvalues --    3.08704   3.09079   3.09277   3.09687   3.10174
 Alpha virt. eigenvalues --    3.10464   3.10830   3.11478   3.11647   3.11696
 Alpha virt. eigenvalues --    3.12433   3.12716   3.12804   3.13106   3.13501
 Alpha virt. eigenvalues --    3.14202   3.14395   3.14502   3.14661   3.15247
 Alpha virt. eigenvalues --    3.15619   3.16168   3.16563   3.17064   3.17312
 Alpha virt. eigenvalues --    3.17525   3.17973   3.18433   3.18699   3.18811
 Alpha virt. eigenvalues --    3.19258   3.19779   3.19933   3.20254   3.20717
 Alpha virt. eigenvalues --    3.20905   3.21417   3.21897   3.22036   3.22332
 Alpha virt. eigenvalues --    3.22453   3.22809   3.23291   3.23438   3.23992
 Alpha virt. eigenvalues --    3.24349   3.24483   3.24677   3.25126   3.25209
 Alpha virt. eigenvalues --    3.25870   3.25978   3.26266   3.26426   3.26628
 Alpha virt. eigenvalues --    3.27001   3.27122   3.27691   3.28041   3.28289
 Alpha virt. eigenvalues --    3.28409   3.28791   3.29258   3.29456   3.29953
 Alpha virt. eigenvalues --    3.30109   3.30156   3.30384   3.30522   3.30672
 Alpha virt. eigenvalues --    3.31026   3.31200   3.31739   3.31774   3.31799
 Alpha virt. eigenvalues --    3.32376   3.32690   3.33332   3.33621   3.33715
 Alpha virt. eigenvalues --    3.33941   3.34444   3.34929   3.35259   3.35377
 Alpha virt. eigenvalues --    3.35636   3.35830   3.36253   3.36386   3.36897
 Alpha virt. eigenvalues --    3.36988   3.37401   3.37680   3.38020   3.38203
 Alpha virt. eigenvalues --    3.38345   3.38616   3.38816   3.39360   3.39601
 Alpha virt. eigenvalues --    3.39836   3.40362   3.40575   3.40695   3.41056
 Alpha virt. eigenvalues --    3.41279   3.41435   3.41914   3.42495   3.43044
 Alpha virt. eigenvalues --    3.43315   3.43743   3.44000   3.44954   3.45682
 Alpha virt. eigenvalues --    3.45848   3.46214   3.46347   3.46724   3.46984
 Alpha virt. eigenvalues --    3.47562   3.47760   3.48243   3.48568   3.49246
 Alpha virt. eigenvalues --    3.49628   3.50134   3.50512   3.51231   3.51530
 Alpha virt. eigenvalues --    3.52554   3.53070   3.53557   3.54088   3.54286
 Alpha virt. eigenvalues --    3.54598   3.54936   3.55375   3.55586   3.56277
 Alpha virt. eigenvalues --    3.56509   3.57083   3.57707   3.58013   3.58577
 Alpha virt. eigenvalues --    3.58824   3.59174   3.59413   3.59776   3.60403
 Alpha virt. eigenvalues --    3.60913   3.61790   3.62157   3.62696   3.63407
 Alpha virt. eigenvalues --    3.63562   3.63924   3.64353   3.65235   3.65907
 Alpha virt. eigenvalues --    3.66486   3.66643   3.67295   3.67636   3.68622
 Alpha virt. eigenvalues --    3.68837   3.68973   3.69412   3.69679   3.69939
 Alpha virt. eigenvalues --    3.70916   3.71230   3.71411   3.71506   3.72012
 Alpha virt. eigenvalues --    3.72356   3.72678   3.73439   3.73984   3.74649
 Alpha virt. eigenvalues --    3.75063   3.75378   3.75475   3.75600   3.76036
 Alpha virt. eigenvalues --    3.76188   3.77186   3.77229   3.77978   3.78604
 Alpha virt. eigenvalues --    3.79544   3.79955   3.80268   3.81021   3.81628
 Alpha virt. eigenvalues --    3.81886   3.83078   3.83285   3.83836   3.84332
 Alpha virt. eigenvalues --    3.84552   3.85555   3.85920   3.86624   3.87030
 Alpha virt. eigenvalues --    3.87957   3.88349   3.89292   3.89847   3.90613
 Alpha virt. eigenvalues --    3.90722   3.90902   3.91352   3.92032   3.92237
 Alpha virt. eigenvalues --    3.92739   3.93858   3.94518   3.94676   3.95314
 Alpha virt. eigenvalues --    3.96758   3.97136   3.98347   3.98742   3.99489
 Alpha virt. eigenvalues --    3.99892   4.00327   4.00638   4.01187   4.01407
 Alpha virt. eigenvalues --    4.02087   4.02572   4.03349   4.03998   4.04148
 Alpha virt. eigenvalues --    4.05091   4.05627   4.05985   4.06561   4.07017
 Alpha virt. eigenvalues --    4.07394   4.08716   4.09295   4.10059   4.10764
 Alpha virt. eigenvalues --    4.11481   4.11813   4.13244   4.14039   4.14423
 Alpha virt. eigenvalues --    4.14793   4.15404   4.16592   4.17355   4.17758
 Alpha virt. eigenvalues --    4.18030   4.18697   4.19024   4.19257   4.19638
 Alpha virt. eigenvalues --    4.19895   4.20326   4.20680   4.20968   4.21969
 Alpha virt. eigenvalues --    4.22274   4.23229   4.23781   4.24386   4.25203
 Alpha virt. eigenvalues --    4.25347   4.26742   4.26980   4.27806   4.28041
 Alpha virt. eigenvalues --    4.28911   4.29672   4.29937   4.30420   4.30931
 Alpha virt. eigenvalues --    4.31593   4.32225   4.33066   4.33627   4.34463
 Alpha virt. eigenvalues --    4.34757   4.35023   4.35368   4.35606   4.36790
 Alpha virt. eigenvalues --    4.37164   4.38701   4.38948   4.39218   4.40664
 Alpha virt. eigenvalues --    4.41036   4.41229   4.41695   4.41967   4.42036
 Alpha virt. eigenvalues --    4.42536   4.43564   4.44781   4.44869   4.45237
 Alpha virt. eigenvalues --    4.45446   4.45674   4.46334   4.46892   4.47653
 Alpha virt. eigenvalues --    4.48087   4.48807   4.49041   4.50328   4.50478
 Alpha virt. eigenvalues --    4.50849   4.51929   4.52403   4.53503   4.54520
 Alpha virt. eigenvalues --    4.55057   4.55891   4.56402   4.57185   4.57888
 Alpha virt. eigenvalues --    4.58564   4.59427   4.60075   4.62114   4.64027
 Alpha virt. eigenvalues --    4.64398   4.65800   4.66542   4.67535   4.68823
 Alpha virt. eigenvalues --    4.68993   4.69987   4.70076   4.70618   4.72013
 Alpha virt. eigenvalues --    4.72246   4.73057   4.73963   4.74211   4.74766
 Alpha virt. eigenvalues --    4.75464   4.76155   4.76463   4.78027   4.80208
 Alpha virt. eigenvalues --    4.81172   4.81870   4.83289   4.83635   4.84203
 Alpha virt. eigenvalues --    4.84280   4.84560   4.85481   4.85634   4.86360
 Alpha virt. eigenvalues --    4.87051   4.87682   4.88345   4.89261   4.90036
 Alpha virt. eigenvalues --    4.90715   4.92570   4.93369   4.94273   4.94929
 Alpha virt. eigenvalues --    4.95574   4.95924   4.96211   4.96677   4.97837
 Alpha virt. eigenvalues --    4.98950   5.00239   5.00952   5.02554   5.02889
 Alpha virt. eigenvalues --    5.03458   5.03957   5.04723   5.06168   5.07052
 Alpha virt. eigenvalues --    5.07240   5.08319   5.08623   5.09733   5.10546
 Alpha virt. eigenvalues --    5.10888   5.11381   5.14414   5.15241   5.17013
 Alpha virt. eigenvalues --    5.18986   5.19660   5.19775   5.21262   5.22007
 Alpha virt. eigenvalues --    5.22156   5.23239   5.23644   5.25136   5.26747
 Alpha virt. eigenvalues --    5.27180   5.28792   5.29991   5.30627   5.31110
 Alpha virt. eigenvalues --    5.33699   5.36675   5.36791   5.37548   5.38716
 Alpha virt. eigenvalues --    5.39308   5.39817   5.40128   5.40919   5.41574
 Alpha virt. eigenvalues --    5.42126   5.42656   5.43895   5.45273   5.47638
 Alpha virt. eigenvalues --    5.49435   5.50562   5.50987   5.51941   5.52470
 Alpha virt. eigenvalues --    5.53332   5.53358   5.57245   5.57697   5.60461
 Alpha virt. eigenvalues --    5.62185   5.63246   5.63388   5.64240   5.64870
 Alpha virt. eigenvalues --    5.65907   5.67002   5.68132   5.68595   5.69890
 Alpha virt. eigenvalues --    5.71667   5.74935   5.77599   5.78471   5.79096
 Alpha virt. eigenvalues --    5.81752   5.83119   5.91231   5.93242   5.94551
 Alpha virt. eigenvalues --    5.95063   5.98200   6.02725   6.03433   6.04233
 Alpha virt. eigenvalues --    6.09195   6.13361   6.13749   6.14851   6.15073
 Alpha virt. eigenvalues --    6.18417   6.19759   6.24816   6.28856   6.35512
 Alpha virt. eigenvalues --    6.36182   6.42455   6.48428   6.51794   6.54545
 Alpha virt. eigenvalues --    6.68282   6.97335   7.28463  22.36570  22.37054
 Alpha virt. eigenvalues --   22.44186  22.46358  22.47149  22.52942  22.53490
 Alpha virt. eigenvalues --   22.62663  22.63230  22.78526  22.86356  22.87725
 Alpha virt. eigenvalues --   22.92230  22.95267  22.95893  22.96851  22.99065
 Alpha virt. eigenvalues --   23.04937  23.05458  23.09396  23.16625  23.28217
 Alpha virt. eigenvalues --   23.28893  23.31579  23.32968  23.42516  23.43032
 Alpha virt. eigenvalues --   23.51746  23.52233  23.56643  23.75371  23.80414
 Alpha virt. eigenvalues --   23.81524  23.90831  32.41070  32.75628  32.92099
 Alpha virt. eigenvalues --   32.98047  33.03927  33.13486  44.07226
          Condensed to atoms (all electrons):
 Mulliken charges:
               1
     1  Fe  -0.264695
     2  N   -0.035373
     3  N   -0.011867
     4  N   -0.071081
     5  N    0.013772
     6  C    0.247425
     7  C   -0.046277
     8  C   -0.043093
     9  C    0.234969
    10  C    0.285216
    11  C   -0.060115
    12  C    0.040282
    13  C    0.212257
    14  C    0.209785
    15  C   -0.036594
    16  C    0.039260
    17  C    0.263296
    18  C    0.216796
    19  C   -0.046385
    20  C   -0.052818
    21  C    0.239335
    22  C   -0.443723
    23  H    0.136985
    24  C   -0.534044
    25  H    0.124378
    26  C   -0.424201
    27  H    0.112514
    28  C   -0.516818
    29  H    0.109379
    30  C   -0.414838
    31  H    0.129957
    32  H    0.120148
    33  H    0.136223
    34  C   -0.414715
    35  H    0.134502
    36  H    0.134423
    37  H    0.118764
    38  C   -0.452106
    39  H    0.122455
    40  H    0.143540
    41  H    0.155838
    42  C   -0.210716
    43  H    0.110131
    44  C   -0.287124
    45  H    0.138464
    46  H    0.121135
    47  C   -0.448042
    48  H    0.127858
    49  H    0.141891
    50  H    0.156089
    51  C   -0.208931
    52  H    0.108231
    53  C   -0.286665
    54  H    0.138382
    55  H    0.121308
    56  C   -0.413911
    57  H    0.132468
    58  H    0.136990
    59  H    0.119594
    60  C   -0.412212
    61  H    0.132216
    62  H    0.119388
    63  H    0.135957
    64  O   -0.579423
    65  H    0.360548
    66  H    0.324750
    67  C   -0.392806
    68  H    0.134633
    69  H    0.135083
    70  H    0.146120
    71  N   -0.233686
    72  H    0.234808
    73  C    0.179393
    74  C    0.008980
    75  H    0.178954
    76  N    0.078994
    77  C   -0.226296
    78  H    0.164689
 Sum of Mulliken charges =  -0.00000
 Mulliken charges with hydrogens summed into heavy atoms:
               1
     1  Fe  -0.264695
     2  N   -0.035373
     3  N   -0.011867
     4  N   -0.071081
     5  N    0.013772
     6  C    0.247425
     7  C   -0.046277
     8  C   -0.043093
     9  C    0.234969
    10  C    0.285216
    11  C   -0.060115
    12  C    0.040282
    13  C    0.212257
    14  C    0.209785
    15  C   -0.036594
    16  C    0.039260
    17  C    0.263296
    18  C    0.216796
    19  C   -0.046385
    20  C   -0.052818
    21  C    0.239335
    22  C   -0.306738
    24  C   -0.409666
    26  C   -0.311687
    28  C   -0.407439
    30  C   -0.028511
    34  C   -0.027025
    38  C   -0.030273
    42  C   -0.100584
    44  C   -0.027525
    47  C   -0.022204
    51  C   -0.100700
    53  C   -0.026975
    56  C   -0.024859
    60  C   -0.024650
    64  O    0.105875
    67  C    0.023030
    71  N    0.001122
    73  C    0.179393
    74  C    0.187934
    76  N    0.078994
    77  C   -0.061607
 Electronic spatial extent (au):  <R**2>=          20035.9579
 Charge=             -0.0000 electrons
 Dipole moment (field-independent basis, Debye):
    X=             -0.8453    Y=             -1.6755    Z=              3.2510  Tot=              3.7538
 Quadrupole moment (field-independent basis, Debye-Ang):
   XX=           -241.0021   YY=           -245.5826   ZZ=           -222.7934
   XY=              2.3570   XZ=             -3.2469   YZ=             -2.2562
 Traceless Quadrupole moment (field-independent basis, Debye-Ang):
   XX=             -4.5427   YY=             -9.1233   ZZ=             13.6659
   XY=              2.3570   XZ=             -3.2469   YZ=             -2.2562
 Octapole moment (field-independent basis, Debye-Ang**2):
  XXX=             -5.5182  YYY=            -33.1010  ZZZ=             93.5567  XYY=              0.8237
  XXY=            -35.3131  XXZ=              7.4476  XZZ=            -22.6465  YZZ=            -23.4480
  YYZ=            -18.9020  XYZ=              1.4769
 Hexadecapole moment (field-independent basis, Debye-Ang**3):
 XXXX=         -11925.3276 YYYY=         -11674.1110 ZZZZ=          -2763.3796 XXXY=             11.7243
 XXXZ=             58.2163 YYYX=             -7.4927 YYYZ=             23.7688 ZZZX=            -75.1878
 ZZZY=            -58.2141 XXYY=          -4018.7893 XXZZ=          -2632.1949 YYZZ=          -2650.8760
 XXYZ=            -46.9058 YYXZ=            -36.8512 ZZXY=             33.2387
 N-N= 5.964695576433D+03 E-N=-1.894369600638D+04  KE= 2.973865430756D+03
  Exact polarizability:     711.775       0.876     701.718      -3.226      -1.479     313.128
 Approx polarizability:    1323.739       7.410    1290.573      -8.082      16.130     497.113

 ----------------------------------------------------------------------

 Electric dipole moment (input orientation):
 (Debye = 10**-18 statcoulomb cm , SI units = C m)
                  (au)            (Debye)         (10**-30 SI)
   Tot        0.147686D+01      0.375381D+01      0.125214D+02
   x          0.218714D+00      0.555916D+00      0.185434D+01
   y         -0.117545D+01     -0.298769D+01     -0.996585D+01
   z         -0.866958D+00     -0.220359D+01     -0.735038D+01

 Dipole polarizability, Alpha (input orientation).
 (esu units = cm**3 , SI units = C**2 m**2 J**-1)
 Alpha(0;0):
               (au)            (10**-24 esu)      (10**-40 SI)
   iso        0.575540D+03      0.852863D+02      0.948938D+02
   aniso      0.393766D+03      0.583501D+02      0.649232D+02
   xx         0.651291D+03      0.965114D+02      0.107383D+03
   yx        -0.102509D+03     -0.151902D+02     -0.169014D+02
   yy         0.499294D+03      0.739878D+02      0.823225D+02
   zx        -0.882925D+02     -0.130836D+02     -0.145575D+02
   zy        -0.166145D+03     -0.246202D+02     -0.273936D+02
   zz         0.576035D+03      0.853596D+02      0.949754D+02

 First dipole hyperpolarizability, Beta (input orientation).
 ||, _|_  parallel and perpendicular components, (z) with respect to z axis,
 vector components x,y,z.  Values do not include the 1/n! factor of 1/2.
 (esu units = statvolt**-1 cm**4 , SI units = C**3 m**3 J**-2)
 Beta(0;0,0):
               (au)            (10**-30 esu)      (10**-50 SI)
   || (z)    -0.259797D+03     -0.224444D+01     -0.833003D+00
   _|_(z)    -0.865990D+02     -0.748148D+00     -0.277668D+00
   x         -0.430249D+04     -0.371702D+02     -0.137953D+02
   y          0.329702D+04      0.284837D+02      0.105714D+02
   z         -0.129899D+04     -0.112222D+02     -0.416502D+01
   ||         0.111479D+04      0.963095D+01      0.357443D+01
   xxx       -0.717112D+03     -0.619529D+01     -0.229932D+01
   xxy        0.933734D+02      0.806674D+00      0.299389D+00
   yxy       -0.159784D+03     -0.138041D+01     -0.512326D+00
   yyy        0.442919D+03      0.382648D+01      0.142016D+01
   xxz        0.611183D+03      0.528014D+01      0.195967D+01
   yxz       -0.611912D+02     -0.528645D+00     -0.196201D+00
   yyz       -0.661078D+03     -0.571120D+01     -0.211966D+01
   zxz       -0.557267D+03     -0.481435D+01     -0.178680D+01
   zyz        0.562713D+03      0.486141D+01      0.180426D+01
   zzz       -0.383100D+03     -0.330968D+01     -0.122836D+01

 ----------------------------------------------------------------------

 Dipole orientation:
    26         69.09726410          6.03950789         -7.66232337
     7         72.44586237          5.22585596         -6.12289639
     7         68.40142185          2.31871840         -8.07074259
     7         65.80419367          6.80621382         -9.41267518
     7         69.84781863          9.71630275         -7.43045165
     6         74.15974177          6.91117990         -5.21956963
     6         76.28451941          5.61814341         -4.08501689
     6         75.80498934          3.10416183         -4.31453870
     6         73.38412272          2.89912276         -5.56809751
     6         69.87911588          0.37707073         -7.25687112
     6         68.74230860         -2.02611383         -7.84390486
     6         66.48632076         -1.49815325         -8.99619987
     6         66.31437499          1.23593031         -9.09962232
     6         64.12625716          5.11581900        -10.38746556
     6         62.12709110          6.38911127        -11.72122519
     6         62.64985729          8.92190615        -11.56981284
     6         64.94708240          9.12959380        -10.09256784
     6         68.38278691         11.65270233         -8.26509441
     6         69.58163930         14.05954325         -7.76283541
     6         71.85461339         13.51965153         -6.69504896
     6         71.96195093         10.79719989         -6.45520703
     6         73.95224038          9.51206028         -5.35934314
     1         75.48562867         10.62094426         -4.59796973
     6         72.19576344          0.63070257         -6.06631255
     1         73.17172813         -1.07767609         -5.52721784
     6         64.31988253          2.51539649        -10.19058101
     1         62.82716114          1.40044201        -11.01994261
     6         66.08764215         11.40313219         -9.48464469
     1         65.16369588         13.11580985        -10.09572414
     6         77.35605106          0.90500392         -3.48119810
     1         76.33484593         -0.22196584         -2.09005061
     1         79.11865966          1.53337400         -2.63285232
     1         77.80475751         -0.31226194         -5.08139065
     6         78.50428176          6.91314845         -2.93224443
     1         77.90677411          8.12565803         -1.37750166
     1         79.46213003          8.08947070         -4.32614802
     1         79.85351002          5.54515359         -2.20429231
     6         69.80258952         -4.53902886         -7.14952874
     1         70.70422754         -4.46877616         -5.30057549
     1         71.21599032         -5.14568530         -8.52303171
     1         68.30393644         -5.94623487         -7.09741162
     6         64.57784284         -3.21758191         -9.92844775
     1         62.64316885         -2.56467774         -9.76244535
     6         65.01661089         -5.46786712        -10.95457158
     1         66.90029552         -6.17376485        -11.25100293
     1         63.49556842         -6.66554290        -11.58555992
     6         59.91351159          5.12696161        -12.91430450
     1         59.26250655          3.55537650        -11.75616369
     1         60.39949458          4.38587307        -14.77678463
     1         58.36979331          6.46780121        -13.13172955
     6         61.24977852         11.03726983        -12.58572438
     1         61.29487468         12.75130287        -11.46487299
     6         59.96615227         11.03465722        -14.74480147
     1         59.92781905          9.42059400        -15.98100110
     1         58.94157617         12.67701989        -15.37610719
     6         68.46840858         16.55945661         -8.42954471
     1         66.63486833         16.79959479         -7.52141121
     1         68.19684920         16.71534464        -10.46646735
     1         69.69549538         18.09137006         -7.82208606
     6         73.88444206         15.27205098         -5.83408268
     1         74.18009368         15.09875651         -3.80213075
     1         73.39317460         17.22266273         -6.25269954
     1         75.66302792         14.83512928         -6.77694328
     8         70.77210944          6.03432554        -11.61544896
     1         69.37238869          6.14332819        -12.75433134
     1         72.39786707          6.01572760        -12.03852888
     6         63.05981211          8.30271948          0.65372696
     1         63.97679799          8.89729380          2.39964825
     1         61.55749971          6.97824838          1.13418261
     1         62.22442975          9.94728269         -0.24319080
     7         66.23875904          4.98385582         -0.47522516
     1         66.10592157          4.02693316          1.16372767
     6         64.91000657          7.11926863         -1.09269932
     6         67.74070372          4.40501823         -2.46083167
     1         68.99516529          2.81832160         -2.51090075
     7         67.44363184          6.04345394         -4.29542583
     6         65.68974870          7.74399148         -3.47153148
     1         65.11183227          9.29009466         -4.63990565

 Electric dipole moment (dipole orientation):
 (Debye = 10**-18 statcoulomb cm , SI units = C m)
                  (au)            (Debye)         (10**-30 SI)
   Tot        0.147686D+01      0.375381D+01      0.125214D+02
   x          0.000000D+00      0.000000D+00      0.000000D+00
   y          0.000000D+00      0.000000D+00      0.000000D+00
   z          0.147686D+01      0.375381D+01      0.125214D+02

 Dipole polarizability, Alpha (dipole orientation).
 (esu units = cm**3 , SI units = C**2 m**2 J**-1)
 Alpha(0;0):
               (au)            (10**-24 esu)      (10**-40 SI)
   iso        0.575540D+03      0.852863D+02      0.948938D+02
   aniso      0.393766D+03      0.583501D+02      0.649232D+02
   xx         0.604342D+03      0.895542D+02      0.996425D+02
   yx        -0.414889D+01     -0.614801D+00     -0.684059D+00
   yy         0.708942D+03      0.105054D+03      0.116889D+03
   zx         0.170864D+03      0.253195D+02      0.281717D+02
   zy        -0.207492D+01     -0.307472D+00     -0.342109D+00
   zz         0.413337D+03      0.612503D+02      0.681501D+02

 First dipole hyperpolarizability, Beta (dipole orientation).
 ||, _|_  parallel and perpendicular components, (z) with respect to z axis,
 vector components x,y,z.  Values do not include the 1/n! factor of 1/2.
 (esu units = statvolt**-1 cm**4 , SI units = C**3 m**3 J**-2)
 Beta(0;0,0):
               (au)            (10**-30 esu)      (10**-50 SI)
   || (z)    -0.499750D+03     -0.431745D+01     -0.160238D+01
   _|_(z)    -0.166583D+03     -0.143915D+01     -0.534127D+00
   x         -0.419053D+04     -0.362029D+02     -0.134364D+02
   y         -0.269533D+04     -0.232855D+02     -0.864219D+01
   z         -0.249875D+04     -0.215873D+02     -0.801190D+01
   ||         0.111479D+04      0.963095D+01      0.357443D+01
   xxx       -0.446156D+03     -0.385444D+01     -0.143054D+01
   xxy        0.345359D+03      0.298363D+01      0.110735D+01
   yxy       -0.470958D+03     -0.406871D+01     -0.151006D+01
   yyy       -0.141573D+04     -0.122308D+02     -0.453935D+01
   xxz       -0.364887D+03     -0.315234D+01     -0.116996D+01
   yxz        0.252481D+03      0.218124D+01      0.809544D+00
   yyz       -0.410186D+03     -0.354369D+01     -0.131520D+01
   zxz       -0.479731D+03     -0.414450D+01     -0.153819D+01
   zyz        0.171932D+03      0.148536D+01      0.551277D+00
   zzz       -0.578446D+02     -0.499733D+00     -0.185471D+00

 ----------------------------------------------------------------------
 Unable to Open any file for archive entry.
 1\1\GINC-BGN1040\SP\RAPFD\def2TZVP\C34H36Fe1N6O1\BEBJONES\18-Mar-2024\
 0\\# polar def2tzvp apfd int=(grid=ultrafine)\\1ch1_II_S\\0,1\Fe,0,35.
 2215519058,4.0225662459,10.3389254455\N,0,37.1216855022,3.7645075361,9
 .7804477176\N,0,34.9726445452,5.3502744752,8.844158917\N,0,33.33571167
 99,4.3865704313,10.9475041712\N,0,35.4869051065,2.7853541358,11.874293
 0968\C,0,38.0206529513,2.9155516194,10.3439679391\C,0,39.2692299568,2.
 9323397201,9.6134475063\C,0,39.0997979265,3.8094927785,8.5883383514\C,
 0,37.7462539003,4.3075093907,8.7016698599\C,0,35.8838924052,5.68292258
 46,7.889365404\C,0,35.3390788939,6.6495903175,6.9704698411\C,0,34.0507
 066174,6.8783769584,7.3739875949\C,0,33.8454140971,6.0458653214,8.5441
 698693\C,0,32.4501003961,5.268650038,10.406864521\C,0,31.2522401816,5.
 3469776241,11.200794912\C,0,31.437374932,4.4984398923,12.2614801077\C,
 0,32.7438205633,3.9005105544,12.070088477\C,0,34.5808437154,2.46362070
 46,12.8343209708\C,0,35.151249044,1.533933991,13.7859533581\C,0,36.442
 3320101,1.3452014632,13.4049935095\C,0,36.6241415339,2.1140188545,12.1
 922696162\C,0,37.7991916277,2.1393052487,11.4665539643\H,0,38.61549793
 53,1.5263243809,11.8172434562\C,0,37.1762012386,5.1918938559,7.8079030
 483\H,0,37.7949128644,5.5463834764,6.9973943644\C,0,32.6687779848,6.02
 01516791,9.2656428665\H,0,31.8686047831,6.6652959636,8.9367035327\C,0,
 33.2973247734,2.9664137085,12.9281851612\H,0,32.6999494651,2.642919871
 7,13.7669424639\C,0,40.0609802065,4.2187008715,7.5247894905\H,0,39.681
 3630631,3.9509721961,6.537959853\H,0,41.0226094399,3.7308795019,7.6640
 444098\H,0,40.217581669,5.2973330204,7.5443562109\C,0,40.4670885099,2.
 1223090043,9.9747316518\H,0,40.2294581484,1.0584832856,9.955619056\H,0
 ,40.811486323,2.3730166062,10.9782383902\H,0,41.2820156148,2.303700082
 5,9.2781693709\C,0,36.0455811606,7.1977985276,5.7794807431\H,0,36.6582
 511137,6.432163166,5.3053679342\H,0,36.6993891082,8.0247232777,6.06140
 32418\H,0,35.3228780298,7.5643746699,5.0531637297\C,0,33.0492590488,7.
 7427093617,6.789837124\H,0,32.0269704814,7.389162938,6.8616413687\C,0,
 33.2862623048,8.9076196711,6.1952128233\H,0,34.2738026781,9.3309451507
 ,6.1376096494\H,0,32.490106533,9.4944024239,5.7675909238\C,0,30.053158
 1856,6.163781104,10.86635416\H,0,29.8659493586,6.1501060939,9.79365647
 92\H,0,30.1899432929,7.2029450112,11.1708738614\H,0,29.1778098068,5.76
 83586094,11.3776468606\C,0,30.543970878,4.1987029267,13.3582830955\H,0
 ,30.5879785014,3.1834160539,13.7355440034\C,0,29.7049927957,5.05843559
 64,13.9272859377\H,0,29.6515459066,6.0907843518,13.6284918078\H,0,29.0
 562808062,4.7618625448,14.7348252391\C,0,34.4197933465,0.9761260791,14
 .9587224597\H,0,33.524664582,0.4452273172,14.6340688185\H,0,34.1123204
 084,1.77379066,15.6358491632\H,0,35.0475639433,0.2814281853,15.5113898
 419\C,0,37.5002262032,0.5051772949,14.0346834581\H,0,37.8205665862,-0.
 2839124268,13.3536577468\H,0,37.1343820808,0.0419759389,14.9477741328\
 H,0,38.3716887513,1.1111105624,14.2829376455\O,0,35.786,5.755,11.696\H
 ,0,34.962,6.145,11.986\H,0,36.602,6.003,11.947\C,0,32.6335824759,-0.43
 68351034,8.2356867883\H,0,33.2255806147,-1.3251828552,8.0156143279\H,0
 ,31.9392859523,-0.2771145309,7.4108693872\H,0,32.0627020411,-0.6148027
 338,9.1414896167\N,0,34.3345262351,1.2188375481,7.4376874075\H,0,34.43
 12532172,0.8275867831,6.515118364\C,0,33.5087815066,0.7477169408,8.424
 7532565\C,0,34.9854795547,2.298200375,7.9284100516\H,0,35.6985749591,2
 .8730877826,7.3739945843\N,0,34.6222813729,2.5382644004,9.165099156\C,
 0,33.7047244384,1.5816359873,9.4879411721\H,0,33.2508025411,1.55942395
 66,10.4567775636\\Version=ES64L-G16RevC.02\State=1-A\HF=-2984.0268598\
 RMSD=2.401e-09\Dipole=0.2187141,-1.1754462,-0.8669583\Polar=651.291409
 3,-102.508853,499.2944934,-88.2924933,-166.1452129,576.0354427\HyperPo
 lar=-717.1120778,93.3734116,-159.7842816,442.9191783,611.1829631,-61.1
 912234,-661.0783675,-557.2669392,562.7134653,-383.0996776\Quadrupole=-
 4.1665374,1.8484568,2.3180806,3.3338353,0.4960385,8.2218857\PG=C01 [X(
 C34H36Fe1N6O1)]\\@
 The archive entry for this job was punched.


 THE UNDERLYING PHYSICAL LAWS NECESSARY FOR THE 
 MATHEMATICAL THEORY OF A LARGE PART OF PHYSICS AND THE
 WHOLE OF CHEMISTRY ARE THUS COMPLETELY KNOWN, AND THE
 DIFFICULTY IS ONLY THAT THE EXACT APPLICATION OF THESE
 LAWS LEADS TO EQUATIONS MUCH TOO COMPLICATED 
 TO BE SOLUBLE.

                                        -- P. A. M. DIRAC, 1929
 Job cpu time:       2 days  5 hours 34 minutes 53.7 seconds.
 Elapsed time:       0 days  0 hours 46 minutes 23.7 seconds.
 File lengths (MBytes):  RWF=   1208 Int=      0 D2E=      0 Chk=    155 Scr=      1
 Normal termination of Gaussian 16 at Mon Mar 18 10:29:13 2024.
 Initial command:
 /sw/chem/gaussian/g16_C02/a100/g16/l1.exe "/local/bebjones_7775783/Gau-140021.inp" -scrdir="/local/bebjones_7775783/"
 Entering Link 1 = /sw/chem/gaussian/g16_C02/a100/g16/l1.exe PID=    142161.
  
 Copyright (c) 1988-2021, Gaussian, Inc.  All Rights Reserved.
  
 This is part of the Gaussian(R) 16 program.  It is based on
 the Gaussian(R) 09 system (copyright 2009, Gaussian, Inc.),
 the Gaussian(R) 03 system (copyright 2003, Gaussian, Inc.),
 the Gaussian(R) 98 system (copyright 1998, Gaussian, Inc.),
 the Gaussian(R) 94 system (copyright 1995, Gaussian, Inc.),
 the Gaussian 92(TM) system (copyright 1992, Gaussian, Inc.),
 the Gaussian 90(TM) system (copyright 1990, Gaussian, Inc.),
 the Gaussian 88(TM) system (copyright 1988, Gaussian, Inc.),
 the Gaussian 86(TM) system (copyright 1986, Carnegie Mellon
 University), and the Gaussian 82(TM) system (copyright 1983,
 Carnegie Mellon University). Gaussian is a federally registered
 trademark of Gaussian, Inc.
  
 This software contains proprietary and confidential information,
 including trade secrets, belonging to Gaussian, Inc.
  
 This software is provided under written license and may be
 used, copied, transmitted, or stored only in accord with that
 written license.
  
 The following legend is applicable only to US Government
 contracts under FAR:
  
                    RESTRICTED RIGHTS LEGEND
  
 Use, reproduction and disclosure by the US Government is
 subject to restrictions as set forth in subparagraphs (a)
 and (c) of the Commercial Computer Software - Restricted
 Rights clause in FAR 52.227-19.
  
 Gaussian, Inc.
 340 Quinnipiac St., Bldg. 40, Wallingford CT 06492
  
  
 ---------------------------------------------------------------
 Warning -- This program may not be used in any manner that
 competes with the business of Gaussian, Inc. or will provide
 assistance to any competitor of Gaussian, Inc.  The licensee
 of this program is prohibited from giving any competitor of
 Gaussian, Inc. access to this program.  By using this program,
 the user acknowledges that Gaussian, Inc. is engaged in the
 business of creating and licensing software in the field of
 computational chemistry and represents and warrants to the
 licensee that it is not a competitor of Gaussian, Inc. and that
 it will not use this program in any manner prohibited above.
 ---------------------------------------------------------------
  

 Cite this work as:
 Gaussian 16, Revision C.02,
 M. J. Frisch, G. W. Trucks, H. B. Schlegel, G. E. Scuseria, 
 M. A. Robb, J. R. Cheeseman, G. Scalmani, V. Barone, 
[...]
                                                    154(r),150(r),160(r),171(r)
                                                    158(r),152(r)
   140. CR (   1) C  67                  1.99940   -10.05897  1526(v),1332(v),1324(v)
                                                    1524(v)
   141. CR (   1) N  71                  1.99938   -14.22048  1352(v),1326(v),1320(v)
                                                    1327(v),1522(v)
   142. CR (   1) C  73                  1.99915   -10.08829  1409(v),1526(g),1532(v)
                                                    1254(v)
   143. CR (   1) C  74                  1.99935   -10.12051  1382(v),1523(v),1531(v)
                                                    151(r),150(r),154(r)
   144. CR (   1) N  76                  1.99932   -14.15180  150(r),151(r),154(r),1350(v)
                                                    1407(v),1528(v),172(r)
                                                    168(r),174(r)
   145. CR (   1) C  77                  1.99898   -10.05813  1522(v),1324(v),1526(g)
                                                    1383(v),1327(v),150(r)
                                                    151(r)
   163. LP (   1) N  71                  1.57976    -0.28342  1530(v),1527(v),1353(v)
                                                    1325(v),1319(v),1351(v)
   164. LP (   1) N  76                  1.61095    -0.36395  150(r),151(r),154(r),1525(v)
                                                    1526(v),1350(v),1528(v)
                                                    1532(v),1529(g),1407(v)
                                                    1384(g),1531(g),170(r)
                                                    1383(g),195(r),247(r),273(r)
                                                    221(r),220(r),246(r),194(r)
                                                    272(r),1439(r),1446(r)
                                                    183(r),184(r),244(r),1441(r)
                                                    1445(r),1447(r),1442(r)
                                                    1444(r),180(r),1438(r)
                                                    270(r),218(r),179(r),158(r)
                                                    192(r),1440(r),176(r)
  1252. RY*(   1) C  67                  0.00118     1.16092   
  1253. RY*(   2) C  67                  0.00078     2.00870   
  1254. RY*(   3) C  67                  0.00051     1.33357   
  1255. RY*(   4) C  67                  0.00012     1.25765   
  1256. RY*(   5) C  67                  0.00008     2.21258   
  1257. RY*(   6) C  67                  0.00007     1.29888   
  1258. RY*(   7) C  67                  0.00003     2.17236   
  1259. RY*(   8) C  67                  0.00001     1.78517   
  1260. RY*(   9) C  67                  0.00000     1.46736   
  1261. RY*(  10) C  67                  0.00001     1.52473   
  1262. RY*(  11) C  67                  0.00000     3.04929   
  1263. RY*(  12) C  67                  0.00000     3.13505   
  1264. RY*(  13) C  67                  0.00000     2.55016   
  1265. RY*(  14) C  67                  0.00000     2.82361   
  1266. RY*(  15) C  67                  0.00000     2.27986   
  1267. RY*(  16) C  67                  0.00000     3.04625   
  1268. RY*(  17) C  67                  0.00000     2.48928   
  1269. RY*(  18) C  67                  0.00000    21.55250   
  1270. RY*(  19) C  67                  0.00000     2.60546   
  1271. RY*(  20) C  67                  0.00000     3.67761   
  1272. RY*(  21) C  67                  0.00001     3.00399   
  1273. RY*(  22) C  67                  0.00000     2.87620   
  1274. RY*(  23) C  67                  0.00000     3.69098   
  1275. RY*(  24) C  67                  0.00000     3.41713   
  1276. RY*(  25) C  67                  0.00000     3.32515   
  1277. RY*(  26) C  67                  0.00000     3.25726   
  1278. RY*(   1) H  68                  0.00075     0.99601   
  1279. RY*(   2) H  68                  0.00015     1.69515   
  1280. RY*(   3) H  68                  0.00008     1.96216   
  1281. RY*(   4) H  68                  0.00006     2.01479   
  1282. RY*(   5) H  68                  0.00000     2.88187   
  1283. RY*(   1) H  69                  0.00074     0.99915   
  1284. RY*(   2) H  69                  0.00015     1.69322   
  1285. RY*(   3) H  69                  0.00008     1.96434   
  1286. RY*(   4) H  69                  0.00006     2.01237   
  1287. RY*(   5) H  69                  0.00000     2.88159   
  1288. RY*(   1) H  70                  0.00024     1.38318   
  1289. RY*(   2) H  70                  0.00012     1.74264   
  1290. RY*(   3) H  70                  0.00008     2.05786   
  1291. RY*(   4) H  70                  0.00002     1.59618   
  1292. RY*(   5) H  70                  0.00001     2.86762   
  1293. RY*(   1) N  71                  0.00282     0.66803   
  1294. RY*(   2) N  71                  0.00224     1.77915   
  1295. RY*(   3) N  71                  0.00100     2.08727   
  1296. RY*(   4) N  71                  0.00077     2.16789   
  1297. RY*(   5) N  71                  0.00053     1.15852   
  1298. RY*(   6) N  71                  0.00027     2.04404   
  1299. RY*(   7) N  71                  0.00020     1.71189   
  1300. RY*(   8) N  71                  0.00007     2.53157   
  1301. RY*(   9) N  71                  0.00007     2.21563   
  1302. RY*(  10) N  71                  0.00006     3.73356   
  1303. RY*(  11) N  71                  0.00004     2.89735   
  1304. RY*(  12) N  71                  0.00001     3.87594   
  1305. RY*(  13) N  71                  0.00001     4.31690   
  1306. RY*(  14) N  71                  0.00000     2.54506   
  1307. RY*(  15) N  71                  0.00000     3.49760   
  1308. RY*(  16) N  71                  0.00000     2.10777   
  1309. RY*(  17) N  71                  0.00000     4.58249   
  1310. RY*(  18) N  71                  0.00001     3.84535   
  1311. RY*(  19) N  71                  0.00000    30.61892   
  1312. RY*(  20) N  71                  0.00000     4.61929   
  1313. RY*(  21) N  71                  0.00000     4.70458   
  1314. RY*(  22) N  71                  0.00000     4.37108   
  1315. RY*(  23) N  71                  0.00000     4.56109   
  1316. RY*(  24) N  71                  0.00000     4.30840   
  1317. RY*(  25) N  71                  0.00000     4.50698   
  1318. RY*(  26) N  71                  0.00000     4.42148   
  1319. RY*(   1) H  72                  0.00058     2.15156   
  1320. RY*(   2) H  72                  0.00039     2.13442   
  1321. RY*(   3) H  72                  0.00030     1.03977   
  1322. RY*(   4) H  72                  0.00021     2.52741   
  1323. RY*(   5) H  72                  0.00001     3.07867   
  1324. RY*(   1) C  73                  0.00406     1.69343   
  1325. RY*(   2) C  73                  0.00261     0.98578   
  1326. RY*(   3) C  73                  0.00191     1.49596   
  1327. RY*(   4) C  73                  0.00162     2.02935   
  1328. RY*(   5) C  73                  0.00122     1.75856   
  1329. RY*(   6) C  73                  0.00110     1.72789   
  1330. RY*(   7) C  73                  0.00037     2.85631   
  1331. RY*(   8) C  73                  0.00019     2.75360   
  1332. RY*(   9) C  73                  0.00016     2.52272   
  1333. RY*(  10) C  73                  0.00007     3.64566   
  1334. RY*(  11) C  73                  0.00003     2.67911   
  1335. RY*(  12) C  73                  0.00002     2.06979   
  1336. RY*(  13) C  73                  0.00001     1.32436   
  1337. RY*(  14) C  73                  0.00001     1.68429   
  1338. RY*(  15) C  73                  0.00001     2.83173   
  1339. RY*(  16) C  73                  0.00001     1.92264   
  1340. RY*(  17) C  73                  0.00000     3.33108   
  1341. RY*(  18) C  73                  0.00000     1.07442   
  1342. RY*(  19) C  73                  0.00000    21.24365   
  1343. RY*(  20) C  73                  0.00000     4.06187   
  1344. RY*(  21) C  73                  0.00000     3.77094   
  1345. RY*(  22) C  73                  0.00000     3.54807   
  1346. RY*(  23) C  73                  0.00000     3.72402   
  1347. RY*(  24) C  73                  0.00000     3.40827   
  1348. RY*(  25) C  73                  0.00000     3.56927   
  1349. RY*(  26) C  73                  0.00000     3.50190   
  1350. RY*(   1) C  74                  0.00409     1.60120   
  1351. RY*(   2) C  74                  0.00329     0.67142   
  1352. RY*(   3) C  74                  0.00201     1.33445   
  1353. RY*(   4) C  74                  0.00128     2.55667   
  1354. RY*(   5) C  74                  0.00079     1.65956   
  1355. RY*(   6) C  74                  0.00039     1.65467   
  1356. RY*(   7) C  74                  0.00027     1.90245   
  1357. RY*(   8) C  74                  0.00009     2.71676   
  1358. RY*(   9) C  74                  0.00005     1.95893   
  1359. RY*(  10) C  74                  0.00006     2.60440   
  1360. RY*(  11) C  74                  0.00004     3.49922   
  1361. RY*(  12) C  74                  0.00003     1.58799   
  1362. RY*(  13) C  74                  0.00002     2.92516   
  1363. RY*(  14) C  74                  0.00001     2.20911   
  1364. RY*(  15) C  74                  0.00001     2.59956   
  1365. RY*(  16) C  74                  0.00001     3.64044   
  1366. RY*(  17) C  74                  0.00001     2.72417   
  1367. RY*(  18) C  74                  0.00001     3.96156   
  1368. RY*(  19) C  74                  0.00000     3.15853   
  1369. RY*(  20) C  74                  0.00000    21.44757   
  1370. RY*(  21) C  74                  0.00001     4.06093   
  1371. RY*(  22) C  74                  0.00000     3.58138   
  1372. RY*(  23) C  74                  0.00000     3.85343   
  1373. RY*(  24) C  74                  0.00000     3.50517   
  1374. RY*(  25) C  74                  0.00000     3.52207   
  1375. RY*(  26) C  74                  0.00000     3.37207   
  1376. RY*(   1) H  75                  0.00057     0.88223   
  1377. RY*(   2) H  75                  0.00030     2.36074   
  1378. RY*(   3) H  75                  0.00021     2.12782   
  1379. RY*(   4) H  75                  0.00012     2.40276   
  1380. RY*(   5) H  75                  0.00002     3.13801   
  1381. RY*(   1) N  76                  0.00762     0.85344   
  1382. RY*(   2) N  76                  0.00723     1.31804   
  1383. RY*(   3) N  76                  0.00595     1.42883   
  1384. RY*(   4) N  76                  0.00078     1.58327   
  1385. RY*(   5) N  76                  0.00073     1.68600   
  1386. RY*(   6) N  76                  0.00056     1.94345   
  1387. RY*(   7) N  76                  0.00037     3.50125   
  1388. RY*(   8) N  76                  0.00033     3.18931   
  1389. RY*(   9) N  76                  0.00011     2.81887   
  1390. RY*(  10) N  76                  0.00009     2.42894   
  1391. RY*(  11) N  76                  0.00009     3.25517   
  1392. RY*(  12) N  76                  0.00008     3.40852   
  1393. RY*(  13) N  76                  0.00006     3.06132   
  1394. RY*(  14) N  76                  0.00003     3.61113   
  1395. RY*(  15) N  76                  0.00002     4.10414   
  1396. RY*(  16) N  76                  0.00002     4.85462   
  1397. RY*(  17) N  76                  0.00002     4.89933   
  1398. RY*(  18) N  76                  0.00000    31.59710   
  1399. RY*(  19) N  76                  0.00001     4.12282   
  1400. RY*(  20) N  76                  0.00000     4.35897   
  1401. RY*(  21) N  76                  0.00000     4.81916   
  1402. RY*(  22) N  76                  0.00000     4.13112   
  1403. RY*(  23) N  76                  0.00000     4.81356   
  1404. RY*(  24) N  76                  0.00000     4.66008   
  1405. RY*(  25) N  76                  0.00000     4.75925   
  1406. RY*(  26) N  76                  0.00000     4.51895   
  1407. RY*(   1) C  77                  0.00400     1.48896   
  1408. RY*(   2) C  77                  0.00259     0.71880   
  1409. RY*(   3) C  77                  0.00169     1.83539   
  1410. RY*(   4) C  77                  0.00069     2.02176   
  1411. RY*(   5) C  77                  0.00056     1.59999   
  1412. RY*(   6) C  77                  0.00046     1.98897   
  1413. RY*(   7) C  77                  0.00043     1.98785   
  1414. RY*(   8) C  77                  0.00023     1.48222   
  1415. RY*(   9) C  77                  0.00022     1.61803   
  1416. RY*(  10) C  77                  0.00015     1.76363   
  1417. RY*(  11) C  77                  0.00010     1.37692   
  1418. RY*(  12) C  77                  0.00005     1.81699   
  1419. RY*(  13) C  77                  0.00006     2.31039   
  1420. RY*(  14) C  77                  0.00005     2.93682   
  1421. RY*(  15) C  77                  0.00002     3.33721   
  1422. RY*(  16) C  77                  0.00002     1.50103   
  1423. RY*(  17) C  77                  0.00000     3.64000   
  1424. RY*(  18) C  77                  0.00000     3.26543   
  1425. RY*(  19) C  77                  0.00000    21.63713   
  1426. RY*(  20) C  77                  0.00001     3.92396   
  1427. RY*(  21) C  77                  0.00001     4.10304   
  1428. RY*(  22) C  77                  0.00000     3.46093   
  1429. RY*(  23) C  77                  0.00000     3.75681   
  1430. RY*(  24) C  77                  0.00001     3.41428   
  1431. RY*(  25) C  77                  0.00000     3.67055   
  1432. RY*(  26) C  77                  0.00000     3.42750   
  1433. RY*(   1) H  78                  0.00051     0.83985   
  1434. RY*(   2) H  78                  0.00033     2.20295   
  1435. RY*(   3) H  78                  0.00025     2.29742   
  1436. RY*(   4) H  78                  0.00008     2.73996   
  1437. RY*(   5) H  78                  0.00001     3.12399   
  1519. BD*(   1) C  67 - H  68          0.01202     0.35946   
  1520. BD*(   1) C  67 - H  69          0.01180     0.35969   
  1521. BD*(   1) C  67 - H  70          0.00345     0.37313   
  1522. BD*(   1) C  67 - C  73          0.01373     0.38945   
  1523. BD*(   1) N  71 - H  72          0.01420     0.36730   
  1524. BD*(   1) N  71 - C  73          0.02722     0.43021   
  1525. BD*(   1) N  71 - C  74          0.02241     0.44743   
  1526. BD*(   1) C  73 - C  77          0.02110     0.56717   
  1527. BD*(   2) C  73 - C  77          0.29922     0.03559  1530(v),1519(v),1520(v)
                                                    1328(g),1448(r)
  1528. BD*(   1) C  74 - H  75          0.01849     0.39232   
  1529. BD*(   1) C  74 - N  76          0.01633     0.53787   
  1530. BD*(   2) C  74 - N  76          0.41921    -0.00507  1527(v),1351(g),1381(g)
                                                    1408(v),153(r),1440(r)
                                                    1448(r)
  1531. BD*(   1) N  76 - C  77          0.01648     0.48148   
  1532. BD*(   1) C  77 - H  78          0.01464     0.43398   
       -------------------------------
              Total Lewis   42.69044  ( 97.7358%)
        Valence non-Lewis    0.91030  (  2.0841%)
        Rydberg non-Lewis    0.07870  (  0.1802%)
       -------------------------------
            Total unit  4   43.67945  (100.0000%)
           Charge unit  4    0.32055
 Unable to Open any file for archive entry.
 1\1\GINC-BGN1040\SP\RAPFD\def2TZVP\C34H36Fe1N6O1\BEBJONES\18-Mar-2024\
 0\\# apfd/def2TZVP int=(grid=ultrafine) geom=check guess=read pop=nbo 
 scf=qc\\1ch1_II_S_nbo\\0,1\Fe,0,35.2215519058,4.0225662459,10.33892544
 55\N,0,37.1216855022,3.7645075361,9.7804477176\N,0,34.9726445452,5.350
 2744752,8.844158917\N,0,33.3357116799,4.3865704313,10.9475041712\N,0,3
 5.4869051065,2.7853541358,11.8742930968\C,0,38.0206529513,2.9155516194
 ,10.3439679391\C,0,39.2692299568,2.9323397201,9.6134475063\C,0,39.0997
 979265,3.8094927785,8.5883383514\C,0,37.7462539003,4.3075093907,8.7016
 698599\C,0,35.8838924052,5.6829225846,7.889365404\C,0,35.3390788939,6.
 6495903175,6.9704698411\C,0,34.0507066174,6.8783769584,7.3739875949\C,
 0,33.8454140971,6.0458653214,8.5441698693\C,0,32.4501003961,5.26865003
 8,10.406864521\C,0,31.2522401816,5.3469776241,11.200794912\C,0,31.4373
 74932,4.4984398923,12.2614801077\C,0,32.7438205633,3.9005105544,12.070
 088477\C,0,34.5808437154,2.4636207046,12.8343209708\C,0,35.151249044,1
 .533933991,13.7859533581\C,0,36.4423320101,1.3452014632,13.4049935095\
 C,0,36.6241415339,2.1140188545,12.1922696162\C,0,37.7991916277,2.13930
 52487,11.4665539643\H,0,38.6154979353,1.5263243809,11.8172434562\C,0,3
 7.1762012386,5.1918938559,7.8079030483\H,0,37.7949128644,5.5463834764,
 6.9973943644\C,0,32.6687779848,6.0201516791,9.2656428665\H,0,31.868604
 7831,6.6652959636,8.9367035327\C,0,33.2973247734,2.9664137085,12.92818
 51612\H,0,32.6999494651,2.6429198717,13.7669424639\C,0,40.0609802065,4
 .2187008715,7.5247894905\H,0,39.6813630631,3.9509721961,6.537959853\H,
 0,41.0226094399,3.7308795019,7.6640444098\H,0,40.217581669,5.297333020
 4,7.5443562109\C,0,40.4670885099,2.1223090043,9.9747316518\H,0,40.2294
 581484,1.0584832856,9.955619056\H,0,40.811486323,2.3730166062,10.97823
 83902\H,0,41.2820156148,2.3037000825,9.2781693709\C,0,36.0455811606,7.
 1977985276,5.7794807431\H,0,36.6582511137,6.432163166,5.3053679342\H,0
 ,36.6993891082,8.0247232777,6.0614032418\H,0,35.3228780298,7.564374669
 9,5.0531637297\C,0,33.0492590488,7.7427093617,6.789837124\H,0,32.02697
 04814,7.389162938,6.8616413687\C,0,33.2862623048,8.9076196711,6.195212
 8233\H,0,34.2738026781,9.3309451507,6.1376096494\H,0,32.490106533,9.49
 44024239,5.7675909238\C,0,30.0531581856,6.163781104,10.86635416\H,0,29
 .8659493586,6.1501060939,9.7936564792\H,0,30.1899432929,7.2029450112,1
 1.1708738614\H,0,29.1778098068,5.7683586094,11.3776468606\C,0,30.54397
 0878,4.1987029267,13.3582830955\H,0,30.5879785014,3.1834160539,13.7355
 440034\C,0,29.7049927957,5.0584355964,13.9272859377\H,0,29.6515459066,
 6.0907843518,13.6284918078\H,0,29.0562808062,4.7618625448,14.734825239
 1\C,0,34.4197933465,0.9761260791,14.9587224597\H,0,33.524664582,0.4452
 273172,14.6340688185\H,0,34.1123204084,1.77379066,15.6358491632\H,0,35
 .0475639433,0.2814281853,15.5113898419\C,0,37.5002262032,0.5051772949,
 14.0346834581\H,0,37.8205665862,-0.2839124268,13.3536577468\H,0,37.134
 3820808,0.0419759389,14.9477741328\H,0,38.3716887513,1.1111105624,14.2
 829376455\O,0,35.786,5.755,11.696\H,0,34.962,6.145,11.986\H,0,36.602,6
 .003,11.947\C,0,32.6335824759,-0.4368351034,8.2356867883\H,0,33.225580
 6147,-1.3251828552,8.0156143279\H,0,31.9392859523,-0.2771145309,7.4108
 693872\H,0,32.0627020411,-0.6148027338,9.1414896167\N,0,34.3345262351,
 1.2188375481,7.4376874075\H,0,34.4312532172,0.8275867831,6.515118364\C
 ,0,33.5087815066,0.7477169408,8.4247532565\C,0,34.9854795547,2.2982003
 75,7.9284100516\H,0,35.6985749591,2.8730877826,7.3739945843\N,0,34.622
 2813729,2.5382644004,9.165099156\C,0,33.7047244384,1.5816359873,9.4879
 411721\H,0,33.2508025411,1.5594239566,10.4567775636\\Version=ES64L-G16
 RevC.02\State=1-A\HF=-2984.0268598\RMSD=1.269e-09\Dipole=0.2187141,-1.
 1754462,-0.8669583\Quadrupole=-4.1665374,1.8484568,2.3180806,3.3338353
 ,0.4960385,8.2218857\PG=C01 [X(C34H36Fe1N6O1)]\\@
 The archive entry for this job was punched.


 BE LIKE A POSTAGE STAMP.  STICK TO ONE THING UNTIL
 YOU GET THERE -- JOSH BILLINGS
 Job cpu time:       0 days  0 hours 45 minutes 42.1 seconds.
 Elapsed time:       0 days  0 hours  0 minutes 55.0 seconds.
 File lengths (MBytes):  RWF=    792 Int=      0 D2E=      0 Chk=    155 Scr=      1
 Normal termination of Gaussian 16 at Mon Mar 18 10:30:10 2024.
