 Entering Gaussian System, Link 0=g16
 Input=1cih01.com
 Output=1cih01.log
 Initial command:
 /sw/chem/gaussian/g16_C02/a100/g16/l1.exe "/local/bebjones_7920388/Gau-664729.inp" -scrdir="/local/bebjones_7920388/"
 Entering Link 1 = /sw/chem/gaussian/g16_C02/a100/g16/l1.exe PID=    664730.
  
 Copyright (c) 1988-2021, Gaussian, Inc.  All Rights Reserved.
  
 This is part of the Gaussian(R) 16 program.  It is based on
 the Gaussian(R) 09 system (copyright 2009, Gaussian, Inc.),
 the Gaussian(R) 03 system (copyright 2003, Gaussian, Inc.),
 the Gaussian(R) 98 system (copyright 1998, Gaussian, Inc.),
 the Gaussian(R) 94 system (copyright 1995, Gaussian, Inc.),
 the Gaussian 92(TM) system (copyright 1992, Gaussian, Inc.),
 the Gaussian 90(TM) system (copyright 1990, Gaussian, Inc.),
 the Gaussian 88(TM) system (copyright 1988, Gaussian, Inc.),
 the Gaussian 86(TM) system (copyright 1986, Carnegie Mellon
 University), and the Gaussian 82(TM) system (copyright 1983,
 Carnegie Mellon University). Gaussian is a federally registered
 trademark of Gaussian, Inc.
  
 This software contains proprietary and confidential information,
 including trade secrets, belonging to Gaussian, Inc.
  
 This software is provided under written license and may be
 used, copied, transmitted, or stored only in accord with that
 written license.
  
 The following legend is applicable only to US Government
 contracts under FAR:
  
                    RESTRICTED RIGHTS LEGEND
  
 Use, reproduction and disclosure by the US Government is
 subject to restrictions as set forth in subparagraphs (a)
 and (c) of the Commercial Computer Software - Restricted
 Rights clause in FAR 52.227-19.
  
 Gaussian, Inc.
 340 Quinnipiac St., Bldg. 40, Wallingford CT 06492
  
  
 ---------------------------------------------------------------
 Warning -- This program may not be used in any manner that
 competes with the business of Gaussian, Inc. or will provide
 assistance to any competitor of Gaussian, Inc.  The licensee
 of this program is prohibited from giving any competitor of
 Gaussian, Inc. access to this program.  By using this program,
 the user acknowledges that Gaussian, Inc. is engaged in the
 business of creating and licensing software in the field of
 computational chemistry and represents and warrants to the
 licensee that it is not a competitor of Gaussian, Inc. and that
 it will not use this program in any manner prohibited above.
 ---------------------------------------------------------------
  

 Cite this work as:
 Gaussian 16, Revision C.02,
 M. J. Frisch, G. W. Trucks, H. B. Schlegel, G. E. Scuseria, 
 M. A. Robb, J. R. Cheeseman, G. Scalmani, V. Barone, 
 G. A. Petersson, H. Nakatsuji, X. Li, M. Caricato, A. V. Marenich, 
 J. Bloino, B. G. Janesko, R. Gomperts, B. Mennucci, H. P. Hratchian, 
 J. V. Ortiz, A. F. Izmaylov, J. L. Sonnenberg, D. Williams-Young, 
 F. Ding, F. Lipparini, F. Egidi, J. Goings, B. Peng, A. Petrone, 
 T. Henderson, D. Ranasinghe, V. G. Zakrzewski, J. Gao, N. Rega, 
 G. Zheng, W. Liang, M. Hada, M. Ehara, K. Toyota, R. Fukuda, 
 J. Hasegawa, M. Ishida, T. Nakajima, Y. Honda, O. Kitao, H. Nakai, 
 T. Vreven, K. Throssell, J. A. Montgomery, Jr., J. E. Peralta, 
 F. Ogliaro, M. J. Bearpark, J. J. Heyd, E. N. Brothers, K. N. Kudin, 
 V. N. Staroverov, T. A. Keith, R. Kobayashi, J. Normand, 
 K. Raghavachari, A. P. Rendell, J. C. Burant, S. S. Iyengar, 
 J. Tomasi, M. Cossi, J. M. Millam, M. Klene, C. Adamo, R. Cammi, 
 J. W. Ochterski, R. L. Martin, K. Morokuma, O. Farkas, 
 J. B. Foresman, and D. J. Fox, Gaussian, Inc., Wallingford CT, 2019.
 
 ******************************************
 Gaussian 16:  ES64L-G16RevC.02  7-Dec-2021
                 1-Jul-2024 
 ******************************************
 %mem=16GB
 %CPU=0-71
 SetSPE:  set environment variable "OMP_PROC_BIND" = "true"
 SetSPE:  set environment variable "OMP_PLACES" = "{0},{1},{2},{3},{4},{5},{6},{7},{8},{9},{10},{11},{12},{13},{14},{15},{16},{17},{18},{19},{20},{21},{22},{23},{24},{25},{26},{27},{28},{29},{30},{31},{32},{33},{34},{35},{36},{37},{38},{39},{40},{41},{42},{43},{44},{45},{46},{47},{48},{49},{50},{51},{52},{53},{54},{55},{56},{57},{58},{59},{60},{61},{62},{63},{64},{65},{66},{67},{68},{69},{70},{71}"
 Will use up to   72 processors via shared memory.
 %gpucpu=0,1,2,3=0,1,2,3
 Will use    4 GPUs:
 Thread  CPU   GPU
      0    0     0
      1    1     1
      2    2     2
      3    3     3
      4    4    -1
      5    5    -1
      6    6    -1
      7    7    -1
      8    8    -1
      9    9    -1
     10   10    -1
     11   11    -1
     12   12    -1
     13   13    -1
     14   14    -1
     15   15    -1
     16   16    -1
     17   17    -1
     18   18    -1
     19   19    -1
     20   20    -1
     21   21    -1
     22   22    -1
     23   23    -1
     24   24    -1
     25   25    -1
     26   26    -1
     27   27    -1
     28   28    -1
     29   29    -1
     30   30    -1
     31   31    -1
     32   32    -1
     33   33    -1
     34   34    -1
     35   35    -1
     36   36    -1
     37   37    -1
     38   38    -1
     39   39    -1
     40   40    -1
     41   41    -1
     42   42    -1
     43   43    -1
     44   44    -1
     45   45    -1
     46   46    -1
     47   47    -1
     48   48    -1
     49   49    -1
     50   50    -1
     51   51    -1
     52   52    -1
     53   53    -1
     54   54    -1
     55   55    -1
     56   56    -1
     57   57    -1
     58   58    -1
     59   59    -1
     60   60    -1
     61   61    -1
     62   62    -1
     63   63    -1
     64   64    -1
     65   65    -1
     66   66    -1
     67   67    -1
     68   68    -1
     69   69    -1
     70   70    -1
     71   71    -1
 SetGPE:  set environment variable "OMP_PROC_BIND" = "true"
 SetGPE:  set environment variable "OMP_PLACES" = "{0},{1},{2},{3},{4},{5},{6},{7},{8},{9},{10},{11},{12},{13},{14},{15},{16},{17},{18},{19},{20},{21},{22},{23},{24},{25},{26},{27},{28},{29},{30},{31},{32},{33},{34},{35},{36},{37},{38},{39},{40},{41},{42},{43},{44},{45},{46},{47},{48},{49},{50},{51},{52},{53},{54},{55},{56},{57},{58},{59},{60},{61},{62},{63},{64},{65},{66},{67},{68},{69},{70},{71}"
 %chk=1cih_II_O.chk
 Properties for Device   0
 Minimum vector length:                              32
 Maximum vector length:                            1024
 Number of SMPs:                                    108
 Maximum number of threads per SMP:                2048
 Number of ASync Engines:                             5
 Memory:                                           9207742464
 Properties for Device   1
 Minimum vector length:                              32
 Maximum vector length:                            1024
 Number of SMPs:                                    108
 Maximum number of threads per SMP:                2048
 Number of ASync Engines:                             5
 Memory:                                           9207742464
 Properties for Device   2
 Minimum vector length:                              32
 Maximum vector length:                            1024
 Number of SMPs:                                    108
 Maximum number of threads per SMP:                2048
 Number of ASync Engines:                             5
 Memory:                                           9207742464
 Properties for Device   3
 Minimum vector length:                              32
 Maximum vector length:                            1024
 Number of SMPs:                                    108
 Maximum number of threads per SMP:                2048
 Number of ASync Engines:                             5
 Memory:                                           9207742464
   8286968217 words of memory will be used on each GPU.
 ------------------------------------------
 # polar def2tzvp apfd int=(grid=ultrafine)
 ------------------------------------------
 1/38=1,172=1/1;
 2/12=2,17=6,18=5,40=1/2;
 3/5=44,7=101,11=2,25=1,30=1,74=-44,75=-5/1,2,3;
 4//1;
 5/5=2,38=5,98=1/2;
 8/6=4,10=90,11=11/1;
 10/6=1,13=10/2;
 6/7=2,8=2,9=2,10=2,28=1/1;
 99/5=1,9=1/99;
 ---------
 1cih_II_S
 ---------
 Symbolic Z-matrix:
 Charge =  0 Multiplicity = 1
 Fe                    2.97928   21.02259   13.01178 
 N                     4.42855   19.9711   12.17666 
 N                     3.60898   20.45426   14.82579 
 N                     1.53278   22.12391   13.88949 
 N                     2.35256   21.65724   11.22296 
 C                     4.70938   19.89506   10.85073 
 C                     5.73741   18.90692   10.60424 
 C                     6.04368   18.36618   11.81333 
 C                     5.23323   19.06426   12.78761 
 C                     4.46569   19.43113   15.08811 
 C                     4.55941   19.19276   16.51037 
 C                     3.68757   20.05635   17.09841 
 C                     3.09863   20.82863   16.0275 
 C                     1.39969   22.39226   15.21452 
 C                     0.30085   23.30763   15.4475 
 C                    -0.20037   23.61724   14.2112 
 C                     0.59839   22.88881   13.25936 
 C                     1.3008    22.46914   10.95115 
 C                     1.25269   22.78762   9.53701 
 C                     2.33308   22.16003   8.974 
 C                     2.99263   21.45224   10.04049 
 C                     4.09398   20.63293   9.85865 
 H                     4.46177   20.51249   8.85092 
 C                     5.24469   18.7888   14.14255 
 H                     5.90999   18.01233   14.48843 
 C                     2.12525   21.79002   16.22498 
 H                     1.86521   22.03327   17.24363 
 C                     0.41547   22.96787   11.88909 
 H                    -0.40881   23.56566   11.53123 
 C                     6.276     18.57263   9.25553 
 H                     6.69939   19.45859   8.78159 
 H                     5.48398   18.19076   8.61098 
 H                     7.05441   17.8168   9.32567 
 C                     7.02015   17.29138   12.14861 
 H                     6.5133    16.45191   12.62468 
 H                     7.7801    17.66172   12.83747 
 H                     7.51772   16.92715   11.2532 
 C                     2.81019   22.22298   7.56512 
 H                     2.48578   21.34472   7.0041 
 H                     3.89781   22.2631   7.52927 
 H                     2.41149   23.10895   7.0749 
 C                     0.2599    23.63488   8.91541 
 H                    -0.13604   24.42912   9.53795 
 C                    -0.19694   23.50624   7.67373 
 H                     0.12195   22.70935   7.02505 
 H                    -0.93111   24.18421   7.27098 
 C                    -1.28838   24.57376   13.86698 
 H                    -2.22197   24.0465   13.66259 
 H                    -1.02844   25.15248   12.98167 
 H                    -1.45595   25.26094   14.69382 
 C                    -0.1056    23.7899   16.74876 
 H                     0.69234   23.91036   17.4726 
 C                    -1.35217   24.07667   17.10963 
 H                    -2.18844   23.92986   16.44843 
 H                    -1.58281   24.44531   18.09545 
 C                     3.35971   20.23127   18.5414 
 H                     3.93625   19.54355   19.15529 
 H                     2.30032   20.04317   18.71774 
 H                     3.58034   21.24857   18.86585 
 C                     5.42668   18.15301   17.13335 
 H                     5.30276   18.14218   18.21347 
 H                     6.47668   18.34524   16.91071 
 H                     5.17609   17.16411   16.74866 
 C                     5.26575   26.11032   12.86596 
 H                     5.52196   26.57153   13.81981 
 H                     4.37154   26.58796   12.47803 
 H                     6.08619   26.2872   12.17056 
 N                     5.97958   23.79372   13.49556 
 H                     6.91761   24.04555   13.76077 
 C                     5.01984   24.65561   13.03286 
 C                     5.43685   22.55627   13.53006 
 H                     5.95674   21.67796   13.85183 
 N                     4.19351   22.58262   13.11762 
 C                     3.91912   23.88037   12.80462 
 H                     2.95583   24.16953   12.43891 
 C                     1.14338   17.8873   15.3382 
 H                     2.16163   18.13671   15.62121 
 H                     1.14904   16.91582   14.84954 
 H                     0.53804   17.82422   16.24039 
 C                     0.57896   18.94367   14.40796 
 H                     0.57273   19.92323   14.88205 
 H                    -0.42954   18.6799   14.09159 
 S                     1.60057   19.0614   12.88085 
 C                     0.26588   19.41986   11.69772 
 H                     0.7331    19.55402   10.72818 
 H                    -0.24724   20.33154   11.98636 
 H                    -0.41801   18.57558   11.66804 
 
 Stoichiometry    C37H42FeN6S
 Framework group  C1[X(C37H42FeN6S)]
 Deg. of freedom   255
 Full point group                 C1      NOp   1
 Largest Abelian subgroup         C1      NOp   1
 Largest concise Abelian subgroup C1      NOp   1
                         Standard orientation:                         
 ---------------------------------------------------------------------
 Center     Atomic      Atomic             Coordinates (Angstroms)
 Number     Number       Type             X           Y           Z
 ---------------------------------------------------------------------
      1         26           0       -0.080001   -0.244103   -0.090623
      2          7           0       -0.112549   -2.216602    0.017262
      3          7           0       -2.061243   -0.193336    0.196168
      4          7           0       -0.065517    1.773651   -0.154564
      5          7           0        1.905170   -0.248188   -0.324050
      6          6           0        0.960681   -3.045755   -0.041224
      7          6           0        0.534020   -4.427708   -0.087848
      8          6           0       -0.825269   -4.406787   -0.090144
      9          6           0       -1.210315   -3.015238    0.003133
     10          6           0       -2.910689   -1.249331    0.082671
     11          6           0       -4.285222   -0.814868    0.184280
     12          6           0       -4.247629    0.540629    0.297905
     13          6           0       -2.849463    0.908373    0.294524
     14          6           0       -1.095049    2.608716    0.142378
     15          6           0       -0.669157    3.992593    0.086591
     16          6           0        0.666709    3.964011   -0.213691
     17          6           0        1.022417    2.573423   -0.333423
     18          6           0        2.723645    0.819380   -0.496312
     19          6           0        4.112656    0.402214   -0.508171
     20          6           0        4.099159   -0.953277   -0.306772
     21          6           0        2.714288   -1.335484   -0.209706
     22          6           0        2.281580   -2.643966   -0.075718
     23          1           0        3.035256   -3.416632   -0.060163
     24          6           0       -2.520942   -2.574723    0.012258
     25          1           0       -3.298793   -3.321157   -0.042007
     26          6           0       -2.403332    2.215428    0.351907
     27          1           0       -3.142427    2.987702    0.499453
     28          6           0        2.307638    2.133892   -0.602467
     29          1           0        3.061344    2.884185   -0.786418
     30          6           0        1.461561   -5.591891   -0.159815
     31          1           0        2.138677   -5.595783    0.694757
     32          1           0        2.063680   -5.546000   -1.067517
     33          1           0        0.908700   -6.528088   -0.162858
     34          6           0       -1.788471   -5.542538   -0.148561
     35          1           0       -2.428825   -5.453515   -1.026210
     36          1           0       -2.426768   -5.552944    0.735547
     37          1           0       -1.263540   -6.493037   -0.203312
     38          6           0        5.255413   -1.876942   -0.144126
     39          1           0        5.471700   -2.398932   -1.077970
     40          1           0        5.045398   -2.624636    0.619192
     41          1           0        6.141854   -1.317869    0.148896
     42          6           0        5.240293    1.292883   -0.666347
     43          1           0        5.106460    2.294433   -0.273765
     44          6           0        6.392759    0.983214   -1.251969
     45          1           0        6.566861    0.021942   -1.702707
     46          1           0        7.197235    1.696337   -1.323643
     47          6           0        1.616314    5.106246   -0.317397
     48          1           0        1.804467    5.364392   -1.361104
     49          1           0        2.570849    4.858461    0.144896
     50          1           0        1.204567    5.979949    0.183658
     51          6           0       -1.526168    5.127667    0.347744
     52          1           0       -2.305640    4.965159    1.083394
     53          6           0       -1.432927    6.315489   -0.241160
     54          1           0       -0.710345    6.517609   -1.012590
     55          1           0       -2.099193    7.123656    0.011600
     56          6           0       -5.372973    1.510541    0.412613
     57          1           0       -6.330431    0.995405    0.401101
     58          1           0       -5.353671    2.217602   -0.417134
     59          1           0       -5.299436    2.077662    1.340950
     60          6           0       -5.462324   -1.726736    0.119047
     61          1           0       -6.390959   -1.165194    0.185738
     62          1           0       -5.436859   -2.445598    0.938556
     63          1           0       -5.464063   -2.283875   -0.818133
     64          6           0        1.568585    0.982866    5.096956
     65          1           0        0.852613    1.491445    5.742643
     66          1           0        2.316729    1.700288    4.774728
     67          1           0        2.059672    0.203702    5.679813
     68          7           0       -0.095484   -0.541892    4.011339
     69          1           0       -0.450017   -0.931801    4.869209
     70          6           0        0.889949    0.404991    3.909514
     71          6           0       -0.498783   -0.850039    2.758569
     72          1           0       -1.262140   -1.563977    2.528727
     73          7           0        0.170886   -0.156663    1.871181
     74          6           0        1.038284    0.628159    2.570527
     75          1           0        1.706808    1.296785    2.069232
     76          6           0       -2.969334    0.293347   -3.249045
     77          1           0       -3.359589   -0.145632   -2.335739
     78          1           0       -2.932992   -0.478050   -4.014704
     79          1           0       -3.647886    1.079915   -3.573489
     80          6           0       -1.586035    0.867526   -3.011046
     81          1           0       -1.606106    1.637391   -2.242123
     82          1           0       -1.174465    1.276735   -3.932939
     83         16           0       -0.432328   -0.455568   -2.456081
     84          6           0        1.074040    0.145312   -3.280377
     85          1           0        1.873611   -0.535276   -3.008743
     86          1           0        1.310398    1.145667   -2.932233
     87          1           0        0.920242    0.128864   -4.356233
 ---------------------------------------------------------------------
 Rotational constants (GHZ):           0.0835798           0.0810540           0.0579906
 Standard basis: def2TZVP (5D, 7F)
 There are  1894 symmetry adapted cartesian basis functions of A   symmetry.
 There are  1667 symmetry adapted basis functions of A   symmetry.
  1667 basis functions,  2700 primitive gaussians,  1894 cartesian basis functions
   174 alpha electrons      174 beta electrons
       nuclear repulsion energy      7154.9883753198 Hartrees.
 NAtoms=   87 NActive=   87 NUniq=   87 SFac= 1.00D+00 NAtFMM=   60 NAOKFM=T Big=T
 Integral buffers will be    131072 words long.
 Raffenetti 2 integral format.
 Two-electron integral symmetry is turned on.
 R6APFD:  NTU= -4 IXU= 1 FactS= 1.050
 Nuclear repulsion after empirical dispersion term =     7154.8046386403 Hartrees.
 One-electron integrals computed using PRISM.
   1 Symmetry operations used in ECPInt.
 ECPInt:  NShTT=  224115 NPrTT=  692067 LenC2=  178290 LenP2D=  363133.
 LDataN:  DoStor=T MaxTD1= 6 Len=  172
 Number of processors reduced to  21 by ecpmxn.
 NBasis=  1667 RedAO= T EigKep=  3.41D-06  NBF=  1667
 NBsUse=  1667 1.00D-06 EigRej= -1.00D+00 NBFU=  1667
 ExpMin= 4.20D-02 ExpMax= 3.01D+05 ExpMxC= 2.91D+03 IAcc=3 IRadAn=         5 AccDes= 0.00D+00
 Harris functional with IExCor= 3731 and IRadAn=       5 diagonalized for initial guess.
 HarFok:  IExCor= 3731 AccDes= 0.00D+00 IRadAn=         5 IDoV= 1 UseB2=F ITyADJ=14
 ICtDFT=  3500011 ScaDFX=  1.000000  1.000000  1.000000  1.000000
 FoFCou: FMM=F IPFlag=           0 FMFlag=      100000 FMFlg1=        2001
         NFxFlg=           0 DoJE=T BraDBF=F KetDBF=T FulRan=T
         wScrn=  0.000000 ICntrl=       500 IOpCl=  0 I1Cent=   200000004 NGrid=           0
         NMat0=    1 NMatS0=      1 NMatT0=    0 NMatD0=    1 NMtDS0=    0 NMtDT0=    0
 Petite list used in FoFCou.
 Requested convergence on RMS density matrix=1.00D-08 within 128 cycles.
 Requested convergence on MAX density matrix=1.00D-06.
 Requested convergence on             energy=1.00D-06.
 No special actions if energy rises.
 EnCoef did     2 forward-backward iterations
 EnCoef did   100 forward-backward iterations
 EnCoef did   100 forward-backward iterations
 EnCoef did   100 forward-backward iterations
 EnCoef did     4 forward-backward iterations
 EnCoef did     2 forward-backward iterations
 EnCoef did     2 forward-backward iterations
 EnCoef did     2 forward-backward iterations
 EnCoef did     1 forward-backward iterations
 Restarting incremental Fock formation.
 SCF Done:  E(RAPFD) =  -3424.85080257     A.U. after   27 cycles
            NFock= 27  Conv=0.30D-08     -V/T= 2.0033
 DoSCS=F DFT=T ScalE2(SS,OS)=  1.000000  1.000000
 Range of M.O.s used for correlation:     1  1667
 NBasis=  1667 NAE=   174 NBE=   174 NFC=     0 NFV=     0
 NROrb=   1667 NOA=   174 NOB=   174 NVA=  1493 NVB=  1493

 **** Warning!!: The largest alpha MO coefficient is  0.42580198D+02

          Differentiating once with respect to electric field.
                with respect to dipole field.
          Electric field/nuclear overlap derivatives assumed to be zero.
          There are     3 degrees of freedom in the 1st order CPHF.  IDoFFX=0 NUNeed=     3.
      3 vectors produced by pass  0 Test12= 8.66D-12 3.33D-08 XBig12= 1.89D+03 2.07D+01.
 AX will form     3 AO Fock derivatives at one time.
      3 vectors produced by pass  1 Test12= 8.66D-12 3.33D-08 XBig12= 1.36D+03 6.71D+00.
      3 vectors produced by pass  2 Test12= 8.66D-12 3.33D-08 XBig12= 4.16D+02 2.31D+00.
      3 vectors produced by pass  3 Test12= 8.66D-12 3.33D-08 XBig12= 3.91D+02 4.46D+00.
      3 vectors produced by pass  4 Test12= 8.66D-12 3.33D-08 XBig12= 2.35D+02 2.77D+00.
      3 vectors produced by pass  5 Test12= 8.66D-12 3.33D-08 XBig12= 1.12D+02 2.70D+00.
      3 vectors produced by pass  6 Test12= 8.66D-12 3.33D-08 XBig12= 5.83D+01 2.27D+00.
      3 vectors produced by pass  7 Test12= 8.66D-12 3.33D-08 XBig12= 3.45D+01 1.41D+00.
      3 vectors produced by pass  8 Test12= 8.66D-12 3.33D-08 XBig12= 1.72D+01 6.99D-01.
      3 vectors produced by pass  9 Test12= 8.66D-12 3.33D-08 XBig12= 7.02D+00 4.68D-01.
      3 vectors produced by pass 10 Test12= 8.66D-12 3.33D-08 XBig12= 2.63D+00 3.28D-01.
      3 vectors produced by pass 11 Test12= 8.66D-12 3.33D-08 XBig12= 1.58D+00 2.31D-01.
      3 vectors produced by pass 12 Test12= 8.66D-12 3.33D-08 XBig12= 6.45D-01 2.03D-01.
      3 vectors produced by pass 13 Test12= 8.66D-12 3.33D-08 XBig12= 2.62D-01 9.24D-02.
      3 vectors produced by pass 14 Test12= 8.66D-12 3.33D-08 XBig12= 8.38D-02 4.75D-02.
      3 vectors produced by pass 15 Test12= 8.66D-12 3.33D-08 XBig12= 2.68D-02 2.33D-02.
      3 vectors produced by pass 16 Test12= 8.66D-12 3.33D-08 XBig12= 6.96D-03 2.33D-02.
      3 vectors produced by pass 17 Test12= 8.66D-12 3.33D-08 XBig12= 1.67D-03 9.60D-03.
      3 vectors produced by pass 18 Test12= 8.66D-12 3.33D-08 XBig12= 6.09D-04 7.11D-03.
      3 vectors produced by pass 19 Test12= 8.66D-12 3.33D-08 XBig12= 1.06D-04 2.30D-03.
      3 vectors produced by pass 20 Test12= 8.66D-12 3.33D-08 XBig12= 2.75D-05 1.05D-03.
      3 vectors produced by pass 21 Test12= 8.66D-12 3.33D-08 XBig12= 6.21D-06 4.01D-04.
      3 vectors produced by pass 22 Test12= 8.66D-12 3.33D-08 XBig12= 1.56D-06 2.78D-04.
      3 vectors produced by pass 23 Test12= 8.66D-12 3.33D-08 XBig12= 3.13D-07 1.10D-04.
      3 vectors produced by pass 24 Test12= 8.66D-12 3.33D-08 XBig12= 7.72D-08 5.80D-05.
      3 vectors produced by pass 25 Test12= 8.66D-12 3.33D-08 XBig12= 1.68D-08 1.80D-05.
      3 vectors produced by pass 26 Test12= 8.66D-12 3.33D-08 XBig12= 3.14D-09 1.02D-05.
      3 vectors produced by pass 27 Test12= 8.66D-12 3.33D-08 XBig12= 6.06D-10 3.24D-06.
      3 vectors produced by pass 28 Test12= 8.66D-12 3.33D-08 XBig12= 1.05D-10 1.27D-06.
      3 vectors produced by pass 29 Test12= 8.66D-12 3.33D-08 XBig12= 1.74D-11 5.56D-07.
      3 vectors produced by pass 30 Test12= 8.66D-12 3.33D-08 XBig12= 1.66D-12 2.61D-07.
      3 vectors produced by pass 31 Test12= 8.66D-12 3.33D-08 XBig12= 4.31D-13 1.43D-07.
      2 vectors produced by pass 32 Test12= 8.66D-12 3.33D-08 XBig12= 6.55D-14 6.47D-08.
 InvSVY:  IOpt=1 It=  1 EMax= 1.42D-14
 Solved reduced A of dimension    98 with     3 vectors.
 Isotropic polarizability for W=    0.000000      612.24 Bohr**3.
 End of Minotr F.D. properties file   721 does not exist.
 End of Minotr F.D. properties file   722 does not exist.
 End of Minotr F.D. properties file   788 does not exist.

 **********************************************************************

            Population analysis using the SCF Density.

 **********************************************************************

 Orbital symmetries:
       Occupied  (A) (A) (A) (A) (A) (A) (A) (A) (A) (A) (A) (A)
                 (A) (A) (A) (A) (A) (A) (A) (A) (A) (A) (A) (A)
                 (A) (A) (A) (A) (A) (A) (A) (A) (A) (A) (A) (A)
                 (A) (A) (A) (A) (A) (A) (A) (A) (A) (A) (A) (A)
                 (A) (A) (A) (A) (A) (A) (A) (A) (A) (A) (A) (A)
                 (A) (A) (A) (A) (A) (A) (A) (A) (A) (A) (A) (A)
                 (A) (A) (A) (A) (A) (A) (A) (A) (A) (A) (A) (A)
                 (A) (A) (A) (A) (A) (A) (A) (A) (A) (A) (A) (A)
                 (A) (A) (A) (A) (A) (A) (A) (A) (A) (A) (A) (A)
                 (A) (A) (A) (A) (A) (A) (A) (A) (A) (A) (A) (A)
                 (A) (A) (A) (A) (A) (A) (A) (A) (A) (A) (A) (A)
                 (A) (A) (A) (A) (A) (A) (A) (A) (A) (A) (A) (A)
                 (A) (A) (A) (A) (A) (A) (A) (A) (A) (A) (A) (A)
                 (A) (A) (A) (A) (A) (A) (A) (A) (A) (A) (A) (A)
                 (A) (A) (A) (A) (A) (A)
       Virtual   (A) (A) (A) (A) (A) (A) (A) (A) (A) (A) (A) (A)
                 (A) (A) (A) (A) (A) (A) (A) (A) (A) (A) (A) (A)
                 (A) (A) (A) (A) (A) (A) (A) (A) (A) (A) (A) (A)
                 (A) (A) (A) (A) (A) (A) (A) (A) (A) (A) (A) (A)
                 (A) (A) (A) (A) (A) (A) (A) (A) (A) (A) (A) (A)
                 (A) (A) (A) (A) (A) (A) (A) (A) (A) (A) (A) (A)
                 (A) (A) (A) (A) (A) (A) (A) (A) (A) (A) (A) (A)
                 (A) (A) (A) (A) (A) (A) (A) (A) (A) (A) (A) (A)
                 (A) (A) (A) (A) (A) (A) (A) (A) (A) (A) (A) (A)
                 (A) (A) (A) (A) (A) (A) (A) (A) (A) (A) (A) (A)
                 (A) (A) (A) (A) (A) (A) (A) (A) (A) (A) (A) (A)
                 (A) (A) (A) (A) (A) (A) (A) (A) (A) (A) (A) (A)
                 (A) (A) (A) (A) (A) (A) (A) (A) (A) (A) (A) (A)
                 (A) (A) (A) (A) (A) (A) (A) (A) (A) (A) (A) (A)
                 (A) (A) (A) (A) (A) (A) (A) (A) (A) (A) (A) (A)
                 (A) (A) (A) (A) (A) (A) (A) (A) (A) (A) (A) (A)
                 (A) (A) (A) (A) (A) (A) (A) (A) (A) (A) (A) (A)
                 (A) (A) (A) (A) (A) (A) (A) (A) (A) (A) (A) (A)
                 (A) (A) (A) (A) (A) (A) (A) (A) (A) (A) (A) (A)
                 (A) (A) (A) (A) (A) (A) (A) (A) (A) (A) (A) (A)
                 (A) (A) (A) (A) (A) (A) (A) (A) (A) (A) (A) (A)
                 (A) (A) (A) (A) (A) (A) (A) (A) (A) (A) (A) (A)
                 (A) (A) (A) (A) (A) (A) (A) (A) (A) (A) (A) (A)
                 (A) (A) (A) (A) (A) (A) (A) (A) (A) (A) (A) (A)
                 (A) (A) (A) (A) (A) (A) (A) (A) (A) (A) (A) (A)
                 (A) (A) (A) (A) (A) (A) (A) (A) (A) (A) (A) (A)
                 (A) (A) (A) (A) (A) (A) (A) (A) (A) (A) (A) (A)
                 (A) (A) (A) (A) (A) (A) (A) (A) (A) (A) (A) (A)
                 (A) (A) (A) (A) (A) (A) (A) (A) (A) (A) (A) (A)
                 (A) (A) (A) (A) (A) (A) (A) (A) (A) (A) (A) (A)
                 (A) (A) (A) (A) (A) (A) (A) (A) (A) (A) (A) (A)
                 (A) (A) (A) (A) (A) (A) (A) (A) (A) (A) (A) (A)
                 (A) (A) (A) (A) (A) (A) (A) (A) (A) (A) (A) (A)
                 (A) (A) (A) (A) (A) (A) (A) (A) (A) (A) (A) (A)
                 (A) (A) (A) (A) (A) (A) (A) (A) (A) (A) (A) (A)
                 (A) (A) (A) (A) (A) (A) (A) (A) (A) (A) (A) (A)
                 (A) (A) (A) (A) (A) (A) (A) (A) (A) (A) (A) (A)
                 (A) (A) (A) (A) (A) (A) (A) (A) (A) (A) (A) (A)
                 (A) (A) (A) (A) (A) (A) (A) (A) (A) (A) (A) (A)
                 (A) (A) (A) (A) (A) (A) (A) (A) (A) (A) (A) (A)
                 (A) (A) (A) (A) (A) (A) (A) (A) (A) (A) (A) (A)
                 (A) (A) (A) (A) (A) (A) (A) (A) (A) (A) (A) (A)
                 (A) (A) (A) (A) (A) (A) (A) (A) (A) (A) (A) (A)
                 (A) (A) (A) (A) (A) (A) (A) (A) (A) (A) (A) (A)
                 (A) (A) (A) (A) (A) (A) (A) (A) (A) (A) (A) (A)
                 (A) (A) (A) (A) (A) (A) (A) (A) (A) (A) (A) (A)
                 (A) (A) (A) (A) (A) (A) (A) (A) (A) (A) (A) (A)
                 (A) (A) (A) (A) (A) (A) (A) (A) (A) (A) (A) (A)
                 (A) (A) (A) (A) (A) (A) (A) (A) (A) (A) (A) (A)
                 (A) (A) (A) (A) (A) (A) (A) (A) (A) (A) (A) (A)
                 (A) (A) (A) (A) (A) (A) (A) (A) (A) (A) (A) (A)
                 (A) (A) (A) (A) (A) (A) (A) (A) (A) (A) (A) (A)
                 (A) (A) (A) (A) (A) (A) (A) (A) (A) (A) (A) (A)
                 (A) (A) (A) (A) (A) (A) (A) (A) (A) (A) (A) (A)
                 (A) (A) (A) (A) (A) (A) (A) (A) (A) (A) (A) (A)
                 (A) (A) (A) (A) (A) (A) (A) (A) (A) (A) (A) (A)
                 (A) (A) (A) (A) (A) (A) (A) (A) (A) (A) (A) (A)
                 (A) (A) (A) (A) (A) (A) (A) (A) (A) (A) (A) (A)
                 (A) (A) (A) (A) (A) (A) (A) (A) (A) (A) (A) (A)
                 (A) (A) (A) (A) (A) (A) (A) (A) (A) (A) (A) (A)
                 (A) (A) (A) (A) (A) (A) (A) (A) (A) (A) (A) (A)
                 (A) (A) (A) (A) (A) (A) (A) (A) (A) (A) (A) (A)
                 (A) (A) (A) (A) (A) (A) (A) (A) (A) (A) (A) (A)
                 (A) (A) (A) (A) (A) (A) (A) (A) (A) (A) (A) (A)
                 (A) (A) (A) (A) (A) (A) (A) (A) (A) (A) (A) (A)
                 (A) (A) (A) (A) (A) (A) (A) (A) (A) (A) (A) (A)
                 (A) (A) (A) (A) (A) (A) (A) (A) (A) (A) (A) (A)
                 (A) (A) (A) (A) (A) (A) (A) (A) (A) (A) (A) (A)
                 (A) (A) (A) (A) (A) (A) (A) (A) (A) (A) (A) (A)
                 (A) (A) (A) (A) (A) (A) (A) (A) (A) (A) (A) (A)
                 (A) (A) (A) (A) (A) (A) (A) (A) (A) (A) (A) (A)
                 (A) (A) (A) (A) (A) (A) (A) (A) (A) (A) (A) (A)
                 (A) (A) (A) (A) (A) (A) (A) (A) (A) (A) (A) (A)
                 (A) (A) (A) (A) (A) (A) (A) (A) (A) (A) (A) (A)
                 (A) (A) (A) (A) (A) (A) (A) (A) (A) (A) (A) (A)
                 (A) (A) (A) (A) (A) (A) (A) (A) (A) (A) (A) (A)
                 (A) (A) (A) (A) (A) (A) (A) (A) (A) (A) (A) (A)
                 (A) (A) (A) (A) (A) (A) (A) (A) (A) (A) (A) (A)
                 (A) (A) (A) (A) (A) (A) (A) (A) (A) (A) (A) (A)
                 (A) (A) (A) (A) (A) (A) (A) (A) (A) (A) (A) (A)
                 (A) (A) (A) (A) (A) (A) (A) (A) (A) (A) (A) (A)
                 (A) (A) (A) (A) (A) (A) (A) (A) (A) (A) (A) (A)
                 (A) (A) (A) (A) (A) (A) (A) (A) (A) (A) (A) (A)
                 (A) (A) (A) (A) (A) (A) (A) (A) (A) (A) (A) (A)
                 (A) (A) (A) (A) (A) (A) (A) (A) (A) (A) (A) (A)
                 (A) (A) (A) (A) (A) (A) (A) (A) (A) (A) (A) (A)
                 (A) (A) (A) (A) (A) (A) (A) (A) (A) (A) (A) (A)
                 (A) (A) (A) (A) (A) (A) (A) (A) (A) (A) (A) (A)
                 (A) (A) (A) (A) (A) (A) (A) (A) (A) (A) (A) (A)
                 (A) (A) (A) (A) (A) (A) (A) (A) (A) (A) (A) (A)
                 (A) (A) (A) (A) (A) (A) (A) (A) (A) (A) (A) (A)
                 (A) (A) (A) (A) (A) (A) (A) (A) (A) (A) (A) (A)
                 (A) (A) (A) (A) (A) (A) (A) (A) (A) (A) (A) (A)
                 (A) (A) (A) (A) (A) (A) (A) (A) (A) (A) (A) (A)
                 (A) (A) (A) (A) (A) (A) (A) (A) (A) (A) (A) (A)
                 (A) (A) (A) (A) (A) (A) (A) (A) (A) (A) (A) (A)
                 (A) (A) (A) (A) (A) (A) (A) (A) (A) (A) (A) (A)
                 (A) (A) (A) (A) (A) (A) (A) (A) (A) (A) (A) (A)
                 (A) (A) (A) (A) (A) (A) (A) (A) (A) (A) (A) (A)
                 (A) (A) (A) (A) (A) (A) (A) (A) (A) (A) (A) (A)
                 (A) (A) (A) (A) (A) (A) (A) (A) (A) (A) (A) (A)
                 (A) (A) (A) (A) (A) (A) (A) (A) (A) (A) (A) (A)
                 (A) (A) (A) (A) (A) (A) (A) (A) (A) (A) (A) (A)
                 (A) (A) (A) (A) (A) (A) (A) (A) (A) (A) (A) (A)
                 (A) (A) (A) (A) (A) (A) (A) (A) (A) (A) (A) (A)
                 (A) (A) (A) (A) (A) (A) (A) (A) (A) (A) (A) (A)
                 (A) (A) (A) (A) (A) (A) (A) (A) (A) (A) (A) (A)
                 (A) (A) (A) (A) (A) (A) (A) (A) (A) (A) (A) (A)
                 (A) (A) (A) (A) (A) (A) (A) (A) (A) (A) (A) (A)
                 (A) (A) (A) (A) (A) (A) (A) (A) (A) (A) (A) (A)
                 (A) (A) (A) (A) (A) (A) (A) (A) (A) (A) (A) (A)
                 (A) (A) (A) (A) (A) (A) (A) (A) (A) (A) (A) (A)
                 (A) (A) (A) (A) (A) (A) (A) (A) (A) (A) (A) (A)
                 (A) (A) (A) (A) (A) (A) (A) (A) (A) (A) (A) (A)
                 (A) (A) (A) (A) (A) (A) (A) (A) (A) (A) (A) (A)
                 (A) (A) (A) (A) (A) (A) (A) (A) (A) (A) (A) (A)
                 (A) (A) (A) (A) (A) (A) (A) (A) (A) (A) (A) (A)
                 (A) (A) (A) (A) (A) (A) (A) (A) (A) (A) (A) (A)
                 (A) (A) (A) (A) (A) (A) (A) (A) (A) (A) (A) (A)
                 (A) (A) (A) (A) (A) (A) (A) (A) (A) (A) (A) (A)
                 (A) (A) (A) (A) (A) (A) (A) (A) (A) (A) (A) (A)
                 (A) (A) (A) (A) (A) (A) (A) (A) (A) (A) (A) (A)
                 (A) (A) (A) (A) (A) (A) (A) (A) (A) (A) (A) (A)
                 (A) (A) (A) (A) (A) (A) (A) (A) (A) (A) (A) (A)
                 (A) (A) (A) (A) (A)
 The electronic state is 1-A.
 Alpha  occ. eigenvalues -- -256.17466 -88.93988 -30.02584 -25.86712 -25.86356
 Alpha  occ. eigenvalues --  -25.86323 -14.41496 -14.35930 -14.33196 -14.33168
 Alpha  occ. eigenvalues --  -14.33095 -14.33011 -10.25147 -10.23470 -10.20940
 Alpha  occ. eigenvalues --  -10.20934 -10.20871 -10.20808 -10.20806 -10.20690
 Alpha  occ. eigenvalues --  -10.20669 -10.20626 -10.20610 -10.20568 -10.20546
 Alpha  occ. eigenvalues --  -10.20142 -10.19573 -10.19560 -10.18954 -10.18953
 Alpha  occ. eigenvalues --  -10.18673 -10.18620 -10.18598 -10.18536 -10.18532
 Alpha  occ. eigenvalues --  -10.18493 -10.18487 -10.18463 -10.18446 -10.18378
 Alpha  occ. eigenvalues --  -10.18371 -10.18365 -10.18332 -10.18300 -10.18277
 Alpha  occ. eigenvalues --  -10.18223 -10.18167 -10.18108 -10.17421  -7.96653
 Alpha  occ. eigenvalues --   -5.91246  -5.90953  -5.90421  -3.39993  -2.16558
 Alpha  occ. eigenvalues --   -2.15884  -2.15832  -1.05105  -0.96913  -0.95985
 Alpha  occ. eigenvalues --   -0.95879  -0.94958  -0.90675  -0.82195  -0.81889
 Alpha  occ. eigenvalues --   -0.81527  -0.81396  -0.80640  -0.80289  -0.80042
 Alpha  occ. eigenvalues --   -0.79523  -0.79463  -0.76691  -0.75663  -0.74603
 Alpha  occ. eigenvalues --   -0.74215  -0.73866  -0.73077  -0.71637  -0.70929
 Alpha  occ. eigenvalues --   -0.70085  -0.68160  -0.67814  -0.67756  -0.64952
 Alpha  occ. eigenvalues --   -0.64349  -0.64061  -0.63999  -0.61100  -0.60564
 Alpha  occ. eigenvalues --   -0.59980  -0.58691  -0.57728  -0.56565  -0.55772
 Alpha  occ. eigenvalues --   -0.54389  -0.53584  -0.53291  -0.52537  -0.51026
 Alpha  occ. eigenvalues --   -0.50979  -0.50485  -0.48683  -0.47861  -0.47680
 Alpha  occ. eigenvalues --   -0.47409  -0.47183  -0.46857  -0.44895  -0.44862
 Alpha  occ. eigenvalues --   -0.44479  -0.44421  -0.44278  -0.43682  -0.43613
 Alpha  occ. eigenvalues --   -0.43437  -0.43258  -0.43076  -0.42994  -0.42970
 Alpha  occ. eigenvalues --   -0.42544  -0.42401  -0.42303  -0.42270  -0.41878
 Alpha  occ. eigenvalues --   -0.41663  -0.41538  -0.41391  -0.41237  -0.40202
 Alpha  occ. eigenvalues --   -0.40096  -0.40031  -0.39527  -0.39373  -0.39155
 Alpha  occ. eigenvalues --   -0.38973  -0.38520  -0.38266  -0.37888  -0.37715
 Alpha  occ. eigenvalues --   -0.37420  -0.37122  -0.36879  -0.36431  -0.36119
 Alpha  occ. eigenvalues --   -0.35872  -0.35624  -0.35195  -0.34419  -0.34037
 Alpha  occ. eigenvalues --   -0.33995  -0.33702  -0.33201  -0.32147  -0.31691
 Alpha  occ. eigenvalues --   -0.31330  -0.30695  -0.30385  -0.29214  -0.29065
 Alpha  occ. eigenvalues --   -0.28680  -0.26734  -0.26607  -0.24806  -0.24283
 Alpha  occ. eigenvalues --   -0.23770  -0.22871  -0.22267  -0.22002  -0.19156
 Alpha  occ. eigenvalues --   -0.17954  -0.17851  -0.17674  -0.17498
 Alpha virt. eigenvalues --   -0.06549  -0.06416  -0.01975   0.00536   0.01716
 Alpha virt. eigenvalues --    0.02034   0.02252   0.03275   0.03594   0.04058
 Alpha virt. eigenvalues --    0.04822   0.05018   0.05271   0.05697   0.05815
 Alpha virt. eigenvalues --    0.06015   0.06585   0.06696   0.07042   0.07819
 Alpha virt. eigenvalues --    0.07921   0.08175   0.08350   0.08684   0.08959
 Alpha virt. eigenvalues --    0.09232   0.09633   0.09734   0.09927   0.10408
 Alpha virt. eigenvalues --    0.10797   0.11011   0.11364   0.11552   0.11582
 Alpha virt. eigenvalues --    0.12016   0.12132   0.12261   0.12444   0.12743
 Alpha virt. eigenvalues --    0.13027   0.13282   0.13423   0.13477   0.13580
 Alpha virt. eigenvalues --    0.13993   0.14120   0.14521   0.14587   0.14641
 Alpha virt. eigenvalues --    0.14789   0.15097   0.15284   0.15291   0.15480
 Alpha virt. eigenvalues --    0.15722   0.15903   0.16047   0.16220   0.16329
 Alpha virt. eigenvalues --    0.16640   0.17042   0.17314   0.17387   0.17509
 Alpha virt. eigenvalues --    0.17783   0.17954   0.18149   0.18400   0.18612
 Alpha virt. eigenvalues --    0.18920   0.19364   0.19844   0.20056   0.20198
 Alpha virt. eigenvalues --    0.20442   0.20692   0.20871   0.21039   0.21260
 Alpha virt. eigenvalues --    0.21684   0.21999   0.22308   0.22417   0.22686
 Alpha virt. eigenvalues --    0.22952   0.23345   0.23571   0.23715   0.24190
 Alpha virt. eigenvalues --    0.24490   0.24980   0.25025   0.25622   0.25762
 Alpha virt. eigenvalues --    0.25796   0.26020   0.26067   0.26415   0.26862
 Alpha virt. eigenvalues --    0.27092   0.27235   0.27284   0.27888   0.28003
 Alpha virt. eigenvalues --    0.28564   0.28702   0.28748   0.28845   0.29132
 Alpha virt. eigenvalues --    0.29540   0.29652   0.29966   0.30081   0.30480
 Alpha virt. eigenvalues --    0.30837   0.30889   0.30930   0.31100   0.31573
 Alpha virt. eigenvalues --    0.31849   0.32188   0.32382   0.32714   0.32857
 Alpha virt. eigenvalues --    0.33061   0.33209   0.33444   0.34124   0.34240
 Alpha virt. eigenvalues --    0.34504   0.34712   0.34963   0.35225   0.35507
 Alpha virt. eigenvalues --    0.35991   0.36253   0.36425   0.36819   0.37208
 Alpha virt. eigenvalues --    0.37513   0.37558   0.37818   0.37912   0.38220
 Alpha virt. eigenvalues --    0.38362   0.38527   0.38665   0.39099   0.39299
 Alpha virt. eigenvalues --    0.39653   0.39768   0.39949   0.40232   0.40386
 Alpha virt. eigenvalues --    0.40678   0.40805   0.40989   0.41142   0.41345
 Alpha virt. eigenvalues --    0.41506   0.41724   0.41825   0.42082   0.42260
 Alpha virt. eigenvalues --    0.42455   0.42785   0.43104   0.43473   0.43620
 Alpha virt. eigenvalues --    0.43647   0.43860   0.44034   0.44140   0.44328
 Alpha virt. eigenvalues --    0.44476   0.44798   0.44915   0.45196   0.45408
 Alpha virt. eigenvalues --    0.45503   0.45821   0.46228   0.46333   0.46343
 Alpha virt. eigenvalues --    0.46644   0.46980   0.47127   0.47312   0.47460
 Alpha virt. eigenvalues --    0.47556   0.47670   0.47757   0.47846   0.48112
 Alpha virt. eigenvalues --    0.48360   0.48396   0.48654   0.48972   0.49365
 Alpha virt. eigenvalues --    0.49438   0.49525   0.49664   0.49783   0.49970
 Alpha virt. eigenvalues --    0.50239   0.50307   0.50606   0.50824   0.50930
 Alpha virt. eigenvalues --    0.51189   0.51269   0.51636   0.51749   0.51996
 Alpha virt. eigenvalues --    0.52127   0.52387   0.52557   0.52836   0.53048
 Alpha virt. eigenvalues --    0.53275   0.53404   0.53599   0.53842   0.53949
 Alpha virt. eigenvalues --    0.54162   0.54576   0.54808   0.55006   0.55189
 Alpha virt. eigenvalues --    0.55747   0.55882   0.56086   0.56295   0.56700
 Alpha virt. eigenvalues --    0.56796   0.57055   0.57261   0.57516   0.57735
 Alpha virt. eigenvalues --    0.57786   0.58076   0.58289   0.58871   0.58903
 Alpha virt. eigenvalues --    0.59518   0.59895   0.59995   0.60157   0.60641
 Alpha virt. eigenvalues --    0.60731   0.61167   0.61265   0.61821   0.62054
 Alpha virt. eigenvalues --    0.62840   0.63052   0.63287   0.63518   0.63606
 Alpha virt. eigenvalues --    0.63717   0.63832   0.64326   0.64893   0.65018
 Alpha virt. eigenvalues --    0.65110   0.65359   0.65667   0.65961   0.65996
 Alpha virt. eigenvalues --    0.66425   0.66542   0.67000   0.67324   0.67952
 Alpha virt. eigenvalues --    0.67989   0.68195   0.68726   0.69179   0.69201
 Alpha virt. eigenvalues --    0.69913   0.69998   0.70195   0.70831   0.71077
 Alpha virt. eigenvalues --    0.71380   0.71797   0.72029   0.72137   0.72458
 Alpha virt. eigenvalues --    0.72583   0.72896   0.73429   0.73744   0.74137
 Alpha virt. eigenvalues --    0.74160   0.74617   0.74834   0.75260   0.75692
 Alpha virt. eigenvalues --    0.76141   0.76161   0.76811   0.77138   0.77508
 Alpha virt. eigenvalues --    0.77708   0.77915   0.78280   0.78300   0.78600
 Alpha virt. eigenvalues --    0.78980   0.79251   0.79871   0.80012   0.80189
 Alpha virt. eigenvalues --    0.80386   0.80725   0.81311   0.81451   0.81616
 Alpha virt. eigenvalues --    0.82008   0.82233   0.82599   0.83044   0.83395
 Alpha virt. eigenvalues --    0.83826   0.84207   0.84903   0.84971   0.85526
 Alpha virt. eigenvalues --    0.85645   0.86003   0.86431   0.86777   0.87110
 Alpha virt. eigenvalues --    0.87388   0.87515   0.88066   0.88827   0.89114
 Alpha virt. eigenvalues --    0.89562   0.89819   0.89884   0.90174   0.90563
 Alpha virt. eigenvalues --    0.90948   0.91142   0.91355   0.91760   0.92644
 Alpha virt. eigenvalues --    0.92766   0.92903   0.93022   0.93390   0.93918
 Alpha virt. eigenvalues --    0.94072   0.94142   0.94576   0.94849   0.95148
 Alpha virt. eigenvalues --    0.95439   0.95773   0.96041   0.96409   0.96832
 Alpha virt. eigenvalues --    0.96889   0.97242   0.97738   0.98013   0.98371
 Alpha virt. eigenvalues --    0.98717   0.98937   0.99140   0.99753   0.99944
 Alpha virt. eigenvalues --    1.00206   1.00720   1.01113   1.01301   1.01689
 Alpha virt. eigenvalues --    1.01761   1.02196   1.02453   1.02611   1.03233
 Alpha virt. eigenvalues --    1.03321   1.03616   1.03798   1.04045   1.04385
 Alpha virt. eigenvalues --    1.04816   1.05014   1.05450   1.05622   1.05965
 Alpha virt. eigenvalues --    1.06133   1.06696   1.07154   1.07446   1.07785
 Alpha virt. eigenvalues --    1.08479   1.08594   1.08753   1.09525   1.09703
 Alpha virt. eigenvalues --    1.09730   1.10425   1.11053   1.11367   1.11611
 Alpha virt. eigenvalues --    1.11938   1.12094   1.12437   1.13048   1.13563
 Alpha virt. eigenvalues --    1.13913   1.14246   1.14343   1.14546   1.14873
 Alpha virt. eigenvalues --    1.15110   1.15612   1.16301   1.16712   1.16903
 Alpha virt. eigenvalues --    1.17211   1.17452   1.17873   1.18524   1.18849
 Alpha virt. eigenvalues --    1.19253   1.19508   1.20057   1.20331   1.20410
 Alpha virt. eigenvalues --    1.20722   1.21034   1.21084   1.21757   1.22306
 Alpha virt. eigenvalues --    1.22410   1.23196   1.23322   1.23549   1.23839
 Alpha virt. eigenvalues --    1.24102   1.24792   1.25583   1.26043   1.26594
 Alpha virt. eigenvalues --    1.26713   1.26947   1.27350   1.27733   1.28112
 Alpha virt. eigenvalues --    1.28304   1.28868   1.29086   1.29317   1.29729
 Alpha virt. eigenvalues --    1.30038   1.30141   1.30602   1.31007   1.31315
 Alpha virt. eigenvalues --    1.31710   1.31874   1.32363   1.33125   1.33579
 Alpha virt. eigenvalues --    1.33810   1.34494   1.34756   1.35282   1.35991
 Alpha virt. eigenvalues --    1.36280   1.37017   1.37241   1.37891   1.38113
 Alpha virt. eigenvalues --    1.38935   1.39353   1.39568   1.40506   1.40871
 Alpha virt. eigenvalues --    1.41482   1.41749   1.42341   1.42683   1.43031
 Alpha virt. eigenvalues --    1.43591   1.43957   1.44871   1.45388   1.45542
 Alpha virt. eigenvalues --    1.46611   1.47116   1.47285   1.47556   1.47789
 Alpha virt. eigenvalues --    1.48182   1.48399   1.48606   1.49088   1.49202
 Alpha virt. eigenvalues --    1.49713   1.49884   1.50446   1.50593   1.51089
 Alpha virt. eigenvalues --    1.51177   1.51630   1.51944   1.52150   1.52309
 Alpha virt. eigenvalues --    1.52434   1.52613   1.52860   1.53239   1.53360
 Alpha virt. eigenvalues --    1.53671   1.53976   1.54313   1.54546   1.54911
 Alpha virt. eigenvalues --    1.55324   1.55553   1.55728   1.55876   1.56072
 Alpha virt. eigenvalues --    1.56333   1.56514   1.56944   1.57084   1.57255
 Alpha virt. eigenvalues --    1.57693   1.57834   1.58025   1.58296   1.58563
 Alpha virt. eigenvalues --    1.58760   1.59152   1.59529   1.59767   1.59991
 Alpha virt. eigenvalues --    1.60401   1.60630   1.60970   1.61150   1.61621
 Alpha virt. eigenvalues --    1.61846   1.62140   1.62332   1.62611   1.62656
 Alpha virt. eigenvalues --    1.62895   1.63324   1.63728   1.63928   1.64535
 Alpha virt. eigenvalues --    1.64734   1.64960   1.65228   1.65442   1.65755
 Alpha virt. eigenvalues --    1.66065   1.66447   1.66698   1.67046   1.67234
 Alpha virt. eigenvalues --    1.67465   1.67835   1.68138   1.68337   1.68778
 Alpha virt. eigenvalues --    1.69057   1.69186   1.69614   1.69814   1.70321
 Alpha virt. eigenvalues --    1.70621   1.71117   1.71312   1.71484   1.71816
 Alpha virt. eigenvalues --    1.72151   1.72426   1.72682   1.73076   1.73463
 Alpha virt. eigenvalues --    1.73818   1.73857   1.74103   1.74458   1.75011
 Alpha virt. eigenvalues --    1.75208   1.75517   1.76468   1.76725   1.77211
 Alpha virt. eigenvalues --    1.77608   1.77842   1.78318   1.78845   1.79331
 Alpha virt. eigenvalues --    1.79886   1.79918   1.80711   1.81194   1.81381
 Alpha virt. eigenvalues --    1.82316   1.82755   1.83017   1.83255   1.83881
 Alpha virt. eigenvalues --    1.84115   1.85010   1.85359   1.85572   1.85823
 Alpha virt. eigenvalues --    1.86065   1.86694   1.86815   1.87246   1.87522
 Alpha virt. eigenvalues --    1.87964   1.88124   1.88580   1.89051   1.89176
 Alpha virt. eigenvalues --    1.89570   1.90221   1.90399   1.90821   1.90950
 Alpha virt. eigenvalues --    1.91617   1.91977   1.92718   1.92902   1.93474
 Alpha virt. eigenvalues --    1.94221   1.94635   1.94719   1.95365   1.95990
 Alpha virt. eigenvalues --    1.96571   1.96905   1.96943   1.97543   1.97746
 Alpha virt. eigenvalues --    1.98273   1.98574   1.98819   1.99329   1.99623
 Alpha virt. eigenvalues --    1.99996   2.00343   2.00590   2.01409   2.01545
 Alpha virt. eigenvalues --    2.02278   2.02531   2.02935   2.03169   2.03510
 Alpha virt. eigenvalues --    2.04301   2.04479   2.04716   2.05584   2.05856
 Alpha virt. eigenvalues --    2.06501   2.07192   2.07655   2.07797   2.08619
 Alpha virt. eigenvalues --    2.08831   2.09394   2.10036   2.10251   2.10529
 Alpha virt. eigenvalues --    2.10915   2.11265   2.11782   2.12103   2.12215
 Alpha virt. eigenvalues --    2.12370   2.12929   2.13441   2.13561   2.14197
 Alpha virt. eigenvalues --    2.14430   2.14902   2.15841   2.16061   2.16315
 Alpha virt. eigenvalues --    2.16538   2.16869   2.17031   2.18005   2.18267
 Alpha virt. eigenvalues --    2.18760   2.18940   2.19261   2.19798   2.20341
 Alpha virt. eigenvalues --    2.20568   2.21089   2.21153   2.21470   2.22046
 Alpha virt. eigenvalues --    2.22200   2.22361   2.22820   2.23013   2.23554
 Alpha virt. eigenvalues --    2.24177   2.24827   2.25393   2.25712   2.26155
 Alpha virt. eigenvalues --    2.26498   2.26934   2.27466   2.28097   2.28359
 Alpha virt. eigenvalues --    2.28723   2.29142   2.29272   2.29485   2.30377
 Alpha virt. eigenvalues --    2.30727   2.30884   2.31304   2.31829   2.32156
 Alpha virt. eigenvalues --    2.32451   2.32852   2.33286   2.33360   2.34410
 Alpha virt. eigenvalues --    2.34770   2.35091   2.35405   2.36081   2.36278
 Alpha virt. eigenvalues --    2.36536   2.37060   2.37198   2.37479   2.37594
 Alpha virt. eigenvalues --    2.37917   2.37977   2.38488   2.39408   2.39637
 Alpha virt. eigenvalues --    2.39943   2.40259   2.41057   2.41771   2.41873
 Alpha virt. eigenvalues --    2.42716   2.42853   2.43508   2.43695   2.44296
 Alpha virt. eigenvalues --    2.44624   2.44732   2.45050   2.45439   2.45992
 Alpha virt. eigenvalues --    2.46382   2.46506   2.46837   2.46957   2.47689
 Alpha virt. eigenvalues --    2.47864   2.48317   2.48715   2.48912   2.49369
 Alpha virt. eigenvalues --    2.50012   2.50351   2.50689   2.51127   2.51566
 Alpha virt. eigenvalues --    2.51967   2.51981   2.52419   2.52608   2.53458
 Alpha virt. eigenvalues --    2.53823   2.53998   2.54195   2.54702   2.54753
 Alpha virt. eigenvalues --    2.55402   2.56082   2.56552   2.56727   2.56919
 Alpha virt. eigenvalues --    2.57146   2.57353   2.57844   2.57886   2.58216
 Alpha virt. eigenvalues --    2.58804   2.59244   2.59355   2.59876   2.59941
 Alpha virt. eigenvalues --    2.60340   2.60791   2.60947   2.61559   2.61660
 Alpha virt. eigenvalues --    2.61830   2.62095   2.62475   2.62833   2.63655
 Alpha virt. eigenvalues --    2.63926   2.64224   2.64354   2.64823   2.64964
 Alpha virt. eigenvalues --    2.65477   2.65709   2.66111   2.66308   2.66983
 Alpha virt. eigenvalues --    2.67049   2.67391   2.67968   2.68374   2.68447
 Alpha virt. eigenvalues --    2.69104   2.69451   2.69767   2.69991   2.70361
 Alpha virt. eigenvalues --    2.70605   2.71131   2.71360   2.71915   2.72238
 Alpha virt. eigenvalues --    2.72496   2.72692   2.73041   2.73315   2.73920
 Alpha virt. eigenvalues --    2.74327   2.74701   2.75091   2.75520   2.75764
 Alpha virt. eigenvalues --    2.75991   2.76639   2.77073   2.77635   2.77931
 Alpha virt. eigenvalues --    2.78137   2.78792   2.79128   2.79685   2.79941
 Alpha virt. eigenvalues --    2.80188   2.80616   2.81340   2.81557   2.81821
 Alpha virt. eigenvalues --    2.82390   2.82686   2.83158   2.83364   2.83612
 Alpha virt. eigenvalues --    2.83912   2.84423   2.84818   2.85205   2.85627
 Alpha virt. eigenvalues --    2.85807   2.86168   2.86724   2.86927   2.87439
 Alpha virt. eigenvalues --    2.87862   2.88266   2.88358   2.88781   2.89399
 Alpha virt. eigenvalues --    2.90253   2.90480   2.90682   2.91002   2.91139
 Alpha virt. eigenvalues --    2.91607   2.92294   2.92681   2.93371   2.93513
 Alpha virt. eigenvalues --    2.93855   2.94138   2.94800   2.94928   2.94952
 Alpha virt. eigenvalues --    2.95361   2.95823   2.96250   2.96452   2.96752
 Alpha virt. eigenvalues --    2.96972   2.97413   2.97570   2.97859   2.98387
 Alpha virt. eigenvalues --    2.98672   2.98764   2.99376   2.99919   3.00116
 Alpha virt. eigenvalues --    3.00230   3.00610   3.01010   3.01238   3.01346
 Alpha virt. eigenvalues --    3.02002   3.02210   3.02417   3.02893   3.03282
 Alpha virt. eigenvalues --    3.03481   3.03836   3.04844   3.05079   3.05478
 Alpha virt. eigenvalues --    3.06270   3.06548   3.06704   3.07122   3.07505
 Alpha virt. eigenvalues --    3.07793   3.08671   3.08808   3.08863   3.09647
 Alpha virt. eigenvalues --    3.09696   3.10063   3.10135   3.10310   3.10990
 Alpha virt. eigenvalues --    3.11228   3.11600   3.11661   3.11819   3.12757
 Alpha virt. eigenvalues --    3.12927   3.13112   3.13380   3.13429   3.13994
 Alpha virt. eigenvalues --    3.14161   3.14340   3.15059   3.15186   3.15569
 Alpha virt. eigenvalues --    3.15687   3.16068   3.16805   3.16942   3.17144
 Alpha virt. eigenvalues --    3.17431   3.17760   3.17772   3.18278   3.18341
 Alpha virt. eigenvalues --    3.18988   3.19158   3.19177   3.19583   3.19650
 Alpha virt. eigenvalues --    3.20234   3.20272   3.20826   3.21085   3.21775
 Alpha virt. eigenvalues --    3.21962   3.22098   3.22337   3.22395   3.22612
 Alpha virt. eigenvalues --    3.23416   3.23862   3.24034   3.24387   3.24527
 Alpha virt. eigenvalues --    3.24818   3.24944   3.25100   3.25318   3.25708
 Alpha virt. eigenvalues --    3.25962   3.26368   3.26797   3.26898   3.27401
 Alpha virt. eigenvalues --    3.27541   3.27667   3.27883   3.28180   3.28402
 Alpha virt. eigenvalues --    3.28623   3.28848   3.29234   3.29467   3.29577
 Alpha virt. eigenvalues --    3.29820   3.30153   3.30679   3.30707   3.30847
 Alpha virt. eigenvalues --    3.31212   3.31341   3.31503   3.32009   3.32093
 Alpha virt. eigenvalues --    3.32273   3.32541   3.33153   3.33532   3.33986
 Alpha virt. eigenvalues --    3.34083   3.34317   3.34778   3.35225   3.35413
 Alpha virt. eigenvalues --    3.35526   3.35753   3.35868   3.36318   3.36724
 Alpha virt. eigenvalues --    3.36882   3.36932   3.37368   3.37664   3.37794
 Alpha virt. eigenvalues --    3.38147   3.38257   3.38528   3.38778   3.39296
 Alpha virt. eigenvalues --    3.39490   3.39597   3.39935   3.40256   3.40315
 Alpha virt. eigenvalues --    3.40638   3.41123   3.41284   3.41517   3.42051
 Alpha virt. eigenvalues --    3.42253   3.42631   3.42841   3.43452   3.43760
 Alpha virt. eigenvalues --    3.44035   3.44387   3.44499   3.44813   3.45029
 Alpha virt. eigenvalues --    3.45569   3.46059   3.46510   3.46629   3.46801
 Alpha virt. eigenvalues --    3.47691   3.47828   3.48504   3.48637   3.48946
 Alpha virt. eigenvalues --    3.49381   3.49924   3.50455   3.50957   3.51284
 Alpha virt. eigenvalues --    3.51463   3.51556   3.52184   3.52631   3.53132
 Alpha virt. eigenvalues --    3.53381   3.54223   3.55018   3.55275   3.55529
 Alpha virt. eigenvalues --    3.55809   3.56073   3.56448   3.56872   3.57037
 Alpha virt. eigenvalues --    3.57614   3.58099   3.58593   3.58982   3.59033
 Alpha virt. eigenvalues --    3.59517   3.59910   3.59976   3.60139   3.60668
 Alpha virt. eigenvalues --    3.61201   3.61256   3.61903   3.62244   3.62869
 Alpha virt. eigenvalues --    3.63377   3.63661   3.64148   3.64951   3.65458
 Alpha virt. eigenvalues --    3.65868   3.66313   3.66786   3.66851   3.66988
 Alpha virt. eigenvalues --    3.67318   3.68026   3.68467   3.69235   3.69593
 Alpha virt. eigenvalues --    3.69651   3.69709   3.70199   3.70766   3.71196
 Alpha virt. eigenvalues --    3.71265   3.71871   3.72242   3.72364   3.72904
 Alpha virt. eigenvalues --    3.73140   3.73252   3.73587   3.74035   3.74366
 Alpha virt. eigenvalues --    3.74804   3.75269   3.75518   3.75816   3.76547
 Alpha virt. eigenvalues --    3.77235   3.77576   3.77970   3.78284   3.79079
 Alpha virt. eigenvalues --    3.79333   3.79571   3.80379   3.80815   3.81295
 Alpha virt. eigenvalues --    3.81702   3.82045   3.82500   3.82673   3.83492
 Alpha virt. eigenvalues --    3.84487   3.85099   3.85471   3.85736   3.86421
 Alpha virt. eigenvalues --    3.87074   3.87565   3.88352   3.88442   3.89514
 Alpha virt. eigenvalues --    3.90151   3.90559   3.91242   3.91635   3.91783
 Alpha virt. eigenvalues --    3.92118   3.92497   3.92985   3.93454   3.94407
 Alpha virt. eigenvalues --    3.95209   3.95687   3.96499   3.97441   3.98108
 Alpha virt. eigenvalues --    3.98454   3.98703   3.99487   3.99948   4.00238
 Alpha virt. eigenvalues --    4.00638   4.01437   4.01725   4.01877   4.01977
 Alpha virt. eigenvalues --    4.02565   4.03809   4.04753   4.04989   4.05295
 Alpha virt. eigenvalues --    4.05576   4.06002   4.06529   4.06737   4.07083
 Alpha virt. eigenvalues --    4.07657   4.08464   4.09811   4.10793   4.11810
 Alpha virt. eigenvalues --    4.11997   4.12852   4.13554   4.13920   4.15766
 Alpha virt. eigenvalues --    4.15997   4.16588   4.16674   4.17726   4.17927
 Alpha virt. eigenvalues --    4.18379   4.19331   4.19712   4.19814   4.20185
 Alpha virt. eigenvalues --    4.20688   4.20901   4.21322   4.22118   4.22871
 Alpha virt. eigenvalues --    4.23755   4.24007   4.24511   4.24791   4.25370
 Alpha virt. eigenvalues --    4.26072   4.26472   4.27118   4.27495   4.28105
 Alpha virt. eigenvalues --    4.29118   4.29727   4.29993   4.30520   4.31202
 Alpha virt. eigenvalues --    4.31614   4.31925   4.32311   4.33744   4.34019
 Alpha virt. eigenvalues --    4.34524   4.34857   4.35285   4.35437   4.36458
 Alpha virt. eigenvalues --    4.36684   4.37190   4.37436   4.38154   4.38855
 Alpha virt. eigenvalues --    4.38947   4.39805   4.40429   4.40999   4.41182
 Alpha virt. eigenvalues --    4.41562   4.41810   4.42084   4.42788   4.43227
 Alpha virt. eigenvalues --    4.43822   4.43977   4.44656   4.44956   4.45565
 Alpha virt. eigenvalues --    4.45823   4.46687   4.47141   4.47282   4.47519
 Alpha virt. eigenvalues --    4.47836   4.48631   4.48925   4.49981   4.50846
 Alpha virt. eigenvalues --    4.51325   4.52406   4.52994   4.53557   4.53924
 Alpha virt. eigenvalues --    4.54846   4.55496   4.55997   4.56471   4.57437
 Alpha virt. eigenvalues --    4.57739   4.58060   4.59116   4.59440   4.60251
 Alpha virt. eigenvalues --    4.61575   4.62381   4.64838   4.65340   4.66303
 Alpha virt. eigenvalues --    4.67089   4.68054   4.69126   4.69459   4.70610
 Alpha virt. eigenvalues --    4.70923   4.70969   4.71882   4.72403   4.73327
 Alpha virt. eigenvalues --    4.73662   4.74603   4.75288   4.76197   4.76393
 Alpha virt. eigenvalues --    4.76741   4.76832   4.78630   4.80795   4.81915
 Alpha virt. eigenvalues --    4.82436   4.83471   4.83857   4.84243   4.84944
 Alpha virt. eigenvalues --    4.85851   4.86034   4.86593   4.86834   4.87374
 Alpha virt. eigenvalues --    4.88011   4.88859   4.89509   4.89906   4.90754
 Alpha virt. eigenvalues --    4.91735   4.93505   4.95422   4.95891   4.96375
 Alpha virt. eigenvalues --    4.96686   4.97556   4.98213   4.98811   4.99124
 Alpha virt. eigenvalues --    4.99915   5.00861   5.02075   5.02827   5.03157
 Alpha virt. eigenvalues --    5.04820   5.05698   5.06328   5.06783   5.07298
 Alpha virt. eigenvalues --    5.08699   5.09265   5.09591   5.11601   5.12938
 Alpha virt. eigenvalues --    5.13375   5.14081   5.15909   5.16374   5.18658
 Alpha virt. eigenvalues --    5.20716   5.21247   5.22213   5.22745   5.23493
 Alpha virt. eigenvalues --    5.23775   5.24959   5.28004   5.28397   5.29745
 Alpha virt. eigenvalues --    5.30718   5.31492   5.32266   5.33674   5.36266
 Alpha virt. eigenvalues --    5.37743   5.38817   5.39337   5.40066   5.40349
 Alpha virt. eigenvalues --    5.40615   5.41872   5.43307   5.43479   5.45196
 Alpha virt. eigenvalues --    5.47721   5.48982   5.50263   5.51111   5.52104
 Alpha virt. eigenvalues --    5.53167   5.53813   5.55077   5.58601   5.61797
 Alpha virt. eigenvalues --    5.62507   5.62678   5.63962   5.65000   5.65324
 Alpha virt. eigenvalues --    5.66869   5.67938   5.68381   5.69716   5.70464
 Alpha virt. eigenvalues --    5.73502   5.75915   5.78054   5.79070   5.82526
 Alpha virt. eigenvalues --    5.87584   5.88588   5.94101   5.94961   5.99201
 Alpha virt. eigenvalues --    6.01307   6.02096   6.02654   6.03699   6.04762
 Alpha virt. eigenvalues --    6.10137   6.15005   6.15845   6.17044   6.17691
 Alpha virt. eigenvalues --    6.19791   6.22898   6.28606   6.34928   6.36320
 Alpha virt. eigenvalues --    6.42038   9.29960   9.47104   9.57952  20.03569
 Alpha virt. eigenvalues --   22.36348  22.36754  22.42198  22.44324  22.46255
 Alpha virt. eigenvalues --   22.47101  22.48300  22.53180  22.53570  22.54455
 Alpha virt. eigenvalues --   22.62780  22.63295  22.83068  22.87044  22.87932
 Alpha virt. eigenvalues --   22.95055  22.96446  22.97483  22.98788  23.00821
 Alpha virt. eigenvalues --   23.04903  23.05044  23.12258  23.15532  23.29484
 Alpha virt. eigenvalues --   23.29681  23.32113  23.33468  23.43008  23.44388
 Alpha virt. eigenvalues --   23.51954  23.52174  23.56561  23.74913  23.80088
 Alpha virt. eigenvalues --   23.81020  23.90871  32.42244  32.86056  32.95786
 Alpha virt. eigenvalues --   33.05933  33.08895  33.16151
          Condensed to atoms (all electrons):
 Mulliken charges:
               1
     1  Fe  -0.474951
     2  N    0.040301
     3  N    0.020451
     4  N   -0.008925
     5  N    0.012002
     6  C    0.215783
     7  C   -0.031020
     8  C   -0.060254
     9  C    0.230956
    10  C    0.190209
    11  C    0.004548
    12  C   -0.055201
    13  C    0.199663
    14  C    0.187526
    15  C    0.070821
    16  C   -0.040981
    17  C    0.253020
    18  C    0.190918
    19  C    0.121662
    20  C   -0.060233
    21  C    0.271913
    22  C   -0.475141
    23  H    0.133600
    24  C   -0.484760
    25  H    0.136825
    26  C   -0.434394
    27  H    0.119387
    28  C   -0.588880
    29  H    0.101824
    30  C   -0.417708
    31  H    0.131795
    32  H    0.138813
    33  H    0.118878
    34  C   -0.414633
    35  H    0.138512
    36  H    0.129410
    37  H    0.119685
    38  C   -0.455832
    39  H    0.142388
    40  H    0.129509
    41  H    0.157046
    42  C   -0.212948
    43  H    0.107018
    44  C   -0.291397
    45  H    0.138748
    46  H    0.121422
    47  C   -0.450735
    48  H    0.141244
    49  H    0.126302
    50  H    0.155862
    51  C   -0.210293
    52  H    0.111475
    53  C   -0.285762
    54  H    0.139288
    55  H    0.121576
    56  C   -0.422404
    57  H    0.119019
    58  H    0.141107
    59  H    0.132555
    60  C   -0.410365
    61  H    0.120400
    62  H    0.133335
    63  H    0.136002
    64  C   -0.393811
    65  H    0.135032
    66  H    0.145957
    67  H    0.134036
    68  N   -0.229744
    69  H    0.233870
    70  C    0.169151
    71  C    0.003805
    72  H    0.177451
    73  N    0.090388
    74  C   -0.215686
    75  H    0.157468
    76  C   -0.350657
    77  H    0.146410
    78  H    0.114065
    79  H    0.110336
    80  C   -0.157232
    81  H    0.142803
    82  H    0.117872
    83  S    0.022744
    84  C   -0.372835
    85  H    0.151768
    86  H    0.151083
    87  H    0.149743
 Sum of Mulliken charges =  -0.00000
 Mulliken charges with hydrogens summed into heavy atoms:
               1
     1  Fe  -0.474951
     2  N    0.040301
     3  N    0.020451
     4  N   -0.008925
     5  N    0.012002
     6  C    0.215783
     7  C   -0.031020
     8  C   -0.060254
     9  C    0.230956
    10  C    0.190209
    11  C    0.004548
    12  C   -0.055201
    13  C    0.199663
    14  C    0.187526
    15  C    0.070821
    16  C   -0.040981
    17  C    0.253020
    18  C    0.190918
    19  C    0.121662
    20  C   -0.060233
    21  C    0.271913
    22  C   -0.341541
    24  C   -0.347935
    26  C   -0.315007
    28  C   -0.487056
    30  C   -0.028222
    34  C   -0.027025
    38  C   -0.026889
    42  C   -0.105930
    44  C   -0.031226
    47  C   -0.027326
    51  C   -0.098817
    53  C   -0.024898
    56  C   -0.029723
    60  C   -0.020627
    64  C    0.021214
    68  N    0.004127
    70  C    0.169151
    71  C    0.181255
    73  N    0.090388
    74  C   -0.058218
    76  C    0.020153
    80  C    0.103442
    83  S    0.022744
    84  C    0.079759
 Electronic spatial extent (au):  <R**2>=          21638.0884
 Charge=             -0.0000 electrons
 Dipole moment (field-independent basis, Debye):
    X=             -0.7342    Y=             -0.8390    Z=              3.7650  Tot=              3.9266
 Quadrupole moment (field-independent basis, Debye-Ang):
   XX=           -269.2795   YY=           -269.8864   ZZ=           -250.6188
   XY=              1.7047   XZ=             -1.9999   YZ=             -5.1803
 Traceless Quadrupole moment (field-independent basis, Debye-Ang):
   XX=             -6.0179   YY=             -6.6248   ZZ=             12.6428
   XY=              1.7047   XZ=             -1.9999   YZ=             -5.1803
 Octapole moment (field-independent basis, Debye-Ang**2):
  XXX=            -42.9792  YYY=            -47.1912  ZZZ=            134.2976  XYY=              5.5701
  XXY=            -11.0435  XXZ=              1.8796  XZZ=             -5.5099  YZZ=            -13.6515
  YYZ=              1.2395  XYZ=              8.8956
 Hexadecapole moment (field-independent basis, Debye-Ang**3):
 XXXX=         -12533.3894 YYYY=         -11909.3329 ZZZZ=          -4272.1831 XXXY=             -7.3896
 XXXZ=            -70.8732 YYYX=              7.8848 YYYZ=            -48.1248 ZZZX=             31.1446
 ZZZY=           -114.7782 XXYY=          -4001.1954 XXZZ=          -3016.4058 YYZZ=          -2922.4553
 XXYZ=             48.3679 YYXZ=            -42.7555 ZZXY=             15.7263
 N-N= 7.154804638640D+03 E-N=-2.236586960393D+04  KE= 3.413652947611D+03
  Exact polarizability:     735.488      -1.389     720.141     -27.555      -7.132     381.097
 Approx polarizability:    1386.835       9.001    1373.396     -91.120     -23.727     599.440

 ----------------------------------------------------------------------

 Electric dipole moment (input orientation):
 (Debye = 10**-18 statcoulomb cm , SI units = C m)
                  (au)            (Debye)         (10**-30 SI)
   Tot        0.154485D+01      0.392661D+01      0.130978D+02
   x          0.130498D+01      0.331693D+01      0.110641D+02
   y          0.760002D+00      0.193173D+01      0.644357D+01
   z          0.325547D+00      0.827458D+00      0.276010D+01

 Dipole polarizability, Alpha (input orientation).
 (esu units = cm**3 , SI units = C**2 m**2 J**-1)
 Alpha(0;0):
               (au)            (10**-24 esu)      (10**-40 SI)
   iso        0.612242D+03      0.907249D+02      0.100945D+03
   aniso      0.350464D+03      0.519335D+02      0.577838D+02
   xx         0.579309D+03      0.858447D+02      0.955151D+02
   yx        -0.168608D+03     -0.249851D+02     -0.277997D+02
   yy         0.525327D+03      0.778455D+02      0.866148D+02
   zx        -0.153152D+02     -0.226948D+01     -0.252513D+01
   zy        -0.278852D+02     -0.413216D+01     -0.459765D+01
   zz         0.732089D+03      0.108484D+03      0.120705D+03

 First dipole hyperpolarizability, Beta (input orientation).
 ||, _|_  parallel and perpendicular components, (z) with respect to z axis,
 vector components x,y,z.  Values do not include the 1/n! factor of 1/2.
 (esu units = statvolt**-1 cm**4 , SI units = C**3 m**3 J**-2)
 Beta(0;0,0):
               (au)            (10**-30 esu)      (10**-50 SI)
   || (z)    -0.299517D+03     -0.258759D+01     -0.960360D+00
   _|_(z)    -0.998390D+02     -0.862531D+00     -0.320120D+00
   x         -0.376870D+04     -0.325586D+02     -0.120838D+02
   y          0.422298D+04      0.364833D+02      0.135404D+02
   z         -0.149758D+04     -0.129380D+02     -0.480180D+01
   ||         0.117097D+04      0.101163D+02      0.375456D+01
   xxx       -0.321941D+03     -0.278132D+01     -0.103226D+01
   xxy        0.384967D+03      0.332581D+01      0.123434D+01
   yxy       -0.855047D+02     -0.738694D+00     -0.274159D+00
   yyy        0.310308D+03      0.268082D+01      0.994959D+00
   xxz        0.174481D+03      0.150738D+01      0.559450D+00
   yxz       -0.121630D+03     -0.105079D+01     -0.389989D+00
   yyz        0.970016D+02      0.838018D+00      0.311022D+00
   zxz       -0.848786D+03     -0.733285D+01     -0.272152D+01
   zyz        0.712386D+03      0.615446D+01      0.228417D+01
   zzz       -0.770678D+03     -0.665806D+01     -0.247107D+01

 ----------------------------------------------------------------------

 Dipole orientation:
    26        -32.09487732         17.75646404         29.48147171
     7        -28.95513797         16.00297734         30.48486091
     7        -34.13332753         14.80230076         30.68069511
     7        -35.33277075         19.54390219         28.54581671
     7        -30.13734811         20.78554709         28.35870607
     6        -26.57130486         16.93852343         30.33443912
     6        -24.73916385         15.00683786         30.95868761
     6        -26.08084409         12.86653991         31.42638209
     6        -28.71778142         13.54194976         31.16960583
     6        -33.22364979         12.45579110         31.20155454
     6        -35.26667098         10.71236183         31.69593854
     6        -37.44205633         12.03690763         31.34124975
     6        -36.69048277         14.58216676         30.69260681
     6        -37.72527486         18.80412288         29.11048429
     6        -39.54358803         20.68427690         28.30016661
     6        -38.15982487         22.62685986         27.29558393
     6        -35.54810867         21.89229447         27.51440170
     6        -31.04621294         22.94803308         27.32633164
     6        -29.03272245         24.77544284         26.98247433
     6        -26.88854381         23.64918322         27.89945495
     6        -27.62010825         21.15974374         28.71899343
     6        -25.94377841         19.37564106         29.64297701
     1        -23.97162677         19.89183876         29.71681926
     6        -30.69311499         11.85837468         31.47138770
     1        -30.22534472          9.93128766         31.94928913
     6        -38.38462595         16.48352387         30.11121358
     1        -40.37026977         16.07297695         30.32790754
     6        -33.55394391         23.40437849         26.75023753
     1        -34.01006742         25.17555901         25.84767301
     6        -21.95145055         15.40590297         30.97058715
     1        -21.44100636         16.91142961         32.28135045
     1        -21.28944092         15.94147310         29.09458252
     1        -20.96911792         13.69299685         31.53841937
     6        -25.16118740         10.29640486         32.11944329
     1        -25.76993113          8.91332618         30.71950352
     1        -25.91132471          9.72301904         33.95115195
     1        -23.10948280         10.25540179         32.21852198
     6        -24.31014980         24.74469172         28.15853710
     1        -23.09665968         24.14877307         26.60078247
     1        -23.43497889         24.13321162         29.91773206
     1        -24.41164987         26.79859027         28.15053187
     6        -29.36040705         27.27831470         25.93780622
     1        -31.17658019         28.15723787         26.29205788
     6        -27.64935325         28.53448913         24.59449252
     1        -25.84951751         27.72581658         24.10437361
     1        -28.01589124         30.41019792         23.89243540
     6        -39.07506106         25.09882680         26.31094938
     1        -39.13122523         25.09719402         24.24908548
     1        -37.83549471         26.62825475         26.91136605
     1        -40.97070017         25.47783183         27.01156838
     6        -42.24900951         20.46735679         28.61789577
     1        -42.86342864         19.45899463         30.29190042
     6        -43.97840288         21.37402887         27.03829149
     1        -43.47661695         22.30918225         25.30356197
     1        -45.97015946         21.16450802         27.40540387
     6        -40.11337170         11.17254851         31.55512642
     1        -40.19986971          9.18805372         32.08057159
     1        -41.09491767         11.41135625         29.75936058
     1        -41.11994994         12.26593437         32.98227240
     6        -34.91374405          7.99859565         32.36183597
     1        -36.72708062          7.05842576         32.58408121
     1        -33.86826041          7.81514143         34.12799695
     1        -33.85267879          7.02358000         30.88926651
     6        -33.38791816         24.10145127         37.80322920
     1        -35.01089209         23.74583271         39.02083299
     1        -33.77236815         25.76428437         36.66534771
     1        -31.75592949         24.48321545         39.00040962
     7        -32.33641412         19.55049171         37.03976062
     1        -32.19522570         19.07626148         38.87688488
     6        -32.90159384         21.90631663         36.12474777
     6        -32.00998521         17.99945420         35.03671377
     1        -31.55049994         16.03512361         35.17823595
     7        -32.33350564         19.22919844         32.91222405
     6        -32.88854026         21.66032335         33.55604118
     1        -33.23979764         23.06234275         32.14153373
     6        -35.19952491         12.04402378         24.56248340
     1        -35.02293758         11.49754968         26.53249062
     1        -33.78494765         11.02578283         23.47375634
     1        -37.06852642         11.50254201         23.89678844
     6        -34.83775515         14.87214562         24.27311557
     1        -36.23475751         15.91650806         25.36262662
     1        -34.94420462         15.42158054         22.29203641
    16        -31.68363274         15.80719312         25.40523398
     6        -31.06319355         18.31480813         23.13676478
     1        -29.23997764         19.11595108         23.62121893
     1        -32.51347264         19.75774057         23.28017284
     1        -30.99887611         17.50948134         21.24834514

 Electric dipole moment (dipole orientation):
 (Debye = 10**-18 statcoulomb cm , SI units = C m)
                  (au)            (Debye)         (10**-30 SI)
   Tot        0.154485D+01      0.392661D+01      0.130978D+02
   x          0.000000D+00      0.000000D+00      0.000000D+00
   y          0.000000D+00      0.000000D+00      0.000000D+00
   z          0.154485D+01      0.392661D+01      0.130978D+02

 Dipole polarizability, Alpha (dipole orientation).
 (esu units = cm**3 , SI units = C**2 m**2 J**-1)
 Alpha(0;0):
               (au)            (10**-24 esu)      (10**-40 SI)
   iso        0.612242D+03      0.907249D+02      0.100945D+03
   aniso      0.350464D+03      0.519335D+02      0.577838D+02
   xx         0.723952D+03      0.107279D+03      0.119364D+03
   yx         0.158478D+02      0.234840D+01      0.261295D+01
   yy         0.691117D+03      0.102413D+03      0.113950D+03
   zx         0.199535D+02      0.295680D+01      0.328988D+01
   zy        -0.113053D+03     -0.167527D+02     -0.186399D+02
   zz         0.421657D+03      0.624831D+02      0.695218D+02

 First dipole hyperpolarizability, Beta (dipole orientation).
 ||, _|_  parallel and perpendicular components, (z) with respect to z axis,
 vector components x,y,z.  Values do not include the 1/n! factor of 1/2.
 (esu units = statvolt**-1 cm**4 , SI units = C**3 m**3 J**-2)
 Beta(0;0,0):
               (au)            (10**-30 esu)      (10**-50 SI)
   || (z)    -0.284317D+03     -0.245627D+01     -0.911622D+00
   _|_(z)    -0.947722D+02     -0.818758D+00     -0.303874D+00
   x         -0.173199D+04     -0.149630D+02     -0.555337D+01
   y          0.540913D+04      0.467307D+02      0.173436D+02
   z         -0.142158D+04     -0.122814D+02     -0.455811D+01
   ||         0.117097D+04      0.101163D+02      0.375456D+01
   xxx       -0.110951D+04     -0.958534D+01     -0.355750D+01
   xxy        0.693360D+03      0.599009D+01      0.222316D+01
   yxy        0.482733D+03      0.417044D+01      0.154782D+01
   yyy        0.833743D+03      0.720289D+01      0.267328D+01
   xxz       -0.327362D+03     -0.282815D+01     -0.104964D+01
   yxz       -0.182367D+03     -0.157551D+01     -0.584735D+00
   yyz       -0.315971D+03     -0.272974D+01     -0.101312D+01
   zxz        0.494523D+02      0.427230D+00      0.158562D+00
   zyz        0.275942D+03      0.238392D+01      0.884769D+00
   zzz        0.169471D+03      0.146410D+01      0.543387D+00

 ----------------------------------------------------------------------
 Unable to Open any file for archive entry.
 1\1\GINC-BGN1009\SP\RAPFD\def2TZVP\C37H42Fe1N6S1\BEBJONES\01-Jul-2024\
 0\\# polar def2tzvp apfd int=(grid=ultrafine)\\1cih_II_S\\0,1\Fe,0,2.9
 792760424,21.0225875045,13.0117786447\N,0,4.4285508347,19.9710977232,1
 2.1766615288\N,0,3.6089768364,20.454262008,14.8257881661\N,0,1.5327839
 658,22.1239139214,13.8894863969\N,0,2.3525608814,21.6572363217,11.2229
 637344\C,0,4.7093794734,19.8950550022,10.8507317249\C,0,5.7374052971,1
 8.9069197909,10.604238201\C,0,6.0436825305,18.3661812384,11.8133311329
 \C,0,5.2332263429,19.0642602803,12.7876072224\C,0,4.4656857518,19.4311
 286434,15.0881099701\C,0,4.5594095487,19.1927589338,16.5103685687\C,0,
 3.6875725898,20.056354887,17.098414937\C,0,3.0986261655,20.82862936,16
 .0275033658\C,0,1.3996857291,22.3922604313,15.2145217302\C,0,0.3008494
 691,23.3076257383,15.4475001379\C,0,-0.2003666289,23.6172389017,14.211
 1970053\C,0,0.5983859594,22.8888128643,13.2593623323\C,0,1.3008005803,
 22.4691427355,10.9511450632\C,0,1.2526932556,22.7876203644,9.537009909
 1\C,0,2.3330844183,22.1600295515,8.9739961131\C,0,2.992632239,21.45224
 43384,10.0404888627\C,0,4.0939797704,20.6329269685,9.8586486223\H,0,4.
 4617688956,20.5124935798,8.8509243519\C,0,5.2446913165,18.7887972621,1
 4.14254878\H,0,5.9099907815,18.0123280676,14.4884281961\C,0,2.12525224
 12,21.7900150241,16.2249847033\H,0,1.8652145123,22.0332674508,17.24363
 45168\C,0,0.4154714271,22.9678733159,11.8890858435\H,0,-0.4088085164,2
 3.5656628967,11.5312320445\C,0,6.275998975,18.5726323575,9.2555343213\
 H,0,6.6993861137,19.45858612,8.7815888552\H,0,5.4839762466,18.19075862
 95,8.6109806447\H,0,7.0544080377,17.8167955735,9.3256683299\C,0,7.0201
 543547,17.2913833454,12.1486123325\H,0,6.5133032972,16.4519125038,12.6
 246771136\H,0,7.7800951428,17.6617214675,12.8374652088\H,0,7.517718403
 5,16.927154094,11.2531992787\C,0,2.8101886052,22.2229826429,7.56511708
 15\H,0,2.4857803211,21.3447248021,7.0040990155\H,0,3.8978070769,22.263
 1005019,7.5292689222\H,0,2.4114938565,23.108945374,7.0748972142\C,0,0.
 2598995076,23.6348811266,8.9154119946\H,0,-0.136036478,24.429117996,9.
 5379535555\C,0,-0.1969383131,23.5062415677,7.6737280902\H,0,0.12195335
 62,22.7093451094,7.0250498541\H,0,-0.9311085473,24.1842148269,7.270975
 6524\C,0,-1.2883838197,24.5737636143,13.8669817599\H,0,-2.2219690081,2
[...]
                                                    1562(r),1561(r),1563(r)
                                                    180(r),184(r),179(r),187(r)
                                                    183(r)
   159. CR (   1) C  74                  1.99896   -10.05684  1300(v),1646(v),1650(g)
                                                    1358(v),1410(v),1303(v)
                                                    171(r),172(r),1563(r)
   174. LP (   1) N  68                  1.57939    -0.28228  1654(v),1651(v),1329(v)
                                                    1301(v),1295(v),1327(v)
                                                    181(r)
   175. LP (   1) N  73                  1.60518    -0.35333  172(r),171(r),1649(v)
                                                    1650(v),1652(v),1326(v)
                                                    1656(v),1653(g),1360(g)
                                                    1383(v),1655(g),1560(r)
                                                    1563(r),182(r),1562(r)
                                                    1561(r),1572(r),1566(r)
                                                    1567(r),233(r),204(r)
                                                    1568(r),1564(r),1574(r)
                                                    207(r),285(r),1571(r),259(r)
                                                    192(r),1569(r),196(r),193(r)
                                                    178(r),230(r),282(r),1570(r)
                                                    256(r),232(r),231(r),1573(r)
                                                    195(r),258(r)
  1228. RY*(   1) C  64                  0.00116     1.16294   
  1229. RY*(   2) C  64                  0.00079     2.00943   
  1230. RY*(   3) C  64                  0.00051     1.33604   
  1231. RY*(   4) C  64                  0.00012     1.26808   
  1232. RY*(   5) C  64                  0.00009     2.14687   
  1233. RY*(   6) C  64                  0.00007     1.40933   
  1234. RY*(   7) C  64                  0.00001     1.96504   
  1235. RY*(   8) C  64                  0.00001     1.87259   
  1236. RY*(   9) C  64                  0.00001     1.43461   
  1237. RY*(  10) C  64                  0.00000     3.22713   
  1238. RY*(  11) C  64                  0.00000     2.53803   
  1239. RY*(  12) C  64                  0.00001     1.56538   
  1240. RY*(  13) C  64                  0.00000     2.35521   
  1241. RY*(  14) C  64                  0.00001     2.84273   
  1242. RY*(  15) C  64                  0.00000     2.43263   
  1243. RY*(  16) C  64                  0.00000     2.61392   
  1244. RY*(  17) C  64                  0.00001     2.33950   
  1245. RY*(  18) C  64                  0.00000    21.59659   
  1246. RY*(  19) C  64                  0.00000     2.75252   
  1247. RY*(  20) C  64                  0.00000     3.65690   
  1248. RY*(  21) C  64                  0.00001     3.42249   
  1249. RY*(  22) C  64                  0.00001     3.37057   
  1250. RY*(  23) C  64                  0.00000     3.30575   
  1251. RY*(  24) C  64                  0.00000     3.85191   
  1252. RY*(  25) C  64                  0.00000     3.32158   
  1253. RY*(  26) C  64                  0.00000     3.28085   
  1254. RY*(   1) H  65                  0.00074     1.00918   
  1255. RY*(   2) H  65                  0.00015     1.68708   
  1256. RY*(   3) H  65                  0.00008     1.96545   
  1257. RY*(   4) H  65                  0.00006     2.01354   
  1258. RY*(   5) H  65                  0.00000     2.88386   
  1259. RY*(   1) H  66                  0.00024     1.38663   
  1260. RY*(   2) H  66                  0.00012     1.73465   
  1261. RY*(   3) H  66                  0.00008     2.05915   
  1262. RY*(   4) H  66                  0.00002     1.61287   
  1263. RY*(   5) H  66                  0.00001     2.86446   
  1264. RY*(   1) H  67                  0.00074     1.00466   
  1265. RY*(   2) H  67                  0.00015     1.68861   
  1266. RY*(   3) H  67                  0.00008     1.97058   
  1267. RY*(   4) H  67                  0.00006     2.01246   
  1268. RY*(   5) H  67                  0.00000     2.88327   
  1269. RY*(   1) N  68                  0.00279     0.67757   
  1270. RY*(   2) N  68                  0.00219     1.78560   
  1271. RY*(   3) N  68                  0.00098     2.07867   
  1272. RY*(   4) N  68                  0.00080     2.13708   
  1273. RY*(   5) N  68                  0.00051     1.23062   
  1274. RY*(   6) N  68                  0.00026     2.25480   
  1275. RY*(   7) N  68                  0.00020     1.79541   
  1276. RY*(   8) N  68                  0.00007     2.46162   
  1277. RY*(   9) N  68                  0.00006     3.64925   
  1278. RY*(  10) N  68                  0.00007     2.20248   
  1279. RY*(  11) N  68                  0.00004     3.07527   
  1280. RY*(  12) N  68                  0.00000    30.75119   
  1281. RY*(  13) N  68                  0.00001     3.93126   
  1282. RY*(  14) N  68                  0.00001     2.36460   
  1283. RY*(  15) N  68                  0.00001     3.81385   
  1284. RY*(  16) N  68                  0.00001     2.50404   
  1285. RY*(  17) N  68                  0.00001     3.92734   
  1286. RY*(  18) N  68                  0.00000     4.64551   
  1287. RY*(  19) N  68                  0.00001     3.25466   
  1288. RY*(  20) N  68                  0.00000     4.68386   
  1289. RY*(  21) N  68                  0.00000     4.54246   
  1290. RY*(  22) N  68                  0.00000     4.51965   
  1291. RY*(  23) N  68                  0.00000     4.30041   
  1292. RY*(  24) N  68                  0.00000     4.51638   
  1293. RY*(  25) N  68                  0.00000     4.46099   
  1294. RY*(  26) N  68                  0.00000     4.46679   
  1295. RY*(   1) H  69                  0.00058     2.15374   
  1296. RY*(   2) H  69                  0.00040     2.14016   
  1297. RY*(   3) H  69                  0.00031     1.00905   
  1298. RY*(   4) H  69                  0.00021     2.56096   
  1299. RY*(   5) H  69                  0.00001     3.09004   
  1300. RY*(   1) C  70                  0.00399     1.69577   
  1301. RY*(   2) C  70                  0.00261     0.99498   
  1302. RY*(   3) C  70                  0.00190     1.51794   
  1303. RY*(   4) C  70                  0.00163     2.06597   
  1304. RY*(   5) C  70                  0.00124     1.77373   
  1305. RY*(   6) C  70                  0.00113     1.74944   
  1306. RY*(   7) C  70                  0.00037     2.86671   
  1307. RY*(   8) C  70                  0.00019     2.72534   
  1308. RY*(   9) C  70                  0.00017     2.56993   
  1309. RY*(  10) C  70                  0.00007     3.59492   
  1310. RY*(  11) C  70                  0.00003     2.57124   
  1311. RY*(  12) C  70                  0.00001     1.68340   
  1312. RY*(  13) C  70                  0.00001     2.67283   
  1313. RY*(  14) C  70                  0.00001     1.81712   
  1314. RY*(  15) C  70                  0.00001     1.63701   
  1315. RY*(  16) C  70                  0.00001     1.06267   
  1316. RY*(  17) C  70                  0.00001     1.98395   
  1317. RY*(  18) C  70                  0.00000    21.34816   
  1318. RY*(  19) C  70                  0.00001     3.60403   
  1319. RY*(  20) C  70                  0.00000     4.02229   
  1320. RY*(  21) C  70                  0.00000     3.62706   
  1321. RY*(  22) C  70                  0.00000     3.56774   
  1322. RY*(  23) C  70                  0.00000     3.36222   
  1323. RY*(  24) C  70                  0.00000     3.87238   
  1324. RY*(  25) C  70                  0.00000     3.52957   
  1325. RY*(  26) C  70                  0.00000     3.52850   
  1326. RY*(   1) C  71                  0.00408     1.57607   
  1327. RY*(   2) C  71                  0.00347     0.64379   
  1328. RY*(   3) C  71                  0.00204     1.32760   
  1329. RY*(   4) C  71                  0.00126     2.59028   
  1330. RY*(   5) C  71                  0.00113     1.23130   
  1331. RY*(   6) C  71                  0.00043     1.76093   
  1332. RY*(   7) C  71                  0.00026     1.70632   
  1333. RY*(   8) C  71                  0.00014     2.38284   
  1334. RY*(   9) C  71                  0.00008     3.24798   
  1335. RY*(  10) C  71                  0.00006     2.14844   
  1336. RY*(  11) C  71                  0.00003     2.42285   
  1337. RY*(  12) C  71                  0.00002     2.78090   
  1338. RY*(  13) C  71                  0.00003     2.77309   
  1339. RY*(  14) C  71                  0.00002     2.46103   
  1340. RY*(  15) C  71                  0.00002     3.29081   
  1341. RY*(  16) C  71                  0.00000     3.17310   
  1342. RY*(  17) C  71                  0.00000     3.62073   
  1343. RY*(  18) C  71                  0.00000     2.80798   
  1344. RY*(  19) C  71                  0.00000    21.47750   
  1345. RY*(  20) C  71                  0.00001     3.76517   
  1346. RY*(  21) C  71                  0.00001     3.63478   
  1347. RY*(  22) C  71                  0.00001     3.60705   
  1348. RY*(  23) C  71                  0.00000     3.65953   
  1349. RY*(  24) C  71                  0.00000     3.72751   
  1350. RY*(  25) C  71                  0.00000     3.43215   
  1351. RY*(  26) C  71                  0.00000     3.42097   
  1352. RY*(   1) H  72                  0.00066     0.62602   
  1353. RY*(   2) H  72                  0.00034     2.43593   
  1354. RY*(   3) H  72                  0.00021     2.11550   
  1355. RY*(   4) H  72                  0.00012     2.44280   
  1356. RY*(   5) H  72                  0.00001     3.17180   
  1357. RY*(   1) N  73                  0.01128     0.82764   
  1358. RY*(   2) N  73                  0.00994     1.28763   
  1359. RY*(   3) N  73                  0.00657     1.37308   
  1360. RY*(   4) N  73                  0.00111     1.69561   
  1361. RY*(   5) N  73                  0.00075     1.73497   
  1362. RY*(   6) N  73                  0.00061     2.01151   
  1363. RY*(   7) N  73                  0.00037     3.35866   
  1364. RY*(   8) N  73                  0.00038     3.12279   
  1365. RY*(   9) N  73                  0.00014     2.87500   
  1366. RY*(  10) N  73                  0.00009     2.50052   
  1367. RY*(  11) N  73                  0.00009     3.25146   
  1368. RY*(  12) N  73                  0.00009     3.73471   
  1369. RY*(  13) N  73                  0.00005     3.39223   
  1370. RY*(  14) N  73                  0.00004     3.73196   
  1371. RY*(  15) N  73                  0.00002     4.62215   
  1372. RY*(  16) N  73                  0.00002     4.51754   
  1373. RY*(  17) N  73                  0.00001     3.94264   
  1374. RY*(  18) N  73                  0.00000    31.73052   
  1375. RY*(  19) N  73                  0.00000     4.85774   
  1376. RY*(  20) N  73                  0.00000     4.45744   
  1377. RY*(  21) N  73                  0.00001     4.43903   
  1378. RY*(  22) N  73                  0.00001     4.45456   
  1379. RY*(  23) N  73                  0.00000     4.64015   
  1380. RY*(  24) N  73                  0.00000     4.79719   
  1381. RY*(  25) N  73                  0.00000     4.62547   
  1382. RY*(  26) N  73                  0.00000     4.59920   
  1383. RY*(   1) C  74                  0.00406     1.48990   
  1384. RY*(   2) C  74                  0.00276     0.70990   
  1385. RY*(   3) C  74                  0.00174     1.81607   
  1386. RY*(   4) C  74                  0.00065     2.03619   
  1387. RY*(   5) C  74                  0.00061     1.46380   
  1388. RY*(   6) C  74                  0.00051     1.88853   
  1389. RY*(   7) C  74                  0.00045     2.39032   
  1390. RY*(   8) C  74                  0.00026     1.60907   
  1391. RY*(   9) C  74                  0.00026     1.42644   
  1392. RY*(  10) C  74                  0.00016     2.03535   
  1393. RY*(  11) C  74                  0.00011     1.08476   
  1394. RY*(  12) C  74                  0.00007     2.01502   
  1395. RY*(  13) C  74                  0.00005     2.43368   
  1396. RY*(  14) C  74                  0.00004     2.34863   
  1397. RY*(  15) C  74                  0.00004     2.01553   
  1398. RY*(  16) C  74                  0.00002     3.28021   
  1399. RY*(  17) C  74                  0.00000     3.26468   
  1400. RY*(  18) C  74                  0.00001     3.62292   
  1401. RY*(  19) C  74                  0.00000    21.83556   
  1402. RY*(  20) C  74                  0.00001     4.04289   
  1403. RY*(  21) C  74                  0.00001     3.75701   
  1404. RY*(  22) C  74                  0.00001     3.73370   
  1405. RY*(  23) C  74                  0.00001     3.32087   
  1406. RY*(  24) C  74                  0.00000     3.83132   
  1407. RY*(  25) C  74                  0.00000     3.59021   
  1408. RY*(  26) C  74                  0.00000     3.60991   
  1409. RY*(   1) H  75                  0.00056     0.69299   
  1410. RY*(   2) H  75                  0.00035     2.37764   
  1411. RY*(   3) H  75                  0.00025     2.33020   
  1412. RY*(   4) H  75                  0.00008     2.75380   
  1413. RY*(   5) H  75                  0.00001     3.18052   
  1643. BD*(   1) C  64 - H  65          0.01206     0.36024   
  1644. BD*(   1) C  64 - H  66          0.00345     0.37388   
  1645. BD*(   1) C  64 - H  67          0.01187     0.36021   
  1646. BD*(   1) C  64 - C  70          0.01382     0.39063   
  1647. BD*(   1) N  68 - H  69          0.01444     0.36794   
  1648. BD*(   1) N  68 - C  70          0.02716     0.43133   
  1649. BD*(   1) N  68 - C  71          0.02242     0.45026   
  1650. BD*(   1) C  70 - C  74          0.02117     0.56792   
  1651. BD*(   2) C  70 - C  74          0.30137     0.03670  1654(v),1643(v),1645(v)
                                                    1389(g),1304(g),1601(r)
  1652. BD*(   1) C  71 - H  72          0.01787     0.39479   
  1653. BD*(   1) C  71 - N  73          0.01720     0.53652   
  1654. BD*(   2) C  71 - N  73          0.41712    -0.00297  1651(v),1327(g),1357(g)
                                                    1384(v),1573(r),1570(r)
                                                    171(r),1562(r),172(r)
                                                    1561(r)
  1655. BD*(   1) N  73 - C  74          0.01725     0.48302   
  1656. BD*(   1) C  74 - H  75          0.01459     0.43436   
       -------------------------------
              Total Lewis   42.67468  ( 97.7122%)
        Valence non-Lewis    0.91179  (  2.0877%)
        Rydberg non-Lewis    0.08739  (  0.2001%)
       -------------------------------
            Total unit  2   43.67386  (100.0000%)
           Charge unit  2    0.32614
 Unable to Open any file for archive entry.
 1\1\GINC-BGN1009\SP\RAPFD\def2TZVP\C37H42Fe1N6S1\BEBJONES\01-Jul-2024\
 0\\# apfd/def2TZVP int=(grid=ultrafine) geom=check guess=read pop=nbo 
 scf=qc\\1cih_II_S_nbo\\0,1\Fe,0,2.9792760424,21.0225875045,13.01177864
 47\N,0,4.4285508347,19.9710977232,12.1766615288\N,0,3.6089768364,20.45
 4262008,14.8257881661\N,0,1.5327839658,22.1239139214,13.8894863969\N,0
 ,2.3525608814,21.6572363217,11.2229637344\C,0,4.7093794734,19.89505500
 22,10.8507317249\C,0,5.7374052971,18.9069197909,10.604238201\C,0,6.043
 6825305,18.3661812384,11.8133311329\C,0,5.2332263429,19.0642602803,12.
 7876072224\C,0,4.4656857518,19.4311286434,15.0881099701\C,0,4.55940954
 87,19.1927589338,16.5103685687\C,0,3.6875725898,20.056354887,17.098414
 937\C,0,3.0986261655,20.82862936,16.0275033658\C,0,1.3996857291,22.392
 2604313,15.2145217302\C,0,0.3008494691,23.3076257383,15.4475001379\C,0
 ,-0.2003666289,23.6172389017,14.2111970053\C,0,0.5983859594,22.8888128
 643,13.2593623323\C,0,1.3008005803,22.4691427355,10.9511450632\C,0,1.2
 526932556,22.7876203644,9.5370099091\C,0,2.3330844183,22.1600295515,8.
 9739961131\C,0,2.992632239,21.4522443384,10.0404888627\C,0,4.093979770
 4,20.6329269685,9.8586486223\H,0,4.4617688956,20.5124935798,8.85092435
 19\C,0,5.2446913165,18.7887972621,14.14254878\H,0,5.9099907815,18.0123
 280676,14.4884281961\C,0,2.1252522412,21.7900150241,16.2249847033\H,0,
 1.8652145123,22.0332674508,17.2436345168\C,0,0.4154714271,22.967873315
 9,11.8890858435\H,0,-0.4088085164,23.5656628967,11.5312320445\C,0,6.27
 5998975,18.5726323575,9.2555343213\H,0,6.6993861137,19.45858612,8.7815
 888552\H,0,5.4839762466,18.1907586295,8.6109806447\H,0,7.0544080377,17
 .8167955735,9.3256683299\C,0,7.0201543547,17.2913833454,12.1486123325\
 H,0,6.5133032972,16.4519125038,12.6246771136\H,0,7.7800951428,17.66172
 14675,12.8374652088\H,0,7.5177184035,16.927154094,11.2531992787\C,0,2.
 8101886052,22.2229826429,7.5651170815\H,0,2.4857803211,21.3447248021,7
 .0040990155\H,0,3.8978070769,22.2631005019,7.5292689222\H,0,2.41149385
 65,23.108945374,7.0748972142\C,0,0.2598995076,23.6348811266,8.91541199
 46\H,0,-0.136036478,24.429117996,9.5379535555\C,0,-0.1969383131,23.506
 2415677,7.6737280902\H,0,0.1219533562,22.7093451094,7.0250498541\H,0,-
 0.9311085473,24.1842148269,7.2709756524\C,0,-1.2883838197,24.573763614
 3,13.8669817599\H,0,-2.2219690081,24.0465011605,13.662586346\H,0,-1.02
 8436047,25.152475525,12.9816742227\H,0,-1.4559542997,25.2609424615,14.
 6938158394\C,0,-0.1055985953,23.7898988169,16.748758319\H,0,0.69234476
 99,23.9103631636,17.4725963433\C,0,-1.3521743156,24.0766743903,17.1096
 324639\H,0,-2.1884398441,23.9298632532,16.4484298435\H,0,-1.5828149726
 ,24.4453095552,18.0954546454\C,0,3.3597102221,20.2312742353,18.5413964
 418\H,0,3.9362493316,19.5435508647,19.1552872904\H,0,2.300319773,20.04
 31695406,18.7177365009\H,0,3.5803383363,21.2485729387,18.8658503143\C,
 0,5.4266792701,18.1530148759,17.1333475407\H,0,5.3027629971,18.1421755
 699,18.2134717001\H,0,6.4766752328,18.3452354903,16.9107148492\H,0,5.1
 760859056,17.1641115142,16.7486562284\C,0,5.2657528454,26.1103200476,1
 2.8659613071\H,0,5.5219633875,26.5715256793,13.8198090701\H,0,4.371537
 5345,26.5879564758,12.4780339607\H,0,6.0861892526,26.2871965301,12.170
 5593188\N,0,5.9795764755,23.7937187404,13.4955571102\H,0,6.9176094072,
 24.0455523854,13.7607672302\C,0,5.0198423681,24.6556116929,13.03286195
 48\C,0,5.4368459377,22.5562653808,13.5300591748\H,0,5.9567443625,21.67
 79614499,13.8518268769\N,0,4.1935091289,22.582619788,13.1176226492\C,0
 ,3.919117774,23.8803675757,12.8046206349\H,0,2.955833024,24.1695327411
 ,12.4389067361\C,0,1.1433844229,17.8873036835,15.3381975222\H,0,2.1616
 316881,18.1367138314,15.6212097216\H,0,1.1490411213,16.9158157226,14.8
 495389362\H,0,0.5380367329,17.8242170231,16.2403949361\C,0,0.578957536
 2,18.9436744504,14.4079583507\H,0,0.572725661,19.9232340004,14.8820478
 668\H,0,-0.429536135,18.6798959827,14.0915882222\S,0,1.6005680994,19.0
 613971663,12.8808510176\C,0,0.2658827467,19.4198566758,11.6977249157\H
 ,0,0.733100953,19.5540158304,10.7281847918\H,0,-0.247239596,20.3315433
 389,11.9863649297\H,0,-0.4180113316,18.5755836927,11.6680428459\\Versi
 on=ES64L-G16RevC.02\State=1-A\HF=-3424.8508026\RMSD=2.235e-09\Dipole=1
 .3049788,0.7600021,0.3255469\Quadrupole=6.2581061,-0.8767412,-5.381364
 9,6.7077137,2.3377854,0.247144\PG=C01 [X(C37H42Fe1N6S1)]\\@
 The archive entry for this job was punched.


 EDUCATION IS NOT TRAINING BUT RATHER THE PROCESS THAT EQUIPS YOU TO
 ENTERTAIN YOURSELF, A FRIEND, OR AN IDEA.  -- WALLACE STERLING
 Job cpu time:       0 days  0 hours 59 minutes 44.7 seconds.
 Elapsed time:       0 days  0 hours  1 minutes 10.1 seconds.
 File lengths (MBytes):  RWF=    938 Int=      0 D2E=      0 Chk=    161 Scr=      1
 Normal termination of Gaussian 16 at Mon Jul  1 15:40:38 2024.
