 Entering Gaussian System, Link 0=g16
 Input=1co612.com
 Output=1co612.log
 Initial command:
 /sw/chem/gaussian/g16_C02/a100/g16/l1.exe "/local/bebjones_8061733/Gau-1024116.inp" -scrdir="/local/bebjones_8061733/"
 Entering Link 1 = /sw/chem/gaussian/g16_C02/a100/g16/l1.exe PID=   1024117.
  
 Copyright (c) 1988-2021, Gaussian, Inc.  All Rights Reserved.
  
 This is part of the Gaussian(R) 16 program.  It is based on
 the Gaussian(R) 09 system (copyright 2009, Gaussian, Inc.),
 the Gaussian(R) 03 system (copyright 2003, Gaussian, Inc.),
 the Gaussian(R) 98 system (copyright 1998, Gaussian, Inc.),
 the Gaussian(R) 94 system (copyright 1995, Gaussian, Inc.),
 the Gaussian 92(TM) system (copyright 1992, Gaussian, Inc.),
 the Gaussian 90(TM) system (copyright 1990, Gaussian, Inc.),
 the Gaussian 88(TM) system (copyright 1988, Gaussian, Inc.),
 the Gaussian 86(TM) system (copyright 1986, Carnegie Mellon
 University), and the Gaussian 82(TM) system (copyright 1983,
 Carnegie Mellon University). Gaussian is a federally registered
 trademark of Gaussian, Inc.
  
 This software contains proprietary and confidential information,
 including trade secrets, belonging to Gaussian, Inc.
  
 This software is provided under written license and may be
 used, copied, transmitted, or stored only in accord with that
 written license.
  
 The following legend is applicable only to US Government
 contracts under FAR:
  
                    RESTRICTED RIGHTS LEGEND
  
 Use, reproduction and disclosure by the US Government is
 subject to restrictions as set forth in subparagraphs (a)
 and (c) of the Commercial Computer Software - Restricted
 Rights clause in FAR 52.227-19.
  
 Gaussian, Inc.
 340 Quinnipiac St., Bldg. 40, Wallingford CT 06492
  
  
 ---------------------------------------------------------------
 Warning -- This program may not be used in any manner that
 competes with the business of Gaussian, Inc. or will provide
 assistance to any competitor of Gaussian, Inc.  The licensee
 of this program is prohibited from giving any competitor of
 Gaussian, Inc. access to this program.  By using this program,
 the user acknowledges that Gaussian, Inc. is engaged in the
 business of creating and licensing software in the field of
 computational chemistry and represents and warrants to the
 licensee that it is not a competitor of Gaussian, Inc. and that
 it will not use this program in any manner prohibited above.
 ---------------------------------------------------------------
  

 Cite this work as:
 Gaussian 16, Revision C.02,
 M. J. Frisch, G. W. Trucks, H. B. Schlegel, G. E. Scuseria, 
 M. A. Robb, J. R. Cheeseman, G. Scalmani, V. Barone, 
 G. A. Petersson, H. Nakatsuji, X. Li, M. Caricato, A. V. Marenich, 
 J. Bloino, B. G. Janesko, R. Gomperts, B. Mennucci, H. P. Hratchian, 
 J. V. Ortiz, A. F. Izmaylov, J. L. Sonnenberg, D. Williams-Young, 
 F. Ding, F. Lipparini, F. Egidi, J. Goings, B. Peng, A. Petrone, 
 T. Henderson, D. Ranasinghe, V. G. Zakrzewski, J. Gao, N. Rega, 
 G. Zheng, W. Liang, M. Hada, M. Ehara, K. Toyota, R. Fukuda, 
 J. Hasegawa, M. Ishida, T. Nakajima, Y. Honda, O. Kitao, H. Nakai, 
 T. Vreven, K. Throssell, J. A. Montgomery, Jr., J. E. Peralta, 
 F. Ogliaro, M. J. Bearpark, J. J. Heyd, E. N. Brothers, K. N. Kudin, 
 V. N. Staroverov, T. A. Keith, R. Kobayashi, J. Normand, 
 K. Raghavachari, A. P. Rendell, J. C. Burant, S. S. Iyengar, 
 J. Tomasi, M. Cossi, J. M. Millam, M. Klene, C. Adamo, R. Cammi, 
 J. W. Ochterski, R. L. Martin, K. Morokuma, O. Farkas, 
 J. B. Foresman, and D. J. Fox, Gaussian, Inc., Wallingford CT, 2019.
 
 ******************************************
 Gaussian 16:  ES64L-G16RevC.02  7-Dec-2021
                27-Oct-2024 
 ******************************************
 %mem=16GB
 %CPU=0-71
 SetSPE:  set environment variable "OMP_PROC_BIND" = "true"
 SetSPE:  set environment variable "OMP_PLACES" = "{0},{1},{2},{3},{4},{5},{6},{7},{8},{9},{10},{11},{12},{13},{14},{15},{16},{17},{18},{19},{20},{21},{22},{23},{24},{25},{26},{27},{28},{29},{30},{31},{32},{33},{34},{35},{36},{37},{38},{39},{40},{41},{42},{43},{44},{45},{46},{47},{48},{49},{50},{51},{52},{53},{54},{55},{56},{57},{58},{59},{60},{61},{62},{63},{64},{65},{66},{67},{68},{69},{70},{71}"
 Will use up to   72 processors via shared memory.
 %gpucpu=0,1,2,3=0,1,2,3
 Will use    4 GPUs:
 Thread  CPU   GPU
      0    0     0
      1    1     1
      2    2     2
      3    3     3
      4    4    -1
      5    5    -1
      6    6    -1
      7    7    -1
      8    8    -1
      9    9    -1
     10   10    -1
     11   11    -1
     12   12    -1
     13   13    -1
     14   14    -1
     15   15    -1
     16   16    -1
     17   17    -1
     18   18    -1
     19   19    -1
     20   20    -1
     21   21    -1
     22   22    -1
     23   23    -1
     24   24    -1
     25   25    -1
     26   26    -1
     27   27    -1
     28   28    -1
     29   29    -1
     30   30    -1
     31   31    -1
     32   32    -1
     33   33    -1
     34   34    -1
     35   35    -1
     36   36    -1
     37   37    -1
     38   38    -1
     39   39    -1
     40   40    -1
     41   41    -1
     42   42    -1
     43   43    -1
     44   44    -1
     45   45    -1
     46   46    -1
     47   47    -1
     48   48    -1
     49   49    -1
     50   50    -1
     51   51    -1
     52   52    -1
     53   53    -1
     54   54    -1
     55   55    -1
     56   56    -1
     57   57    -1
     58   58    -1
     59   59    -1
     60   60    -1
     61   61    -1
     62   62    -1
     63   63    -1
     64   64    -1
     65   65    -1
     66   66    -1
     67   67    -1
     68   68    -1
     69   69    -1
     70   70    -1
     71   71    -1
 SetGPE:  set environment variable "OMP_PROC_BIND" = "true"
 SetGPE:  set environment variable "OMP_PLACES" = "{0},{1},{2},{3},{4},{5},{6},{7},{8},{9},{10},{11},{12},{13},{14},{15},{16},{17},{18},{19},{20},{21},{22},{23},{24},{25},{26},{27},{28},{29},{30},{31},{32},{33},{34},{35},{36},{37},{38},{39},{40},{41},{42},{43},{44},{45},{46},{47},{48},{49},{50},{51},{52},{53},{54},{55},{56},{57},{58},{59},{60},{61},{62},{63},{64},{65},{66},{67},{68},{69},{70},{71}"
 %oldchk=1co6_II_Sre.chk
 %chk=1co6_III_Dn.chk
 Properties for Device   0
 Minimum vector length:                              32
 Maximum vector length:                            1024
 Number of SMPs:                                    108
 Maximum number of threads per SMP:                2048
 Number of ASync Engines:                             5
 Memory:                                           9207742464
 Properties for Device   1
 Minimum vector length:                              32
 Maximum vector length:                            1024
 Number of SMPs:                                    108
 Maximum number of threads per SMP:                2048
 Number of ASync Engines:                             5
 Memory:                                           9207742464
 Properties for Device   2
 Minimum vector length:                              32
 Maximum vector length:                            1024
 Number of SMPs:                                    108
 Maximum number of threads per SMP:                2048
 Number of ASync Engines:                             5
 Memory:                                           9207742464
 Properties for Device   3
 Minimum vector length:                              32
 Maximum vector length:                            1024
 Number of SMPs:                                    108
 Maximum number of threads per SMP:                2048
 Number of ASync Engines:                             5
 Memory:                                           9207742464
   8286968217 words of memory will be used on each GPU.
 Copying data from "1co6_II_Sre.chk" to current chk file "1co6_III_Dn.chk"
 IOpt=  2 FromEx=T IUOpen= 4 IOptOp= 5 NList=   0 IFRang= 0 IUIn= 4 IUOut= 2.
 --------------------------------------------------------------
 # apfd/def2TZVP guess=read scf=maxcycle=999 geom=check pop=nbo
 --------------------------------------------------------------
 1/29=2,38=1,172=1/1;
 2/12=2,40=1/2;
 3/5=44,7=101,11=2,14=-4,25=1,30=1,74=-44,116=-2/1,2,3;
 4/5=1/1;
 5/5=2,7=999,38=6/2;
 6/7=2,8=2,9=2,10=2,28=1,40=1/1,7;
 99/5=1,9=1/99;
 ----------
 1co6_III_D
 ----------
 Structure from the checkpoint file:  "1co6_III_Dn.chk"
 Charge =  1 Multiplicity = 2
 Z-Matrix found in chk file.
 Fe,0,20.7047835007,-19.2247916308,13.7667115404
 N,0,22.6054165055,-18.9927433468,14.3103511564
 N,0,20.8949434088,-21.2063374573,13.8834530223
 N,0,18.7609022252,-19.4395722451,13.2876288835
 N,0,20.4634068058,-17.2282542162,13.7290872004
 C,0,23.2773429768,-17.8210168494,14.4450884951
 C,0,24.6921823716,-18.0606400037,14.6303820927
 C,0,24.8605803792,-19.4080573371,14.5725917177
 C,0,23.5453275852,-19.9718387762,14.3591468644
 C,0,22.053627832,-21.8957196475,14.0535137164
 C,0,21.8201529026,-23.3193869098,13.9545174037
 C,0,20.4915344365,-23.4709148779,13.7031245981
 C,0,19.934611353,-22.1375358648,13.6492639773
 C,0,18.069273121,-20.6056357301,13.2135146691
 C,0,16.6946447293,-20.3629484041,12.8219819036
 C,0,16.5758380359,-19.0053346398,12.6830039538
 C,0,17.8713700318,-18.4542994058,12.9863751886
 C,0,19.3443674031,-16.5367132418,13.3941095256
 C,0,19.5622199959,-15.1094303316,13.5316431825
 C,0,20.8441383272,-14.9691732861,13.9939015843
 C,0,21.3866748668,-16.2994802771,14.0950182029
 C,0,22.7060873644,-16.565160021,14.4194604276
 H,0,23.3506498163,-15.7210743375,14.6116952299
 C,0,23.2936893248,-21.3295217067,14.2871885015
 H,0,24.1359785249,-21.998325912,14.3794983819
 C,0,18.6042756149,-21.8690799153,13.3893917348
 H,0,17.9456556467,-22.7133348639,13.2545564106
 C,0,18.14974747,-17.097956008,12.9853975483
 H,0,17.3543430606,-16.4279151012,12.6972447504
 C,0,25.7077382864,-16.9876999587,14.8252061761
 H,0,25.4712228159,-16.3902459906,15.7061732122
 H,0,25.730245361,-16.3223374664,13.9619281733
 H,0,26.6999875613,-17.4125465494,14.9560580331
 C,0,26.110877177,-20.2107523846,14.6889439646
 H,0,26.2715495147,-20.7995842576,13.7858430961
 H,0,26.0504231987,-20.8976350117,15.5339011851
 H,0,26.9731849551,-19.5648592817,14.8347684619
 C,0,21.5579528486,-13.722533374,14.3847764063
 H,0,22.2099913769,-13.3782859025,13.5798214984
 H,0,22.1727161389,-13.8926080704,15.2674361263
 H,0,20.8405388705,-12.9343304499,14.6049874783
 C,0,18.5703815015,-14.0935750993,13.2590004602
 H,0,17.5414449534,-14.3806548519,13.4435483762
 C,0,18.8219768775,-12.871165328,12.8013504685
 H,0,19.8167947445,-12.5446772405,12.5537770932
 H,0,18.0306715709,-12.1597669794,12.6321390079
 C,0,15.3580258201,-18.2104964742,12.3632582534
 H,0,15.3472713284,-17.9171692656,11.3118294063
 H,0,15.3194113063,-17.303634064,12.9652872532
 H,0,14.4652423735,-18.7991074432,12.5646778219
 C,0,15.6905929964,-21.3908915334,12.6609364188
 H,0,15.7853276074,-22.2446636442,13.3222235256
 C,0,14.6958118932,-21.3664442653,11.7797577337
 H,0,14.5799101339,-20.5683996608,11.0672046517
 H,0,13.9727531747,-22.1633717036,11.7244356539
 C,0,19.7056802583,-24.7197234975,13.4955875483
 H,0,19.2478518905,-24.7240049107,12.5060145475
 H,0,18.909370271,-24.7995774374,14.2361359908
 H,0,20.3425548182,-25.5967920893,13.5817696487
 C,0,22.8809609856,-24.3570201068,14.0935250192
 H,0,22.4633700717,-25.3546496928,13.9817364224
 H,0,23.3572967504,-24.2918628479,15.0721926618
 H,0,23.6513700395,-24.2207664659,13.333897142
 C,0,18.2852061489,-18.2756013082,18.7078692595
 H,0,18.8637769202,-17.7418162164,19.4617837479
 H,0,17.7759804922,-19.1073451027,19.194794023
 H,0,17.538528313,-17.6012603264,18.3004751068
 N,0,20.2119602197,-19.6181096613,17.8373909937
 H,0,20.4843331397,-19.9944318526,18.7306651721
 C,0,19.1650693382,-18.7618822586,17.6151619442
 C,0,20.8036646654,-19.8597169456,16.6464379484
 H,0,21.653591181,-20.4964473926,16.5137720643
 N,0,20.1955643108,-19.2094960468,15.6852926581
 C,0,19.1744627243,-18.5226592663,16.2707966789
 H,0,18.5189070157,-17.9062840389,15.6916014818
 C,0,21.4675368632,-21.8013764333,10.4395581984
 H,0,22.3687922109,-21.5416638515,9.8891919564
 H,0,20.9467264895,-22.5954916734,9.9080916923
 H,0,21.7565009757,-22.1710872926,11.4187412179
 C,0,20.5652937762,-20.5902319518,10.5765203065
 H,0,19.6577721109,-20.8341722791,11.1258113728
 H,0,20.3076833735,-20.1892688368,9.5966476331
 S,0,21.4357443681,-19.2472770768,11.486229974
 C,0,20.6564575848,-17.8288621197,10.6551414141
 H,0,21.0595509459,-16.9331751377,11.1148244024
 H,0,19.5812906944,-17.8626825227,10.7991994728
 H,0,20.9123410495,-17.8526347644,9.5990305004
 Recover connectivity data from disk.
 Stoichiometry    C37H42FeN6S(1+,2)
 Framework group  C1[X(C37H42FeN6S)]
 Deg. of freedom   255
 Full point group                 C1      NOp   1
 Largest Abelian subgroup         C1      NOp   1
 Largest concise Abelian subgroup C1      NOp   1
                         Standard orientation:                         
 ---------------------------------------------------------------------
 Center     Atomic      Atomic             Coordinates (Angstroms)
 Number     Number       Type             X           Y           Z
 ---------------------------------------------------------------------
      1         26           0       -0.088946   -0.221035   -0.072115
      2          7           0       -0.137776   -2.209740   -0.005304
      3          7           0       -2.065147   -0.146362    0.183559
      4          7           0       -0.012404    1.791041   -0.068060
      5          7           0        1.914850   -0.267891   -0.240770
      6          6           0        0.915128   -3.055835   -0.139845
      7          6           0        0.460043   -4.423700   -0.263809
      8          6           0       -0.897914   -4.377204   -0.231819
      9          6           0       -1.252024   -2.982356   -0.082484
     10          6           0       -2.922584   -1.199985    0.146169
     11          6           0       -4.292787   -0.746942    0.238012
     12          6           0       -4.240787    0.610546    0.314890
     13          6           0       -2.839980    0.965895    0.265596
     14          6           0       -1.053070    2.640539    0.129204
     15          6           0       -0.613265    4.019338    0.043864
     16          6           0        0.735457    3.971456   -0.191088
     17          6           0        1.085344    2.575582   -0.247584
     18          6           0        2.758566    0.787331   -0.372447
     19          6           0        4.137066    0.339421   -0.423705
     20          6           0        4.093578   -1.022713   -0.284531
     21          6           0        2.700829   -1.376148   -0.186443
     22          6           0        2.243506   -2.682407   -0.151199
     23          1           0        2.981376   -3.468983   -0.192924
     24          6           0       -2.552736   -2.527938    0.033523
     25          1           0       -3.342993   -3.262120   -0.008211
     26          6           0       -2.374463    2.266594    0.295146
     27          1           0       -3.106942    3.052779    0.395719
     28          6           0        2.376234    2.113369   -0.440267
     29          1           0        3.148921    2.849827   -0.599132
     30          6           0        1.363295   -5.599822   -0.410031
     31          1           0        2.040511   -5.672339    0.441506
     32          1           0        1.965810   -5.508141   -1.313930
     33          1           0        0.791222   -6.522360   -0.471937
     34          6           0       -1.884907   -5.489397   -0.331675
     35          1           0       -2.542584   -5.339992   -1.187986
     36          1           0       -2.503509   -5.537132    0.565247
     37          1           0       -1.380262   -6.445105   -0.449872
     38          6           0        5.228100   -1.981831   -0.187692
     39          1           0        5.415452   -2.462043   -1.149934
     40          1           0        5.011175   -2.760986    0.541561
     41          1           0        6.133549   -1.460361    0.116728
     42          6           0        5.283176    1.210786   -0.554824
     43          1           0        5.177894    2.194665   -0.112014
     44          6           0        6.420409    0.904179   -1.171042
     45          1           0        6.566452   -0.037374   -1.670742
     46          1           0        7.239961    1.601936   -1.219543
     47          6           0        1.697829    5.102879   -0.294973
     48          1           0        1.928514    5.325634   -1.338440
     49          1           0        2.631802    4.863485    0.211698
     50          1           0        1.274378    5.995466    0.161177
     51          6           0       -1.472130    5.169760    0.215918
     52          1           0       -2.290802    5.041653    0.914894
     53          6           0       -1.336904    6.334146   -0.410646
     54          1           0       -0.572620    6.503007   -1.149155
     55          1           0       -2.007765    7.156081   -0.222667
     56          6           0       -5.355290    1.594687    0.412421
     57          1           0       -5.341692    2.274277   -0.440135
     58          1           0       -5.262452    2.190842    1.320649
     59          1           0       -6.317720    1.089074    0.431671
     60          6           0       -5.479171   -1.648975    0.225859
     61          1           0       -6.400539   -1.077541    0.307651
     62          1           0       -5.436427   -2.352448    1.057862
     63          1           0       -5.513336   -2.223781   -0.700187
     64          6           0        1.520797    0.766881    5.181751
     65          1           0        1.995763   -0.047739    5.728430
     66          1           0        0.811888    1.257318    5.848926
     67          1           0        2.283007    1.484852    4.895764
     68          7           0       -0.164070   -0.677564    4.021043
     69          1           0       -0.527997   -1.101071    4.858864
     70          6           0        0.836605    0.257402    3.966453
     71          6           0       -0.566080   -0.922007    2.753963
     72          1           0       -1.338822   -1.613641    2.489554
     73          7           0        0.118272   -0.199390    1.901988
     74          6           0        0.994001    0.539575    2.639713
     75          1           0        1.674515    1.220081    2.171790
     76          6           0       -2.940815    0.224160   -3.227932
     77          1           0       -2.862651   -0.544660   -3.993060
     78          1           0       -3.668906    0.966974   -3.547979
     79          1           0       -3.296018   -0.237027   -2.311349
     80          6           0       -1.593487    0.882216   -3.001347
     81          1           0       -1.655158    1.655037   -2.237300
     82          1           0       -1.212625    1.308986   -3.928761
     83         16           0       -0.359891   -0.366737   -2.447144
     84          6           0        1.116408    0.377981   -3.205982
     85          1           0        1.959563   -0.249129   -2.937894
     86          1           0        1.265800    1.379547   -2.815562
     87          1           0        0.991181    0.391711   -4.285585
 ---------------------------------------------------------------------
 Rotational constants (GHZ):           0.0834491           0.0808267           0.0579304
 Standard basis: def2TZVP (5D, 7F)
 There are  1894 symmetry adapted cartesian basis functions of A   symmetry.
 There are  1667 symmetry adapted basis functions of A   symmetry.
  1667 basis functions,  2700 primitive gaussians,  1894 cartesian basis functions
   174 alpha electrons      173 beta electrons
       nuclear repulsion energy      7151.0807033015 Hartrees.
 NAtoms=   87 NActive=   87 NUniq=   87 SFac= 1.00D+00 NAtFMM=   60 NAOKFM=T Big=T
 Integral buffers will be    131072 words long.
 Raffenetti 2 integral format.
 Two-electron integral symmetry is turned on.
 R6APFD:  NTU= -4 IXU= 1 FactS= 1.050
 Nuclear repulsion after empirical dispersion term =     7150.8974840989 Hartrees.
 One-electron integrals computed using PRISM.
   1 Symmetry operations used in ECPInt.
 ECPInt:  NShTT=  224115 NPrTT=  692067 LenC2=  178231 LenP2D=  362882.
 LDataN:  DoStor=T MaxTD1= 6 Len=  172
 Number of processors reduced to  21 by ecpmxn.
 NBasis=  1667 RedAO= T EigKep=  3.04D-06  NBF=  1667
 NBsUse=  1667 1.00D-06 EigRej= -1.00D+00 NBFU=  1667
 Initial guess from the checkpoint file:  "1co6_III_Dn.chk"
 B after Tr=     0.000000   -0.000000   -0.000000
         Rot=    1.000000    0.000000    0.000000    0.000000 Ang=   0.00 deg.
 Initial guess <Sx>= 0.0000 <Sy>= 0.0000 <Sz>= 0.5000 <S**2>= 0.7654 S= 0.5077
 Requested convergence on RMS density matrix=1.00D-08 within 999 cycles.
 Requested convergence on MAX density matrix=1.00D-06.
 Requested convergence on             energy=1.00D-06.
 No special actions if energy rises.
 Restarting incremental Fock formation.
 Restarting incremental Fock formation.
 Restarting incremental Fock formation.
 SCF Done:  E(UAPFD) =  -3424.66667792     A.U. after   65 cycles
            NFock= 65  Conv=0.13D-08     -V/T= 2.0033
 <Sx>= 0.0000 <Sy>= 0.0000 <Sz>= 0.5000 <S**2>= 0.7652 S= 0.5076
 <L.S>=  0.00000000000    
 Annihilation of the first spin contaminant:
 S**2 before annihilation     0.7652,   after     0.7502

 **********************************************************************

            Population analysis using the SCF Density.

 **********************************************************************

 Orbital symmetries:
 Alpha Orbitals:
       Occupied  (A) (A) (A) (A) (A) (A) (A) (A) (A) (A) (A) (A)
                 (A) (A) (A) (A) (A) (A) (A) (A) (A) (A) (A) (A)
                 (A) (A) (A) (A) (A) (A) (A) (A) (A) (A) (A) (A)
                 (A) (A) (A) (A) (A) (A) (A) (A) (A) (A) (A) (A)
                 (A) (A) (A) (A) (A) (A) (A) (A) (A) (A) (A) (A)
                 (A) (A) (A) (A) (A) (A) (A) (A) (A) (A) (A) (A)
                 (A) (A) (A) (A) (A) (A) (A) (A) (A) (A) (A) (A)
                 (A) (A) (A) (A) (A) (A) (A) (A) (A) (A) (A) (A)
                 (A) (A) (A) (A) (A) (A) (A) (A) (A) (A) (A) (A)
                 (A) (A) (A) (A) (A) (A) (A) (A) (A) (A) (A) (A)
                 (A) (A) (A) (A) (A) (A) (A) (A) (A) (A) (A) (A)
                 (A) (A) (A) (A) (A) (A) (A) (A) (A) (A) (A) (A)
                 (A) (A) (A) (A) (A) (A) (A) (A) (A) (A) (A) (A)
                 (A) (A) (A) (A) (A) (A) (A) (A) (A) (A) (A) (A)
                 (A) (A) (A) (A) (A) (A)
       Virtual   (A) (A) (A) (A) (A) (A) (A) (A) (A) (A) (A) (A)
                 (A) (A) (A) (A) (A) (A) (A) (A) (A) (A) (A) (A)
                 (A) (A) (A) (A) (A) (A) (A) (A) (A) (A) (A) (A)
                 (A) (A) (A) (A) (A) (A) (A) (A) (A) (A) (A) (A)
                 (A) (A) (A) (A) (A) (A) (A) (A) (A) (A) (A) (A)
                 (A) (A) (A) (A) (A) (A) (A) (A) (A) (A) (A) (A)
                 (A) (A) (A) (A) (A) (A) (A) (A) (A) (A) (A) (A)
                 (A) (A) (A) (A) (A) (A) (A) (A) (A) (A) (A) (A)
                 (A) (A) (A) (A) (A) (A) (A) (A) (A) (A) (A) (A)
                 (A) (A) (A) (A) (A) (A) (A) (A) (A) (A) (A) (A)
                 (A) (A) (A) (A) (A) (A) (A) (A) (A) (A) (A) (A)
                 (A) (A) (A) (A) (A) (A) (A) (A) (A) (A) (A) (A)
                 (A) (A) (A) (A) (A) (A) (A) (A) (A) (A) (A) (A)
                 (A) (A) (A) (A) (A) (A) (A) (A) (A) (A) (A) (A)
                 (A) (A) (A) (A) (A) (A) (A) (A) (A) (A) (A) (A)
                 (A) (A) (A) (A) (A) (A) (A) (A) (A) (A) (A) (A)
                 (A) (A) (A) (A) (A) (A) (A) (A) (A) (A) (A) (A)
                 (A) (A) (A) (A) (A) (A) (A) (A) (A) (A) (A) (A)
                 (A) (A) (A) (A) (A) (A) (A) (A) (A) (A) (A) (A)
                 (A) (A) (A) (A) (A) (A) (A) (A) (A) (A) (A) (A)
                 (A) (A) (A) (A) (A) (A) (A) (A) (A) (A) (A) (A)
                 (A) (A) (A) (A) (A) (A) (A) (A) (A) (A) (A) (A)
                 (A) (A) (A) (A) (A) (A) (A) (A) (A) (A) (A) (A)
                 (A) (A) (A) (A) (A) (A) (A) (A) (A) (A) (A) (A)
                 (A) (A) (A) (A) (A) (A) (A) (A) (A) (A) (A) (A)
                 (A) (A) (A) (A) (A) (A) (A) (A) (A) (A) (A) (A)
                 (A) (A) (A) (A) (A) (A) (A) (A) (A) (A) (A) (A)
                 (A) (A) (A) (A) (A) (A) (A) (A) (A) (A) (A) (A)
                 (A) (A) (A) (A) (A) (A) (A) (A) (A) (A) (A) (A)
                 (A) (A) (A) (A) (A) (A) (A) (A) (A) (A) (A) (A)
                 (A) (A) (A) (A) (A) (A) (A) (A) (A) (A) (A) (A)
                 (A) (A) (A) (A) (A) (A) (A) (A) (A) (A) (A) (A)
                 (A) (A) (A) (A) (A) (A) (A) (A) (A) (A) (A) (A)
                 (A) (A) (A) (A) (A) (A) (A) (A) (A) (A) (A) (A)
                 (A) (A) (A) (A) (A) (A) (A) (A) (A) (A) (A) (A)
                 (A) (A) (A) (A) (A) (A) (A) (A) (A) (A) (A) (A)
                 (A) (A) (A) (A) (A) (A) (A) (A) (A) (A) (A) (A)
                 (A) (A) (A) (A) (A) (A) (A) (A) (A) (A) (A) (A)
                 (A) (A) (A) (A) (A) (A) (A) (A) (A) (A) (A) (A)
                 (A) (A) (A) (A) (A) (A) (A) (A) (A) (A) (A) (A)
                 (A) (A) (A) (A) (A) (A) (A) (A) (A) (A) (A) (A)
                 (A) (A) (A) (A) (A) (A) (A) (A) (A) (A) (A) (A)
                 (A) (A) (A) (A) (A) (A) (A) (A) (A) (A) (A) (A)
                 (A) (A) (A) (A) (A) (A) (A) (A) (A) (A) (A) (A)
                 (A) (A) (A) (A) (A) (A) (A) (A) (A) (A) (A) (A)
                 (A) (A) (A) (A) (A) (A) (A) (A) (A) (A) (A) (A)
                 (A) (A) (A) (A) (A) (A) (A) (A) (A) (A) (A) (A)
                 (A) (A) (A) (A) (A) (A) (A) (A) (A) (A) (A) (A)
                 (A) (A) (A) (A) (A) (A) (A) (A) (A) (A) (A) (A)
                 (A) (A) (A) (A) (A) (A) (A) (A) (A) (A) (A) (A)
                 (A) (A) (A) (A) (A) (A) (A) (A) (A) (A) (A) (A)
                 (A) (A) (A) (A) (A) (A) (A) (A) (A) (A) (A) (A)
                 (A) (A) (A) (A) (A) (A) (A) (A) (A) (A) (A) (A)
                 (A) (A) (A) (A) (A) (A) (A) (A) (A) (A) (A) (A)
                 (A) (A) (A) (A) (A) (A) (A) (A) (A) (A) (A) (A)
                 (A) (A) (A) (A) (A) (A) (A) (A) (A) (A) (A) (A)
                 (A) (A) (A) (A) (A) (A) (A) (A) (A) (A) (A) (A)
                 (A) (A) (A) (A) (A) (A) (A) (A) (A) (A) (A) (A)
                 (A) (A) (A) (A) (A) (A) (A) (A) (A) (A) (A) (A)
                 (A) (A) (A) (A) (A) (A) (A) (A) (A) (A) (A) (A)
                 (A) (A) (A) (A) (A) (A) (A) (A) (A) (A) (A) (A)
                 (A) (A) (A) (A) (A) (A) (A) (A) (A) (A) (A) (A)
                 (A) (A) (A) (A) (A) (A) (A) (A) (A) (A) (A) (A)
                 (A) (A) (A) (A) (A) (A) (A) (A) (A) (A) (A) (A)
                 (A) (A) (A) (A) (A) (A) (A) (A) (A) (A) (A) (A)
                 (A) (A) (A) (A) (A) (A) (A) (A) (A) (A) (A) (A)
                 (A) (A) (A) (A) (A) (A) (A) (A) (A) (A) (A) (A)
                 (A) (A) (A) (A) (A) (A) (A) (A) (A) (A) (A) (A)
                 (A) (A) (A) (A) (A) (A) (A) (A) (A) (A) (A) (A)
                 (A) (A) (A) (A) (A) (A) (A) (A) (A) (A) (A) (A)
                 (A) (A) (A) (A) (A) (A) (A) (A) (A) (A) (A) (A)
                 (A) (A) (A) (A) (A) (A) (A) (A) (A) (A) (A) (A)
                 (A) (A) (A) (A) (A) (A) (A) (A) (A) (A) (A) (A)
                 (A) (A) (A) (A) (A) (A) (A) (A) (A) (A) (A) (A)
                 (A) (A) (A) (A) (A) (A) (A) (A) (A) (A) (A) (A)
                 (A) (A) (A) (A) (A) (A) (A) (A) (A) (A) (A) (A)
                 (A) (A) (A) (A) (A) (A) (A) (A) (A) (A) (A) (A)
                 (A) (A) (A) (A) (A) (A) (A) (A) (A) (A) (A) (A)
                 (A) (A) (A) (A) (A) (A) (A) (A) (A) (A) (A) (A)
                 (A) (A) (A) (A) (A) (A) (A) (A) (A) (A) (A) (A)
                 (A) (A) (A) (A) (A) (A) (A) (A) (A) (A) (A) (A)
                 (A) (A) (A) (A) (A) (A) (A) (A) (A) (A) (A) (A)
                 (A) (A) (A) (A) (A) (A) (A) (A) (A) (A) (A) (A)
                 (A) (A) (A) (A) (A) (A) (A) (A) (A) (A) (A) (A)
                 (A) (A) (A) (A) (A) (A) (A) (A) (A) (A) (A) (A)
                 (A) (A) (A) (A) (A) (A) (A) (A) (A) (A) (A) (A)
                 (A) (A) (A) (A) (A) (A) (A) (A) (A) (A) (A) (A)
                 (A) (A) (A) (A) (A) (A) (A) (A) (A) (A) (A) (A)
                 (A) (A) (A) (A) (A) (A) (A) (A) (A) (A) (A) (A)
                 (A) (A) (A) (A) (A) (A) (A) (A) (A) (A) (A) (A)
                 (A) (A) (A) (A) (A) (A) (A) (A) (A) (A) (A) (A)
                 (A) (A) (A) (A) (A) (A) (A) (A) (A) (A) (A) (A)
                 (A) (A) (A) (A) (A) (A) (A) (A) (A) (A) (A) (A)
                 (A) (A) (A) (A) (A) (A) (A) (A) (A) (A) (A) (A)
                 (A) (A) (A) (A) (A) (A) (A) (A) (A) (A) (A) (A)
                 (A) (A) (A) (A) (A) (A) (A) (A) (A) (A) (A) (A)
                 (A) (A) (A) (A) (A) (A) (A) (A) (A) (A) (A) (A)
                 (A) (A) (A) (A) (A) (A) (A) (A) (A) (A) (A) (A)
                 (A) (A) (A) (A) (A) (A) (A) (A) (A) (A) (A) (A)
                 (A) (A) (A) (A) (A) (A) (A) (A) (A) (A) (A) (A)
                 (A) (A) (A) (A) (A) (A) (A) (A) (A) (A) (A) (A)
                 (A) (A) (A) (A) (A) (A) (A) (A) (A) (A) (A) (A)
                 (A) (A) (A) (A) (A) (A) (A) (A) (A) (A) (A) (A)
                 (A) (A) (A) (A) (A) (A) (A) (A) (A) (A) (A) (A)
                 (A) (A) (A) (A) (A) (A) (A) (A) (A) (A) (A) (A)
                 (A) (A) (A) (A) (A) (A) (A) (A) (A) (A) (A) (A)
                 (A) (A) (A) (A) (A) (A) (A) (A) (A) (A) (A) (A)
                 (A) (A) (A) (A) (A) (A) (A) (A) (A) (A) (A) (A)
                 (A) (A) (A) (A) (A) (A) (A) (A) (A) (A) (A) (A)
                 (A) (A) (A) (A) (A) (A) (A) (A) (A) (A) (A) (A)
                 (A) (A) (A) (A) (A) (A) (A) (A) (A) (A) (A) (A)
                 (A) (A) (A) (A) (A) (A) (A) (A) (A) (A) (A) (A)
                 (A) (A) (A) (A) (A) (A) (A) (A) (A) (A) (A) (A)
                 (A) (A) (A) (A) (A) (A) (A) (A) (A) (A) (A) (A)
                 (A) (A) (A) (A) (A) (A) (A) (A) (A) (A) (A) (A)
                 (A) (A) (A) (A) (A) (A) (A) (A) (A) (A) (A) (A)
                 (A) (A) (A) (A) (A) (A) (A) (A) (A) (A) (A) (A)
                 (A) (A) (A) (A) (A) (A) (A) (A) (A) (A) (A) (A)
                 (A) (A) (A) (A) (A) (A) (A) (A) (A) (A) (A) (A)
                 (A) (A) (A) (A) (A) (A) (A) (A) (A) (A) (A) (A)
                 (A) (A) (A) (A) (A) (A) (A) (A) (A) (A) (A) (A)
                 (A) (A) (A) (A) (A) (A) (A) (A) (A) (A) (A) (A)
                 (A) (A) (A) (A) (A) (A) (A) (A) (A) (A) (A) (A)
                 (A) (A) (A) (A) (A) (A) (A) (A) (A) (A) (A) (A)
                 (A) (A) (A) (A) (A)
 Beta  Orbitals:
       Occupied  (A) (A) (A) (A) (A) (A) (A) (A) (A) (A) (A) (A)
                 (A) (A) (A) (A) (A) (A) (A) (A) (A) (A) (A) (A)
                 (A) (A) (A) (A) (A) (A) (A) (A) (A) (A) (A) (A)
                 (A) (A) (A) (A) (A) (A) (A) (A) (A) (A) (A) (A)
                 (A) (A) (A) (A) (A) (A) (A) (A) (A) (A) (A) (A)
                 (A) (A) (A) (A) (A) (A) (A) (A) (A) (A) (A) (A)
                 (A) (A) (A) (A) (A) (A) (A) (A) (A) (A) (A) (A)
                 (A) (A) (A) (A) (A) (A) (A) (A) (A) (A) (A) (A)
                 (A) (A) (A) (A) (A) (A) (A) (A) (A) (A) (A) (A)
                 (A) (A) (A) (A) (A) (A) (A) (A) (A) (A) (A) (A)
                 (A) (A) (A) (A) (A) (A) (A) (A) (A) (A) (A) (A)
                 (A) (A) (A) (A) (A) (A) (A) (A) (A) (A) (A) (A)
                 (A) (A) (A) (A) (A) (A) (A) (A) (A) (A) (A) (A)
                 (A) (A) (A) (A) (A) (A) (A) (A) (A) (A) (A) (A)
                 (A) (A) (A) (A) (A)
       Virtual   (A) (A) (A) (A) (A) (A) (A) (A) (A) (A) (A) (A)
                 (A) (A) (A) (A) (A) (A) (A) (A) (A) (A) (A) (A)
                 (A) (A) (A) (A) (A) (A) (A) (A) (A) (A) (A) (A)
                 (A) (A) (A) (A) (A) (A) (A) (A) (A) (A) (A) (A)
                 (A) (A) (A) (A) (A) (A) (A) (A) (A) (A) (A) (A)
                 (A) (A) (A) (A) (A) (A) (A) (A) (A) (A) (A) (A)
                 (A) (A) (A) (A) (A) (A) (A) (A) (A) (A) (A) (A)
                 (A) (A) (A) (A) (A) (A) (A) (A) (A) (A) (A) (A)
                 (A) (A) (A) (A) (A) (A) (A) (A) (A) (A) (A) (A)
                 (A) (A) (A) (A) (A) (A) (A) (A) (A) (A) (A) (A)
                 (A) (A) (A) (A) (A) (A) (A) (A) (A) (A) (A) (A)
                 (A) (A) (A) (A) (A) (A) (A) (A) (A) (A) (A) (A)
                 (A) (A) (A) (A) (A) (A) (A) (A) (A) (A) (A) (A)
                 (A) (A) (A) (A) (A) (A) (A) (A) (A) (A) (A) (A)
                 (A) (A) (A) (A) (A) (A) (A) (A) (A) (A) (A) (A)
                 (A) (A) (A) (A) (A) (A) (A) (A) (A) (A) (A) (A)
                 (A) (A) (A) (A) (A) (A) (A) (A) (A) (A) (A) (A)
                 (A) (A) (A) (A) (A) (A) (A) (A) (A) (A) (A) (A)
                 (A) (A) (A) (A) (A) (A) (A) (A) (A) (A) (A) (A)
                 (A) (A) (A) (A) (A) (A) (A) (A) (A) (A) (A) (A)
                 (A) (A) (A) (A) (A) (A) (A) (A) (A) (A) (A) (A)
                 (A) (A) (A) (A) (A) (A) (A) (A) (A) (A) (A) (A)
                 (A) (A) (A) (A) (A) (A) (A) (A) (A) (A) (A) (A)
                 (A) (A) (A) (A) (A) (A) (A) (A) (A) (A) (A) (A)
                 (A) (A) (A) (A) (A) (A) (A) (A) (A) (A) (A) (A)
                 (A) (A) (A) (A) (A) (A) (A) (A) (A) (A) (A) (A)
                 (A) (A) (A) (A) (A) (A) (A) (A) (A) (A) (A) (A)
                 (A) (A) (A) (A) (A) (A) (A) (A) (A) (A) (A) (A)
                 (A) (A) (A) (A) (A) (A) (A) (A) (A) (A) (A) (A)
                 (A) (A) (A) (A) (A) (A) (A) (A) (A) (A) (A) (A)
                 (A) (A) (A) (A) (A) (A) (A) (A) (A) (A) (A) (A)
                 (A) (A) (A) (A) (A) (A) (A) (A) (A) (A) (A) (A)
                 (A) (A) (A) (A) (A) (A) (A) (A) (A) (A) (A) (A)
                 (A) (A) (A) (A) (A) (A) (A) (A) (A) (A) (A) (A)
                 (A) (A) (A) (A) (A) (A) (A) (A) (A) (A) (A) (A)
                 (A) (A) (A) (A) (A) (A) (A) (A) (A) (A) (A) (A)
                 (A) (A) (A) (A) (A) (A) (A) (A) (A) (A) (A) (A)
                 (A) (A) (A) (A) (A) (A) (A) (A) (A) (A) (A) (A)
                 (A) (A) (A) (A) (A) (A) (A) (A) (A) (A) (A) (A)
                 (A) (A) (A) (A) (A) (A) (A) (A) (A) (A) (A) (A)
                 (A) (A) (A) (A) (A) (A) (A) (A) (A) (A) (A) (A)
                 (A) (A) (A) (A) (A) (A) (A) (A) (A) (A) (A) (A)
                 (A) (A) (A) (A) (A) (A) (A) (A) (A) (A) (A) (A)
                 (A) (A) (A) (A) (A) (A) (A) (A) (A) (A) (A) (A)
                 (A) (A) (A) (A) (A) (A) (A) (A) (A) (A) (A) (A)
                 (A) (A) (A) (A) (A) (A) (A) (A) (A) (A) (A) (A)
                 (A) (A) (A) (A) (A) (A) (A) (A) (A) (A) (A) (A)
                 (A) (A) (A) (A) (A) (A) (A) (A) (A) (A) (A) (A)
                 (A) (A) (A) (A) (A) (A) (A) (A) (A) (A) (A) (A)
                 (A) (A) (A) (A) (A) (A) (A) (A) (A) (A) (A) (A)
                 (A) (A) (A) (A) (A) (A) (A) (A) (A) (A) (A) (A)
                 (A) (A) (A) (A) (A) (A) (A) (A) (A) (A) (A) (A)
                 (A) (A) (A) (A) (A) (A) (A) (A) (A) (A) (A) (A)
                 (A) (A) (A) (A) (A) (A) (A) (A) (A) (A) (A) (A)
                 (A) (A) (A) (A) (A) (A) (A) (A) (A) (A) (A) (A)
                 (A) (A) (A) (A) (A) (A) (A) (A) (A) (A) (A) (A)
                 (A) (A) (A) (A) (A) (A) (A) (A) (A) (A) (A) (A)
                 (A) (A) (A) (A) (A) (A) (A) (A) (A) (A) (A) (A)
                 (A) (A) (A) (A) (A) (A) (A) (A) (A) (A) (A) (A)
                 (A) (A) (A) (A) (A) (A) (A) (A) (A) (A) (A) (A)
                 (A) (A) (A) (A) (A) (A) (A) (A) (A) (A) (A) (A)
                 (A) (A) (A) (A) (A) (A) (A) (A) (A) (A) (A) (A)
                 (A) (A) (A) (A) (A) (A) (A) (A) (A) (A) (A) (A)
                 (A) (A) (A) (A) (A) (A) (A) (A) (A) (A) (A) (A)
                 (A) (A) (A) (A) (A) (A) (A) (A) (A) (A) (A) (A)
                 (A) (A) (A) (A) (A) (A) (A) (A) (A) (A) (A) (A)
                 (A) (A) (A) (A) (A) (A) (A) (A) (A) (A) (A) (A)
                 (A) (A) (A) (A) (A) (A) (A) (A) (A) (A) (A) (A)
                 (A) (A) (A) (A) (A) (A) (A) (A) (A) (A) (A) (A)
                 (A) (A) (A) (A) (A) (A) (A) (A) (A) (A) (A) (A)
                 (A) (A) (A) (A) (A) (A) (A) (A) (A) (A) (A) (A)
                 (A) (A) (A) (A) (A) (A) (A) (A) (A) (A) (A) (A)
                 (A) (A) (A) (A) (A) (A) (A) (A) (A) (A) (A) (A)
                 (A) (A) (A) (A) (A) (A) (A) (A) (A) (A) (A) (A)
                 (A) (A) (A) (A) (A) (A) (A) (A) (A) (A) (A) (A)
                 (A) (A) (A) (A) (A) (A) (A) (A) (A) (A) (A) (A)
                 (A) (A) (A) (A) (A) (A) (A) (A) (A) (A) (A) (A)
                 (A) (A) (A) (A) (A) (A) (A) (A) (A) (A) (A) (A)
                 (A) (A) (A) (A) (A) (A) (A) (A) (A) (A) (A) (A)
                 (A) (A) (A) (A) (A) (A) (A) (A) (A) (A) (A) (A)
                 (A) (A) (A) (A) (A) (A) (A) (A) (A) (A) (A) (A)
                 (A) (A) (A) (A) (A) (A) (A) (A) (A) (A) (A) (A)
                 (A) (A) (A) (A) (A) (A) (A) (A) (A) (A) (A) (A)
                 (A) (A) (A) (A) (A) (A) (A) (A) (A) (A) (A) (A)
                 (A) (A) (A) (A) (A) (A) (A) (A) (A) (A) (A) (A)
                 (A) (A) (A) (A) (A) (A) (A) (A) (A) (A) (A) (A)
                 (A) (A) (A) (A) (A) (A) (A) (A) (A) (A) (A) (A)
                 (A) (A) (A) (A) (A) (A) (A) (A) (A) (A) (A) (A)
                 (A) (A) (A) (A) (A) (A) (A) (A) (A) (A) (A) (A)
                 (A) (A) (A) (A) (A) (A) (A) (A) (A) (A) (A) (A)
                 (A) (A) (A) (A) (A) (A) (A) (A) (A) (A) (A) (A)
                 (A) (A) (A) (A) (A) (A) (A) (A) (A) (A) (A) (A)
                 (A) (A) (A) (A) (A) (A) (A) (A) (A) (A) (A) (A)
                 (A) (A) (A) (A) (A) (A) (A) (A) (A) (A) (A) (A)
                 (A) (A) (A) (A) (A) (A) (A) (A) (A) (A) (A) (A)
                 (A) (A) (A) (A) (A) (A) (A) (A) (A) (A) (A) (A)
                 (A) (A) (A) (A) (A) (A) (A) (A) (A) (A) (A) (A)
                 (A) (A) (A) (A) (A) (A) (A) (A) (A) (A) (A) (A)
                 (A) (A) (A) (A) (A) (A) (A) (A) (A) (A) (A) (A)
                 (A) (A) (A) (A) (A) (A) (A) (A) (A) (A) (A) (A)
                 (A) (A) (A) (A) (A) (A) (A) (A) (A) (A) (A) (A)
                 (A) (A) (A) (A) (A) (A) (A) (A) (A) (A) (A) (A)
                 (A) (A) (A) (A) (A) (A) (A) (A) (A) (A) (A) (A)
                 (A) (A) (A) (A) (A) (A) (A) (A) (A) (A) (A) (A)
                 (A) (A) (A) (A) (A) (A) (A) (A) (A) (A) (A) (A)
                 (A) (A) (A) (A) (A) (A) (A) (A) (A) (A) (A) (A)
                 (A) (A) (A) (A) (A) (A) (A) (A) (A) (A) (A) (A)
                 (A) (A) (A) (A) (A) (A) (A) (A) (A) (A) (A) (A)
                 (A) (A) (A) (A) (A) (A) (A) (A) (A) (A) (A) (A)
                 (A) (A) (A) (A) (A) (A) (A) (A) (A) (A) (A) (A)
                 (A) (A) (A) (A) (A) (A) (A) (A) (A) (A) (A) (A)
                 (A) (A) (A) (A) (A) (A) (A) (A) (A) (A) (A) (A)
                 (A) (A) (A) (A) (A) (A) (A) (A) (A) (A) (A) (A)
                 (A) (A) (A) (A) (A) (A) (A) (A) (A) (A) (A) (A)
                 (A) (A) (A) (A) (A) (A) (A) (A) (A) (A) (A) (A)
                 (A) (A) (A) (A) (A) (A) (A) (A) (A) (A) (A) (A)
                 (A) (A) (A) (A) (A) (A) (A) (A) (A) (A) (A) (A)
                 (A) (A) (A) (A) (A) (A) (A) (A) (A) (A) (A) (A)
                 (A) (A) (A) (A) (A) (A) (A) (A) (A) (A) (A) (A)
                 (A) (A) (A) (A) (A) (A) (A) (A) (A) (A) (A) (A)
                 (A) (A) (A) (A) (A) (A) (A) (A) (A) (A) (A) (A)
                 (A) (A) (A) (A) (A) (A) (A) (A) (A) (A) (A) (A)
                 (A) (A) (A) (A) (A) (A) (A) (A) (A) (A) (A) (A)
                 (A) (A) (A) (A) (A) (A) (A) (A) (A) (A) (A) (A)
                 (A) (A) (A) (A) (A) (A)
 The electronic state is 2-A.
 Alpha  occ. eigenvalues -- -256.37406 -89.07392 -30.24228 -26.08860 -26.08714
 Alpha  occ. eigenvalues --  -26.06003 -14.52261 -14.48393 -14.45808 -14.45620
 Alpha  occ. eigenvalues --  -14.45219 -14.45193 -10.36735 -10.34102 -10.32657
 Alpha  occ. eigenvalues --  -10.32502 -10.32387 -10.32344 -10.32323 -10.32287
 Alpha  occ. eigenvalues --  -10.32214 -10.32158 -10.32157 -10.31668 -10.31600
 Alpha  occ. eigenvalues --  -10.29856 -10.29767 -10.29487 -10.29467 -10.29420
 Alpha  occ. eigenvalues --  -10.29391 -10.29360 -10.29331 -10.29330 -10.29242
 Alpha  occ. eigenvalues --  -10.29213 -10.29138 -10.29070 -10.28803 -10.28580
 Alpha  occ. eigenvalues --  -10.27790 -10.27755 -10.27723 -10.27710 -10.27698
 Alpha  occ. eigenvalues --  -10.27639 -10.27488 -10.27392 -10.27193  -8.10027
 Alpha  occ. eigenvalues --   -6.04564  -6.04303  -6.03868  -3.62680  -2.40893
 Alpha  occ. eigenvalues --   -2.40502  -2.34822  -1.16283  -1.08723  -1.07860
 Alpha  occ. eigenvalues --   -1.07511  -1.06689  -1.02083  -0.93481  -0.93346
 Alpha  occ. eigenvalues --   -0.92147  -0.91727  -0.91230  -0.90876  -0.90540
 Alpha  occ. eigenvalues --   -0.90458  -0.90198  -0.86654  -0.85782  -0.85442
 Alpha  occ. eigenvalues --   -0.85063  -0.84167  -0.82804  -0.81787  -0.81080
 Alpha  occ. eigenvalues --   -0.80077  -0.78391  -0.78174  -0.77934  -0.76251
 Alpha  occ. eigenvalues --   -0.75364  -0.74987  -0.74904  -0.71925  -0.70592
 Alpha  occ. eigenvalues --   -0.70279  -0.69851  -0.68680  -0.67975  -0.66558
 Alpha  occ. eigenvalues --   -0.64981  -0.64297  -0.63500  -0.63180  -0.61757
 Alpha  occ. eigenvalues --   -0.61640  -0.61282  -0.59134  -0.58754  -0.58310
 Alpha  occ. eigenvalues --   -0.58121  -0.58001  -0.57784  -0.55925  -0.55496
 Alpha  occ. eigenvalues --   -0.55184  -0.54853  -0.54477  -0.54398  -0.53915
 Alpha  occ. eigenvalues --   -0.53816  -0.53465  -0.53340  -0.53233  -0.53144
 Alpha  occ. eigenvalues --   -0.52973  -0.52686  -0.52349  -0.51988  -0.51930
 Alpha  occ. eigenvalues --   -0.51840  -0.51238  -0.50601  -0.50514  -0.50388
 Alpha  occ. eigenvalues --   -0.50287  -0.50069  -0.49941  -0.49732  -0.49450
 Alpha  occ. eigenvalues --   -0.49367  -0.48918  -0.48806  -0.48446  -0.48172
 Alpha  occ. eigenvalues --   -0.47927  -0.47724  -0.47535  -0.47333  -0.47105
 Alpha  occ. eigenvalues --   -0.46813  -0.46397  -0.45966  -0.45692  -0.45665
 Alpha  occ. eigenvalues --   -0.45094  -0.44764  -0.44310  -0.43584  -0.43494
 Alpha  occ. eigenvalues --   -0.42908  -0.42728  -0.42329  -0.41472  -0.40675
 Alpha  occ. eigenvalues --   -0.39786  -0.39637  -0.38974  -0.38597  -0.37731
 Alpha  occ. eigenvalues --   -0.37156  -0.37064  -0.34493  -0.33535  -0.33030
 Alpha  occ. eigenvalues --   -0.32421  -0.31749  -0.29437  -0.28829
 Alpha virt. eigenvalues --   -0.17759  -0.17629  -0.17307  -0.13459  -0.12055
 Alpha virt. eigenvalues --   -0.09285  -0.08916  -0.07950  -0.07686  -0.06291
 Alpha virt. eigenvalues --   -0.05528  -0.05299  -0.04778  -0.04442  -0.03746
 Alpha virt. eigenvalues --   -0.03097  -0.02920  -0.02443  -0.02322  -0.02093
 Alpha virt. eigenvalues --   -0.01730  -0.01141  -0.01113  -0.00538  -0.00231
 Alpha virt. eigenvalues --   -0.00037   0.00533   0.00816   0.01035   0.01222
 Alpha virt. eigenvalues --    0.01506   0.01619   0.02276   0.02410   0.02624
 Alpha virt. eigenvalues --    0.02752   0.03206   0.03308   0.03394   0.03633
 Alpha virt. eigenvalues --    0.03790   0.04106   0.04243   0.04313   0.04512
 Alpha virt. eigenvalues --    0.04641   0.04693   0.04910   0.05258   0.05457
 Alpha virt. eigenvalues --    0.05594   0.05677   0.05819   0.06108   0.06282
 Alpha virt. eigenvalues --    0.06574   0.06604   0.06705   0.07316   0.07580
 Alpha virt. eigenvalues --    0.07721   0.07818   0.07959   0.08368   0.08478
 Alpha virt. eigenvalues --    0.08563   0.08809   0.08915   0.09120   0.09402
 Alpha virt. eigenvalues --    0.09607   0.09784   0.10208   0.10368   0.10629
 Alpha virt. eigenvalues --    0.10799   0.11071   0.11361   0.11394   0.11813
 Alpha virt. eigenvalues --    0.12333   0.12539   0.12614   0.12825   0.13216
 Alpha virt. eigenvalues --    0.13521   0.13656   0.13806   0.14199   0.14300
 Alpha virt. eigenvalues --    0.14678   0.15040   0.15206   0.15525   0.16079
 Alpha virt. eigenvalues --    0.16162   0.16446   0.16606   0.16909   0.17084
 Alpha virt. eigenvalues --    0.17237   0.17532   0.17755   0.17816   0.18135
 Alpha virt. eigenvalues --    0.18381   0.18603   0.18878   0.19067   0.19548
 Alpha virt. eigenvalues --    0.19678   0.19920   0.20265   0.20375   0.20480
 Alpha virt. eigenvalues --    0.20791   0.20976   0.21095   0.21445   0.21612
 Alpha virt. eigenvalues --    0.21887   0.22054   0.22222   0.22853   0.22966
 Alpha virt. eigenvalues --    0.23032   0.23444   0.23621   0.24018   0.24232
 Alpha virt. eigenvalues --    0.24440   0.24824   0.25027   0.25266   0.25388
 Alpha virt. eigenvalues --    0.26160   0.26215   0.26508   0.26934   0.27177
 Alpha virt. eigenvalues --    0.27572   0.27629   0.27758   0.27978   0.28303
 Alpha virt. eigenvalues --    0.28726   0.28993   0.29043   0.29106   0.29391
 Alpha virt. eigenvalues --    0.29776   0.30077   0.30112   0.30356   0.30494
 Alpha virt. eigenvalues --    0.30594   0.31047   0.31142   0.31366   0.31600
 Alpha virt. eigenvalues --    0.31769   0.31946   0.32135   0.32534   0.32589
 Alpha virt. eigenvalues --    0.32742   0.33268   0.33421   0.33519   0.33773
 Alpha virt. eigenvalues --    0.33874   0.33995   0.34178   0.34530   0.34722
 Alpha virt. eigenvalues --    0.34924   0.34941   0.35240   0.35582   0.35698
 Alpha virt. eigenvalues --    0.35943   0.36208   0.36443   0.36553   0.36779
 Alpha virt. eigenvalues --    0.36824   0.37190   0.37398   0.37543   0.37814
 Alpha virt. eigenvalues --    0.37954   0.38119   0.38365   0.38608   0.38666
 Alpha virt. eigenvalues --    0.38764   0.39053   0.39127   0.39376   0.39766
 Alpha virt. eigenvalues --    0.39827   0.40105   0.40357   0.40393   0.40465
 Alpha virt. eigenvalues --    0.40807   0.40958   0.41034   0.41262   0.41522
 Alpha virt. eigenvalues --    0.41803   0.42085   0.42128   0.42243   0.42379
 Alpha virt. eigenvalues --    0.42654   0.42754   0.43052   0.43240   0.43421
 Alpha virt. eigenvalues --    0.43600   0.43753   0.43834   0.44282   0.44442
 Alpha virt. eigenvalues --    0.44611   0.44896   0.44932   0.45236   0.45477
 Alpha virt. eigenvalues --    0.45751   0.46080   0.46254   0.46471   0.46646
 Alpha virt. eigenvalues --    0.46802   0.47131   0.47415   0.47512   0.47787
 Alpha virt. eigenvalues --    0.47962   0.48303   0.48582   0.48654   0.48983
 Alpha virt. eigenvalues --    0.49699   0.49830   0.49898   0.50281   0.50498
 Alpha virt. eigenvalues --    0.50695   0.50888   0.51050   0.51566   0.51841
 Alpha virt. eigenvalues --    0.52420   0.52894   0.53154   0.53288   0.53550
 Alpha virt. eigenvalues --    0.53724   0.53964   0.54221   0.54385   0.54704
 Alpha virt. eigenvalues --    0.54970   0.55123   0.55361   0.55514   0.55893
 Alpha virt. eigenvalues --    0.56091   0.56455   0.56984   0.57400   0.57585
 Alpha virt. eigenvalues --    0.57723   0.57870   0.58484   0.58712   0.59042
 Alpha virt. eigenvalues --    0.59255   0.59320   0.59583   0.60529   0.60607
 Alpha virt. eigenvalues --    0.61058   0.61614   0.61651   0.62089   0.62368
 Alpha virt. eigenvalues --    0.62443   0.62838   0.63157   0.63251   0.63534
 Alpha virt. eigenvalues --    0.63928   0.64227   0.64421   0.64796   0.65341
 Alpha virt. eigenvalues --    0.65671   0.65824   0.66170   0.66695   0.66865
 Alpha virt. eigenvalues --    0.66945   0.67620   0.67767   0.68126   0.68268
 Alpha virt. eigenvalues --    0.68541   0.68594   0.69357   0.69684   0.69954
 Alpha virt. eigenvalues --    0.70427   0.70527   0.70622   0.71098   0.71464
 Alpha virt. eigenvalues --    0.71872   0.72257   0.72432   0.72536   0.73395
 Alpha virt. eigenvalues --    0.73516   0.73999   0.74352   0.74662   0.74909
 Alpha virt. eigenvalues --    0.75198   0.75627   0.76102   0.76694   0.76947
 Alpha virt. eigenvalues --    0.77433   0.77754   0.78060   0.78344   0.78472
 Alpha virt. eigenvalues --    0.79104   0.79324   0.79691   0.80100   0.80507
 Alpha virt. eigenvalues --    0.80832   0.81169   0.81376   0.81672   0.82310
 Alpha virt. eigenvalues --    0.82640   0.82779   0.82949   0.83293   0.83762
 Alpha virt. eigenvalues --    0.83825   0.84055   0.84250   0.84835   0.84954
 Alpha virt. eigenvalues --    0.85120   0.85669   0.86025   0.86365   0.86960
 Alpha virt. eigenvalues --    0.87012   0.87152   0.87553   0.87943   0.88124
 Alpha virt. eigenvalues --    0.88511   0.88981   0.89353   0.89581   0.89628
 Alpha virt. eigenvalues --    0.89947   0.90573   0.90948   0.91308   0.91551
 Alpha virt. eigenvalues --    0.91684   0.92080   0.92319   0.92459   0.92715
 Alpha virt. eigenvalues --    0.93180   0.93614   0.93715   0.93856   0.94237
 Alpha virt. eigenvalues --    0.94355   0.94738   0.95333   0.95616   0.95807
 Alpha virt. eigenvalues --    0.96315   0.96615   0.96737   0.96934   0.97397
 Alpha virt. eigenvalues --    0.97807   0.98167   0.98534   0.98782   0.99262
 Alpha virt. eigenvalues --    0.99658   0.99928   1.00471   1.00630   1.01228
 Alpha virt. eigenvalues --    1.01327   1.01595   1.02076   1.02593   1.03172
 Alpha virt. eigenvalues --    1.03548   1.03747   1.03955   1.04470   1.04766
 Alpha virt. eigenvalues --    1.05265   1.05494   1.06143   1.06478   1.06511
 Alpha virt. eigenvalues --    1.06930   1.07322   1.07843   1.08242   1.08631
 Alpha virt. eigenvalues --    1.08815   1.09251   1.09744   1.10175   1.10212
 Alpha virt. eigenvalues --    1.10549   1.10862   1.11091   1.11652   1.12033
 Alpha virt. eigenvalues --    1.12148   1.12834   1.12945   1.13227   1.13367
 Alpha virt. eigenvalues --    1.13914   1.14339   1.15202   1.15608   1.16031
 Alpha virt. eigenvalues --    1.16213   1.16515   1.17094   1.17292   1.17663
 Alpha virt. eigenvalues --    1.17920   1.18473   1.18584   1.18918   1.19250
 Alpha virt. eigenvalues --    1.19749   1.19991   1.20282   1.20627   1.20905
 Alpha virt. eigenvalues --    1.20906   1.21324   1.22029   1.22191   1.22979
 Alpha virt. eigenvalues --    1.23275   1.23605   1.24245   1.25122   1.25253
 Alpha virt. eigenvalues --    1.25973   1.26326   1.26578   1.27109   1.27706
 Alpha virt. eigenvalues --    1.28246   1.28770   1.29174   1.30071   1.30267
 Alpha virt. eigenvalues --    1.30707   1.31032   1.31801   1.32260   1.32685
 Alpha virt. eigenvalues --    1.32847   1.33925   1.34482   1.34744   1.35637
 Alpha virt. eigenvalues --    1.35763   1.36156   1.36661   1.37448   1.37686
 Alpha virt. eigenvalues --    1.37795   1.37978   1.38626   1.38824   1.39000
 Alpha virt. eigenvalues --    1.39304   1.39446   1.39933   1.40065   1.40120
 Alpha virt. eigenvalues --    1.40636   1.41444   1.41946   1.42057   1.42398
 Alpha virt. eigenvalues --    1.42682   1.42864   1.43097   1.43288   1.43572
 Alpha virt. eigenvalues --    1.43695   1.44032   1.44583   1.44752   1.45055
 Alpha virt. eigenvalues --    1.45418   1.45541   1.45782   1.45964   1.46106
 Alpha virt. eigenvalues --    1.46343   1.46663   1.46847   1.47188   1.47381
 Alpha virt. eigenvalues --    1.47719   1.47923   1.47969   1.48326   1.48542
 Alpha virt. eigenvalues --    1.48812   1.49270   1.49370   1.49557   1.49889
 Alpha virt. eigenvalues --    1.50224   1.50484   1.50780   1.51167   1.51396
 Alpha virt. eigenvalues --    1.51552   1.52045   1.52344   1.52494   1.52547
 Alpha virt. eigenvalues --    1.53052   1.53482   1.53710   1.53895   1.54407
 Alpha virt. eigenvalues --    1.54584   1.54817   1.55062   1.55159   1.55618
 Alpha virt. eigenvalues --    1.55957   1.56084   1.56626   1.56715   1.57205
 Alpha virt. eigenvalues --    1.57502   1.57671   1.58088   1.58317   1.58430
 Alpha virt. eigenvalues --    1.58615   1.58975   1.59225   1.59757   1.60007
 Alpha virt. eigenvalues --    1.60310   1.60752   1.61029   1.61155   1.61508
 Alpha virt. eigenvalues --    1.61934   1.62106   1.62189   1.62434   1.62711
 Alpha virt. eigenvalues --    1.63011   1.63782   1.63950   1.64101   1.64505
 Alpha virt. eigenvalues --    1.64706   1.65074   1.65588   1.65936   1.66424
 Alpha virt. eigenvalues --    1.66767   1.67381   1.67451   1.68262   1.68924
 Alpha virt. eigenvalues --    1.69167   1.69481   1.69995   1.70511   1.71092
 Alpha virt. eigenvalues --    1.71354   1.71930   1.72233   1.73062   1.73209
 Alpha virt. eigenvalues --    1.73778   1.74065   1.74586   1.75165   1.75721
 Alpha virt. eigenvalues --    1.76062   1.76189   1.76500   1.76862   1.77239
 Alpha virt. eigenvalues --    1.77467   1.77755   1.77788   1.78253   1.78791
 Alpha virt. eigenvalues --    1.79062   1.79379   1.79617   1.79852   1.80231
 Alpha virt. eigenvalues --    1.80350   1.81115   1.81744   1.82057   1.82794
 Alpha virt. eigenvalues --    1.83318   1.83917   1.84160   1.84886   1.85008
 Alpha virt. eigenvalues --    1.85800   1.86205   1.86811   1.86978   1.87128
 Alpha virt. eigenvalues --    1.87903   1.87987   1.88338   1.88512   1.89232
 Alpha virt. eigenvalues --    1.89674   1.90032   1.90298   1.90476   1.90862
 Alpha virt. eigenvalues --    1.91259   1.91875   1.92098   1.92573   1.92918
 Alpha virt. eigenvalues --    1.93797   1.93960   1.94154   1.94287   1.95189
 Alpha virt. eigenvalues --    1.95790   1.96402   1.96791   1.97427   1.97989
 Alpha virt. eigenvalues --    1.98459   1.99016   1.99113   1.99294   2.00013
 Alpha virt. eigenvalues --    2.00297   2.00719   2.01061   2.01249   2.01899
 Alpha virt. eigenvalues --    2.02236   2.02387   2.03098   2.03692   2.03906
 Alpha virt. eigenvalues --    2.04018   2.04358   2.04704   2.05144   2.05473
 Alpha virt. eigenvalues --    2.05670   2.06494   2.06556   2.07016   2.07535
 Alpha virt. eigenvalues --    2.08125   2.08400   2.08736   2.08845   2.09431
 Alpha virt. eigenvalues --    2.09866   2.10521   2.10774   2.10884   2.11084
 Alpha virt. eigenvalues --    2.11377   2.11966   2.12409   2.12588   2.13369
 Alpha virt. eigenvalues --    2.13916   2.14515   2.14782   2.15199   2.16181
 Alpha virt. eigenvalues --    2.16251   2.16621   2.17288   2.17468   2.17980
 Alpha virt. eigenvalues --    2.18464   2.18656   2.18777   2.19451   2.19750
 Alpha virt. eigenvalues --    2.20125   2.20533   2.20901   2.21400   2.21831
 Alpha virt. eigenvalues --    2.22362   2.22436   2.22964   2.23820   2.24104
 Alpha virt. eigenvalues --    2.24320   2.24728   2.24953   2.25633   2.25963
 Alpha virt. eigenvalues --    2.26535   2.26822   2.27504   2.27837   2.28033
 Alpha virt. eigenvalues --    2.28140   2.28570   2.28607   2.29084   2.29436
 Alpha virt. eigenvalues --    2.29715   2.30031   2.30708   2.31387   2.32021
 Alpha virt. eigenvalues --    2.32641   2.32904   2.33187   2.33381   2.33618
 Alpha virt. eigenvalues --    2.34114   2.34735   2.35136   2.35500   2.35810
 Alpha virt. eigenvalues --    2.35905   2.36670   2.36787   2.37193   2.37425
 Alpha virt. eigenvalues --    2.37549   2.37753   2.38284   2.38595   2.39019
 Alpha virt. eigenvalues --    2.39455   2.39892   2.40448   2.40682   2.41196
 Alpha virt. eigenvalues --    2.41307   2.42020   2.42188   2.42846   2.43278
 Alpha virt. eigenvalues --    2.43365   2.43948   2.44176   2.44346   2.44482
 Alpha virt. eigenvalues --    2.44713   2.45585   2.45810   2.46420   2.46595
 Alpha virt. eigenvalues --    2.47042   2.47224   2.47665   2.47867   2.48240
 Alpha virt. eigenvalues --    2.48471   2.48888   2.48909   2.49706   2.49826
 Alpha virt. eigenvalues --    2.50192   2.50332   2.50576   2.51101   2.51543
 Alpha virt. eigenvalues --    2.51765   2.52247   2.52388   2.52608   2.52834
 Alpha virt. eigenvalues --    2.53542   2.53836   2.54072   2.54375   2.54527
 Alpha virt. eigenvalues --    2.54904   2.55424   2.55682   2.56022   2.56728
 Alpha virt. eigenvalues --    2.57048   2.57335   2.57571   2.57995   2.58031
 Alpha virt. eigenvalues --    2.58748   2.58915   2.59634   2.59885   2.60108
 Alpha virt. eigenvalues --    2.60355   2.60389   2.60835   2.61205   2.61936
 Alpha virt. eigenvalues --    2.62163   2.62442   2.62860   2.63214   2.63324
 Alpha virt. eigenvalues --    2.63584   2.63924   2.64169   2.65056   2.65205
 Alpha virt. eigenvalues --    2.65683   2.66476   2.66642   2.66777   2.67347
 Alpha virt. eigenvalues --    2.67606   2.68307   2.68526   2.68774   2.69221
 Alpha virt. eigenvalues --    2.69979   2.70184   2.70371   2.71145   2.71507
 Alpha virt. eigenvalues --    2.71970   2.72158   2.72404   2.72682   2.73031
 Alpha virt. eigenvalues --    2.73780   2.73816   2.74155   2.74452   2.74996
 Alpha virt. eigenvalues --    2.75322   2.75790   2.76200   2.76788   2.76997
 Alpha virt. eigenvalues --    2.77142   2.77601   2.77680   2.78286   2.78948
 Alpha virt. eigenvalues --    2.79520   2.79994   2.80164   2.80517   2.80677
 Alpha virt. eigenvalues --    2.80831   2.81772   2.82117   2.82474   2.82981
 Alpha virt. eigenvalues --    2.83259   2.83787   2.83898   2.84349   2.84508
 Alpha virt. eigenvalues --    2.84808   2.85454   2.85518   2.85885   2.86334
 Alpha virt. eigenvalues --    2.86862   2.87087   2.87341   2.87526   2.87774
 Alpha virt. eigenvalues --    2.88119   2.88381   2.88763   2.88860   2.89338
 Alpha virt. eigenvalues --    2.89706   2.90084   2.90513   2.90605   2.91027
 Alpha virt. eigenvalues --    2.91255   2.91749   2.92118   2.92428   2.92552
 Alpha virt. eigenvalues --    2.93077   2.93374   2.94224   2.94697   2.94988
 Alpha virt. eigenvalues --    2.95769   2.96256   2.96421   2.96525   2.97021
 Alpha virt. eigenvalues --    2.97571   2.97767   2.98044   2.98652   2.98763
 Alpha virt. eigenvalues --    2.99005   2.99285   2.99583   2.99872   3.00436
 Alpha virt. eigenvalues --    3.00543   3.00939   3.01020   3.01550   3.01586
 Alpha virt. eigenvalues --    3.02291   3.02482   3.02830   3.03123   3.03228
 Alpha virt. eigenvalues --    3.03713   3.04073   3.04197   3.04601   3.04984
 Alpha virt. eigenvalues --    3.05256   3.05864   3.06009   3.06664   3.06918
 Alpha virt. eigenvalues --    3.07032   3.07164   3.07588   3.07896   3.08055
 Alpha virt. eigenvalues --    3.08324   3.08437   3.08663   3.09086   3.09413
 Alpha virt. eigenvalues --    3.09683   3.10033   3.10150   3.10703   3.10939
 Alpha virt. eigenvalues --    3.11414   3.11719   3.11968   3.12154   3.12203
 Alpha virt. eigenvalues --    3.12768   3.13243   3.13622   3.13873   3.14134
 Alpha virt. eigenvalues --    3.14502   3.14571   3.14979   3.15152   3.15378
 Alpha virt. eigenvalues --    3.15614   3.15874   3.16171   3.16367   3.16542
 Alpha virt. eigenvalues --    3.16575   3.17447   3.17533   3.17839   3.18103
 Alpha virt. eigenvalues --    3.18205   3.18670   3.18786   3.19225   3.19373
 Alpha virt. eigenvalues --    3.19493   3.20002   3.20513   3.20656   3.20850
 Alpha virt. eigenvalues --    3.20944   3.21170   3.21309   3.21505   3.21831
 Alpha virt. eigenvalues --    3.22121   3.22345   3.22848   3.23239   3.23701
 Alpha virt. eigenvalues --    3.23884   3.24186   3.24558   3.24771   3.24866
 Alpha virt. eigenvalues --    3.25065   3.25344   3.25727   3.25970   3.25996
 Alpha virt. eigenvalues --    3.26379   3.26488   3.26694   3.27208   3.27331
 Alpha virt. eigenvalues --    3.27528   3.27607   3.28111   3.28642   3.28759
 Alpha virt. eigenvalues --    3.28863   3.29061   3.29442   3.29523   3.29639
 Alpha virt. eigenvalues --    3.29915   3.30252   3.30780   3.31107   3.31318
 Alpha virt. eigenvalues --    3.31733   3.31975   3.32221   3.32937   3.33168
 Alpha virt. eigenvalues --    3.33327   3.33782   3.33968   3.34145   3.34525
 Alpha virt. eigenvalues --    3.34974   3.35415   3.35870   3.36144   3.36504
 Alpha virt. eigenvalues --    3.36919   3.37180   3.38009   3.38162   3.38413
 Alpha virt. eigenvalues --    3.38652   3.39679   3.40083   3.40124   3.40683
 Alpha virt. eigenvalues --    3.40990   3.41220   3.41558   3.42178   3.42411
 Alpha virt. eigenvalues --    3.42723   3.43425   3.44044   3.44481   3.44825
 Alpha virt. eigenvalues --    3.44992   3.45689   3.45903   3.46223   3.46667
 Alpha virt. eigenvalues --    3.46926   3.47139   3.47831   3.48159   3.48449
 Alpha virt. eigenvalues --    3.48777   3.48938   3.49178   3.49585   3.49871
 Alpha virt. eigenvalues --    3.50552   3.50577   3.50851   3.51650   3.52014
 Alpha virt. eigenvalues --    3.52711   3.52789   3.53367   3.54145   3.54648
 Alpha virt. eigenvalues --    3.54948   3.55613   3.55830   3.56273   3.56612
 Alpha virt. eigenvalues --    3.57015   3.57382   3.57631   3.58485   3.58572
 Alpha virt. eigenvalues --    3.58651   3.59091   3.59572   3.59983   3.60546
 Alpha virt. eigenvalues --    3.60919   3.61507   3.61723   3.61971   3.62393
 Alpha virt. eigenvalues --    3.62514   3.62735   3.63231   3.63637   3.64185
 Alpha virt. eigenvalues --    3.64648   3.64837   3.65212   3.65503   3.65810
 Alpha virt. eigenvalues --    3.66208   3.66658   3.67236   3.67752   3.68254
 Alpha virt. eigenvalues --    3.68586   3.69202   3.69653   3.70238   3.70991
 Alpha virt. eigenvalues --    3.71098   3.71693   3.72063   3.72507   3.72573
 Alpha virt. eigenvalues --    3.73822   3.74650   3.74922   3.75340   3.75542
 Alpha virt. eigenvalues --    3.76710   3.77470   3.77509   3.77860   3.78391
 Alpha virt. eigenvalues --    3.79412   3.79587   3.80330   3.80775   3.81221
 Alpha virt. eigenvalues --    3.81676   3.82108   3.82383   3.82806   3.83259
 Alpha virt. eigenvalues --    3.83828   3.84467   3.85123   3.86109   3.86630
 Alpha virt. eigenvalues --    3.87779   3.88397   3.88651   3.89238   3.89497
 Alpha virt. eigenvalues --    3.89917   3.90344   3.90955   3.91100   3.91259
 Alpha virt. eigenvalues --    3.92017   3.92258   3.92444   3.93538   3.94074
 Alpha virt. eigenvalues --    3.94618   3.94946   3.95161   3.95549   3.96273
 Alpha virt. eigenvalues --    3.96871   3.97805   3.98509   3.99149   3.99722
 Alpha virt. eigenvalues --    4.00649   4.01224   4.01345   4.01853   4.02732
 Alpha virt. eigenvalues --    4.03695   4.04571   4.05093   4.05443   4.05836
 Alpha virt. eigenvalues --    4.06389   4.07051   4.07664   4.08469   4.08927
 Alpha virt. eigenvalues --    4.09450   4.09570   4.10030   4.10693   4.11225
 Alpha virt. eigenvalues --    4.12102   4.12639   4.12802   4.13667   4.14085
 Alpha virt. eigenvalues --    4.14790   4.15488   4.15946   4.16475   4.16794
 Alpha virt. eigenvalues --    4.17372   4.17667   4.18703   4.19422   4.19680
 Alpha virt. eigenvalues --    4.20148   4.20452   4.21637   4.22203   4.22942
 Alpha virt. eigenvalues --    4.23306   4.23746   4.24392   4.24933   4.25102
 Alpha virt. eigenvalues --    4.25228   4.25665   4.26065   4.26364   4.27501
 Alpha virt. eigenvalues --    4.27598   4.28849   4.29512   4.30270   4.30827
 Alpha virt. eigenvalues --    4.30993   4.31319   4.31577   4.32205   4.32488
 Alpha virt. eigenvalues --    4.32808   4.33580   4.33865   4.34406   4.34927
 Alpha virt. eigenvalues --    4.35510   4.35810   4.36198   4.36473   4.36818
 Alpha virt. eigenvalues --    4.36971   4.37363   4.37749   4.38808   4.39529
 Alpha virt. eigenvalues --    4.40143   4.40902   4.41456   4.42020   4.42936
 Alpha virt. eigenvalues --    4.43936   4.44457   4.45142   4.45653   4.46460
 Alpha virt. eigenvalues --    4.47493   4.47605   4.48683   4.49170   4.49672
 Alpha virt. eigenvalues --    4.50327   4.52253   4.53272   4.54695   4.55100
 Alpha virt. eigenvalues --    4.56374   4.57594   4.58447   4.59246   4.60008
 Alpha virt. eigenvalues --    4.60133   4.60495   4.61142   4.61649   4.62775
 Alpha virt. eigenvalues --    4.62939   4.63560   4.64643   4.64782   4.65764
 Alpha virt. eigenvalues --    4.66058   4.66654   4.67990   4.69918   4.71369
 Alpha virt. eigenvalues --    4.71844   4.72581   4.73397   4.73585   4.74439
 Alpha virt. eigenvalues --    4.74871   4.75373   4.75709   4.76396   4.76450
 Alpha virt. eigenvalues --    4.76728   4.77164   4.78394   4.78827   4.79983
 Alpha virt. eigenvalues --    4.80746   4.81492   4.83559   4.84011   4.85178
 Alpha virt. eigenvalues --    4.85403   4.85702   4.86505   4.87165   4.87861
 Alpha virt. eigenvalues --    4.89044   4.89926   4.91188   4.91939   4.92191
 Alpha virt. eigenvalues --    4.93579   4.93844   4.95404   4.95543   4.96302
 Alpha virt. eigenvalues --    4.96534   4.97423   4.98144   5.00632   5.01704
 Alpha virt. eigenvalues --    5.02201   5.03579   5.05231   5.05449   5.07822
 Alpha virt. eigenvalues --    5.10275   5.10681   5.11039   5.11425   5.11947
 Alpha virt. eigenvalues --    5.13315   5.13508   5.16059   5.17149   5.18123
 Alpha virt. eigenvalues --    5.19034   5.19393   5.20296   5.22109   5.25132
 Alpha virt. eigenvalues --    5.25890   5.27359   5.28016   5.28337   5.28724
 Alpha virt. eigenvalues --    5.29005   5.30505   5.31969   5.32701   5.33808
 Alpha virt. eigenvalues --    5.35825   5.37469   5.38368   5.39732   5.40945
 Alpha virt. eigenvalues --    5.41116   5.42623   5.42880   5.47385   5.49645
 Alpha virt. eigenvalues --    5.51224   5.51525   5.53192   5.53524   5.54112
 Alpha virt. eigenvalues --    5.55944   5.56711   5.57447   5.58321   5.59122
 Alpha virt. eigenvalues --    5.61991   5.64062   5.66927   5.68046   5.71244
 Alpha virt. eigenvalues --    5.76461   5.77552   5.83047   5.83761   5.86487
 Alpha virt. eigenvalues --    5.89714   5.90390   5.91396   5.92708   5.93204
 Alpha virt. eigenvalues --    5.99159   6.02902   6.03374   6.04449   6.05473
 Alpha virt. eigenvalues --    6.07722   6.11326   6.16703   6.23672   6.24933
 Alpha virt. eigenvalues --    6.30994   9.16759   9.33767   9.44865  19.89195
 Alpha virt. eigenvalues --   22.27328  22.27637  22.31123  22.35426  22.37074
 Alpha virt. eigenvalues --   22.37795  22.38495  22.42464  22.44217  22.45270
 Alpha virt. eigenvalues --   22.53675  22.54436  22.72016  22.77819  22.78783
 Alpha virt. eigenvalues --   22.83979  22.86582  22.86841  22.87849  22.90420
 Alpha virt. eigenvalues --   22.94522  22.95345  23.00992  23.06070  23.18593
 Alpha virt. eigenvalues --   23.18927  23.21266  23.22632  23.31706  23.33430
 Alpha virt. eigenvalues --   23.41115  23.41682  23.46040  23.64699  23.69377
 Alpha virt. eigenvalues --   23.70457  23.80429  32.31644  32.73619  32.83868
 Alpha virt. eigenvalues --   32.92347  32.98275  33.04459
  Beta  occ. eigenvalues -- -256.37371 -89.07412 -30.22027 -26.06435 -26.06335
  Beta  occ. eigenvalues --  -26.05298 -14.52260 -14.48445 -14.45846 -14.45657
  Beta  occ. eigenvalues --  -14.45273 -14.45246 -10.36723 -10.34103 -10.32649
  Beta  occ. eigenvalues --  -10.32498 -10.32381 -10.32346 -10.32319 -10.32281
  Beta  occ. eigenvalues --  -10.32214 -10.32155 -10.32154 -10.31665 -10.31598
  Beta  occ. eigenvalues --  -10.29835 -10.29767 -10.29472 -10.29448 -10.29422
  Beta  occ. eigenvalues --  -10.29373 -10.29366 -10.29336 -10.29334 -10.29248
  Beta  occ. eigenvalues --  -10.29216 -10.29141 -10.29070 -10.28810 -10.28581
  Beta  occ. eigenvalues --  -10.27792 -10.27755 -10.27725 -10.27712 -10.27698
  Beta  occ. eigenvalues --  -10.27639 -10.27478 -10.27392 -10.27191  -8.10046
  Beta  occ. eigenvalues --   -6.04577  -6.04330  -6.03916  -3.57331  -2.33269
  Beta  occ. eigenvalues --   -2.33058  -2.32811  -1.16290  -1.08735  -1.07846
  Beta  occ. eigenvalues --   -1.07559  -1.06709  -1.02107  -0.93523  -0.93346
  Beta  occ. eigenvalues --   -0.92126  -0.91734  -0.91217  -0.90871  -0.90548
  Beta  occ. eigenvalues --   -0.90467  -0.90196  -0.86650  -0.85791  -0.85440
  Beta  occ. eigenvalues --   -0.85074  -0.84164  -0.82802  -0.81782  -0.81079
  Beta  occ. eigenvalues --   -0.80082  -0.78396  -0.78181  -0.77948  -0.76274
  Beta  occ. eigenvalues --   -0.75373  -0.74984  -0.74904  -0.71922  -0.70590
  Beta  occ. eigenvalues --   -0.70292  -0.69857  -0.68674  -0.67975  -0.66548
  Beta  occ. eigenvalues --   -0.64984  -0.64304  -0.63504  -0.63177  -0.61770
  Beta  occ. eigenvalues --   -0.61661  -0.61296  -0.59108  -0.58735  -0.58299
  Beta  occ. eigenvalues --   -0.58118  -0.57995  -0.57752  -0.55917  -0.55490
  Beta  occ. eigenvalues --   -0.55026  -0.54796  -0.54474  -0.54376  -0.53894
  Beta  occ. eigenvalues --   -0.53801  -0.53445  -0.53319  -0.53218  -0.53147
  Beta  occ. eigenvalues --   -0.52964  -0.52647  -0.52338  -0.51989  -0.51920
  Beta  occ. eigenvalues --   -0.51787  -0.51209  -0.50573  -0.50489  -0.50372
  Beta  occ. eigenvalues --   -0.50083  -0.50019  -0.49834  -0.49589  -0.49429
  Beta  occ. eigenvalues --   -0.49344  -0.48898  -0.48759  -0.48431  -0.48146
  Beta  occ. eigenvalues --   -0.47874  -0.47646  -0.47408  -0.47217  -0.46961
  Beta  occ. eigenvalues --   -0.46790  -0.46359  -0.45815  -0.45666  -0.45082
  Beta  occ. eigenvalues --   -0.44775  -0.44246  -0.43663  -0.43541  -0.43343
  Beta  occ. eigenvalues --   -0.42631  -0.42226  -0.41607  -0.40806  -0.39926
  Beta  occ. eigenvalues --   -0.39408  -0.38164  -0.37994  -0.37175  -0.36521
  Beta  occ. eigenvalues --   -0.36163  -0.34586  -0.33726  -0.32898  -0.32557
  Beta  occ. eigenvalues --   -0.31470  -0.29481  -0.28768
  Beta virt. eigenvalues --   -0.20117  -0.17560  -0.16323  -0.15370  -0.12005
  Beta virt. eigenvalues --   -0.10455  -0.09119  -0.08855  -0.07935  -0.07626
  Beta virt. eigenvalues --   -0.06279  -0.05410  -0.05279  -0.04760  -0.04417
  Beta virt. eigenvalues --   -0.03734  -0.03017  -0.02839  -0.02419  -0.02250
  Beta virt. eigenvalues --   -0.01979  -0.01715  -0.01117  -0.01101  -0.00520
  Beta virt. eigenvalues --   -0.00211  -0.00001   0.00540   0.00826   0.01037
  Beta virt. eigenvalues --    0.01227   0.01516   0.01630   0.02287   0.02436
  Beta virt. eigenvalues --    0.02658   0.02758   0.03271   0.03324   0.03404
  Beta virt. eigenvalues --    0.03650   0.03794   0.04110   0.04259   0.04343
  Beta virt. eigenvalues --    0.04516   0.04647   0.04707   0.04930   0.05265
  Beta virt. eigenvalues --    0.05463   0.05596   0.05683   0.05832   0.06110
  Beta virt. eigenvalues --    0.06321   0.06586   0.06611   0.06732   0.07335
  Beta virt. eigenvalues --    0.07605   0.07732   0.07821   0.07966   0.08386
  Beta virt. eigenvalues --    0.08487   0.08591   0.08818   0.08932   0.09129
  Beta virt. eigenvalues --    0.09410   0.09616   0.09794   0.10246   0.10392
  Beta virt. eigenvalues --    0.10664   0.10808   0.11078   0.11367   0.11425
  Beta virt. eigenvalues --    0.11819   0.12351   0.12549   0.12631   0.12833
  Beta virt. eigenvalues --    0.13219   0.13530   0.13663   0.13817   0.14205
  Beta virt. eigenvalues --    0.14342   0.14718   0.15091   0.15258   0.15574
  Beta virt. eigenvalues --    0.16091   0.16178   0.16459   0.16634   0.16924
  Beta virt. eigenvalues --    0.17135   0.17289   0.17552   0.17776   0.17834
  Beta virt. eigenvalues --    0.18147   0.18442   0.18637   0.18889   0.19101
  Beta virt. eigenvalues --    0.19598   0.19700   0.19948   0.20282   0.20425
  Beta virt. eigenvalues --    0.20494   0.20807   0.21011   0.21119   0.21464
  Beta virt. eigenvalues --    0.21625   0.21911   0.22129   0.22224   0.22859
  Beta virt. eigenvalues --    0.22996   0.23051   0.23452   0.23632   0.24034
  Beta virt. eigenvalues --    0.24278   0.24459   0.24835   0.25049   0.25306
  Beta virt. eigenvalues --    0.25406   0.26179   0.26245   0.26522   0.26952
  Beta virt. eigenvalues --    0.27273   0.27579   0.27664   0.27798   0.27990
  Beta virt. eigenvalues --    0.28314   0.28732   0.29020   0.29055   0.29140
  Beta virt. eigenvalues --    0.29407   0.29810   0.30115   0.30138   0.30389
  Beta virt. eigenvalues --    0.30529   0.30612   0.31057   0.31156   0.31384
  Beta virt. eigenvalues --    0.31636   0.31782   0.31962   0.32153   0.32565
  Beta virt. eigenvalues --    0.32606   0.32763   0.33290   0.33448   0.33530
  Beta virt. eigenvalues --    0.33823   0.33904   0.34064   0.34218   0.34571
  Beta virt. eigenvalues --    0.34811   0.34930   0.34963   0.35266   0.35609
  Beta virt. eigenvalues --    0.35714   0.35950   0.36223   0.36492   0.36595
  Beta virt. eigenvalues --    0.36792   0.36845   0.37198   0.37430   0.37551
  Beta virt. eigenvalues --    0.37835   0.37960   0.38145   0.38378   0.38627
  Beta virt. eigenvalues --    0.38683   0.38771   0.39078   0.39139   0.39396
  Beta virt. eigenvalues --    0.39769   0.39832   0.40120   0.40368   0.40417
  Beta virt. eigenvalues --    0.40482   0.40821   0.40981   0.41048   0.41279
  Beta virt. eigenvalues --    0.41527   0.41814   0.42097   0.42132   0.42261
  Beta virt. eigenvalues --    0.42381   0.42659   0.42768   0.43065   0.43267
  Beta virt. eigenvalues --    0.43434   0.43606   0.43767   0.43851   0.44294
  Beta virt. eigenvalues --    0.44456   0.44618   0.44911   0.44981   0.45265
  Beta virt. eigenvalues --    0.45483   0.45764   0.46089   0.46296   0.46482
  Beta virt. eigenvalues --    0.46664   0.46816   0.47144   0.47429   0.47551
  Beta virt. eigenvalues --    0.47816   0.47976   0.48306   0.48594   0.48677
  Beta virt. eigenvalues --    0.48996   0.49710   0.49841   0.49915   0.50300
  Beta virt. eigenvalues --    0.50518   0.50705   0.50904   0.51060   0.51567
  Beta virt. eigenvalues --    0.51845   0.52501   0.52908   0.53173   0.53306
  Beta virt. eigenvalues --    0.53567   0.53734   0.53983   0.54240   0.54399
  Beta virt. eigenvalues --    0.54727   0.54993   0.55136   0.55385   0.55539
  Beta virt. eigenvalues --    0.55933   0.56114   0.56548   0.56995   0.57401
  Beta virt. eigenvalues --    0.57628   0.57752   0.57896   0.58553   0.58736
  Beta virt. eigenvalues --    0.59101   0.59260   0.59374   0.59591   0.60558
  Beta virt. eigenvalues --    0.60629   0.61079   0.61636   0.61675   0.62174
  Beta virt. eigenvalues --    0.62404   0.62470   0.62900   0.63167   0.63344
  Beta virt. eigenvalues --    0.63590   0.63943   0.64296   0.64438   0.64845
  Beta virt. eigenvalues --    0.65385   0.65687   0.65842   0.66191   0.66720
  Beta virt. eigenvalues --    0.66963   0.67030   0.67635   0.67774   0.68149
  Beta virt. eigenvalues --    0.68316   0.68557   0.68638   0.69392   0.69697
  Beta virt. eigenvalues --    0.69971   0.70444   0.70584   0.70652   0.71108
  Beta virt. eigenvalues --    0.71497   0.71882   0.72279   0.72445   0.72563
  Beta virt. eigenvalues --    0.73426   0.73542   0.74027   0.74382   0.74705
  Beta virt. eigenvalues --    0.74927   0.75243   0.75651   0.76142   0.76725
  Beta virt. eigenvalues --    0.76970   0.77444   0.77769   0.78081   0.78366
  Beta virt. eigenvalues --    0.78509   0.79128   0.79352   0.79718   0.80124
  Beta virt. eigenvalues --    0.80537   0.80902   0.81201   0.81418   0.81687
  Beta virt. eigenvalues --    0.82322   0.82654   0.82794   0.82968   0.83342
  Beta virt. eigenvalues --    0.83816   0.83843   0.84102   0.84261   0.84872
  Beta virt. eigenvalues --    0.84961   0.85206   0.85683   0.86040   0.86385
  Beta virt. eigenvalues --    0.86982   0.87038   0.87167   0.87574   0.87973
  Beta virt. eigenvalues --    0.88197   0.88527   0.89007   0.89382   0.89600
  Beta virt. eigenvalues --    0.89639   0.89956   0.90629   0.90956   0.91341
  Beta virt. eigenvalues --    0.91567   0.91705   0.92125   0.92336   0.92489
  Beta virt. eigenvalues --    0.92746   0.93254   0.93651   0.93734   0.93872
  Beta virt. eigenvalues --    0.94241   0.94373   0.94768   0.95356   0.95627
  Beta virt. eigenvalues --    0.95835   0.96355   0.96642   0.96800   0.96939
  Beta virt. eigenvalues --    0.97502   0.97864   0.98206   0.98627   0.98796
  Beta virt. eigenvalues --    0.99313   0.99714   0.99971   1.00549   1.00658
  Beta virt. eigenvalues --    1.01284   1.01342   1.01647   1.02103   1.02630
  Beta virt. eigenvalues --    1.03382   1.03606   1.03759   1.03998   1.04490
  Beta virt. eigenvalues --    1.04841   1.05314   1.05541   1.06169   1.06491
  Beta virt. eigenvalues --    1.06522   1.06953   1.07366   1.07866   1.08299
  Beta virt. eigenvalues --    1.08668   1.08855   1.09270   1.09761   1.10197
  Beta virt. eigenvalues --    1.10259   1.10591   1.10889   1.11120   1.11698
  Beta virt. eigenvalues --    1.12049   1.12173   1.12861   1.12971   1.13264
  Beta virt. eigenvalues --    1.13394   1.13944   1.14354   1.15230   1.15631
  Beta virt. eigenvalues --    1.16149   1.16247   1.16614   1.17133   1.17356
  Beta virt. eigenvalues --    1.17698   1.18049   1.18517   1.18609   1.18949
  Beta virt. eigenvalues --    1.19292   1.19792   1.20040   1.20356   1.20644
  Beta virt. eigenvalues --    1.20919   1.20981   1.21371   1.22156   1.22251
  Beta virt. eigenvalues --    1.22998   1.23328   1.23790   1.24267   1.25196
  Beta virt. eigenvalues --    1.25305   1.26014   1.26353   1.26630   1.27134
  Beta virt. eigenvalues --    1.27726   1.28292   1.28794   1.29216   1.30118
  Beta virt. eigenvalues --    1.30307   1.30806   1.31076   1.31836   1.32302
  Beta virt. eigenvalues --    1.32781   1.32925   1.33964   1.34533   1.34777
  Beta virt. eigenvalues --    1.35668   1.35809   1.36246   1.36706   1.37479
  Beta virt. eigenvalues --    1.37707   1.37857   1.38028   1.38651   1.38848
  Beta virt. eigenvalues --    1.39054   1.39328   1.39494   1.39968   1.40113
  Beta virt. eigenvalues --    1.40142   1.40660   1.41460   1.41981   1.42095
  Beta virt. eigenvalues --    1.42464   1.42712   1.42895   1.43141   1.43305
  Beta virt. eigenvalues --    1.43584   1.43711   1.44052   1.44602   1.44764
  Beta virt. eigenvalues --    1.45064   1.45436   1.45553   1.45811   1.46006
  Beta virt. eigenvalues --    1.46130   1.46360   1.46699   1.46868   1.47195
  Beta virt. eigenvalues --    1.47396   1.47750   1.47943   1.48016   1.48345
  Beta virt. eigenvalues --    1.48548   1.48837   1.49290   1.49383   1.49565
  Beta virt. eigenvalues --    1.49905   1.50236   1.50504   1.50804   1.51175
  Beta virt. eigenvalues --    1.51421   1.51554   1.52064   1.52350   1.52506
  Beta virt. eigenvalues --    1.52549   1.53064   1.53494   1.53728   1.53907
  Beta virt. eigenvalues --    1.54436   1.54590   1.54827   1.55069   1.55165
  Beta virt. eigenvalues --    1.55629   1.55964   1.56096   1.56649   1.56724
  Beta virt. eigenvalues --    1.57218   1.57511   1.57682   1.58099   1.58322
  Beta virt. eigenvalues --    1.58436   1.58643   1.58976   1.59229   1.59757
  Beta virt. eigenvalues --    1.60013   1.60324   1.60753   1.61044   1.61167
  Beta virt. eigenvalues --    1.61511   1.61941   1.62116   1.62206   1.62434
  Beta virt. eigenvalues --    1.62724   1.63024   1.63793   1.63958   1.64112
  Beta virt. eigenvalues --    1.64507   1.64710   1.65092   1.65588   1.65954
  Beta virt. eigenvalues --    1.66429   1.66761   1.67390   1.67459   1.68268
  Beta virt. eigenvalues --    1.68926   1.69184   1.69517   1.69993   1.70520
  Beta virt. eigenvalues --    1.71098   1.71364   1.71931   1.72245   1.73058
  Beta virt. eigenvalues --    1.73232   1.73792   1.74076   1.74596   1.75178
  Beta virt. eigenvalues --    1.75723   1.76073   1.76193   1.76510   1.76876
  Beta virt. eigenvalues --    1.77257   1.77476   1.77762   1.77808   1.78282
  Beta virt. eigenvalues --    1.78799   1.79071   1.79398   1.79631   1.79869
  Beta virt. eigenvalues --    1.80244   1.80365   1.81128   1.81746   1.82078
  Beta virt. eigenvalues --    1.82809   1.83333   1.83936   1.84199   1.84926
  Beta virt. eigenvalues --    1.85022   1.85820   1.86250   1.86875   1.86987
  Beta virt. eigenvalues --    1.87162   1.87933   1.87999   1.88358   1.88546
  Beta virt. eigenvalues --    1.89241   1.89684   1.90053   1.90305   1.90519
  Beta virt. eigenvalues --    1.90877   1.91280   1.91901   1.92111   1.92573
  Beta virt. eigenvalues --    1.92946   1.93822   1.93960   1.94181   1.94326
  Beta virt. eigenvalues --    1.95223   1.95823   1.96427   1.96822   1.97473
  Beta virt. eigenvalues --    1.98083   1.98473   1.99052   1.99162   1.99301
  Beta virt. eigenvalues --    2.00036   2.00369   2.00745   2.01079   2.01254
  Beta virt. eigenvalues --    2.01927   2.02261   2.02417   2.03112   2.03731
[...]
  1470. RY*(  16) C  80                  0.00000    21.17993   
  1471. RY*(  17) C  80                  0.00000     2.31597   
  1472. RY*(  18) C  80                  0.00000     2.21586   
  1473. RY*(  19) C  80                  0.00000     3.10034   
  1474. RY*(  20) C  80                  0.00000     3.16787   
  1475. RY*(  21) C  80                  0.00000     3.35555   
  1476. RY*(  22) C  80                  0.00000     3.47131   
  1477. RY*(  23) C  80                  0.00000     3.42892   
  1478. RY*(  24) C  80                  0.00000     3.22114   
  1479. RY*(  25) C  80                  0.00000     3.29133   
  1480. RY*(  26) C  80                  0.00000     3.30385   
  1481. RY*(   1) H  81                  0.00070     0.89520   
  1482. RY*(   2) H  81                  0.00017     2.37811   
  1483. RY*(   3) H  81                  0.00006     2.40099   
  1484. RY*(   4) H  81                  0.00002     2.76743   
  1485. RY*(   5) H  81                  0.00002     2.50997   
  1486. RY*(   1) H  82                  0.00039     1.15494   
  1487. RY*(   2) H  82                  0.00012     1.59314   
  1488. RY*(   3) H  82                  0.00007     2.21799   
  1489. RY*(   4) H  82                  0.00004     1.93824   
  1490. RY*(   5) H  82                  0.00001     2.98902   
  1491. RY*(   1) S  83                  0.00265     0.56168   
  1492. RY*(   2) S  83                  0.00160     1.03357   
  1493. RY*(   3) S  83                  0.00156     0.87571   
  1494. RY*(   4) S  83                  0.00091     1.07908   
  1495. RY*(   5) S  83                  0.00042     1.12710   
  1496. RY*(   6) S  83                  0.00039     1.70347   
  1497. RY*(   7) S  83                  0.00030     1.69683   
  1498. RY*(   8) S  83                  0.00017     1.57655   
  1499. RY*(   9) S  83                  0.00013     1.86205   
  1500. RY*(  10) S  83                  0.00010     1.58840   
  1501. RY*(  11) S  83                  0.00008     1.87312   
  1502. RY*(  12) S  83                  0.00007     2.62867   
  1503. RY*(  13) S  83                  0.00005     1.87257   
  1504. RY*(  14) S  83                  0.00004     2.34482   
  1505. RY*(  15) S  83                  0.00001     1.98152   
  1506. RY*(  16) S  83                  0.00001     2.68826   
  1507. RY*(  17) S  83                  0.00001     2.66161   
  1508. RY*(  18) S  83                  0.00001     2.34440   
  1509. RY*(  19) S  83                  0.00000    16.73574   
  1510. RY*(  20) S  83                  0.00000     7.60639   
  1511. RY*(  21) S  83                  0.00000     8.28633   
  1512. RY*(  22) S  83                  0.00000     2.57915   
  1513. RY*(  23) S  83                  0.00000     8.34039   
  1514. RY*(  24) S  83                  0.00000     2.09277   
  1515. RY*(  25) S  83                  0.00000     2.09886   
  1516. RY*(  26) S  83                  0.00001     2.31195   
  1517. RY*(  27) S  83                  0.00000     2.12788   
  1518. RY*(  28) S  83                  0.00000     2.06275   
  1519. RY*(   1) C  84                  0.00089     1.36028   
  1520. RY*(   2) C  84                  0.00051     0.90976   
  1521. RY*(   3) C  84                  0.00035     0.79180   
  1522. RY*(   4) C  84                  0.00023     1.32855   
  1523. RY*(   5) C  84                  0.00016     0.73087   
  1524. RY*(   6) C  84                  0.00016     1.08273   
  1525. RY*(   7) C  84                  0.00010     1.15388   
  1526. RY*(   8) C  84                  0.00004     1.45188   
  1527. RY*(   9) C  84                  0.00002     1.56051   
  1528. RY*(  10) C  84                  0.00002     1.40402   
  1529. RY*(  11) C  84                  0.00000     2.87549   
  1530. RY*(  12) C  84                  0.00001     1.40090   
  1531. RY*(  13) C  84                  0.00000     3.01128   
  1532. RY*(  14) C  84                  0.00001     1.60105   
  1533. RY*(  15) C  84                  0.00000     3.00291   
  1534. RY*(  16) C  84                  0.00000     2.17455   
  1535. RY*(  17) C  84                  0.00000     3.02905   
  1536. RY*(  18) C  84                  0.00000    21.01329   
  1537. RY*(  19) C  84                  0.00001     3.11308   
  1538. RY*(  20) C  84                  0.00000     3.56375   
  1539. RY*(  21) C  84                  0.00000     3.12972   
  1540. RY*(  22) C  84                  0.00000     3.07382   
  1541. RY*(  23) C  84                  0.00000     3.26997   
  1542. RY*(  24) C  84                  0.00000     3.16428   
  1543. RY*(  25) C  84                  0.00000     3.09373   
  1544. RY*(  26) C  84                  0.00000     3.39349   
  1545. RY*(   1) H  85                  0.00023     1.52545   
  1546. RY*(   2) H  85                  0.00009     1.71165   
  1547. RY*(   3) H  85                  0.00004     2.22934   
  1548. RY*(   4) H  85                  0.00002     1.68460   
  1549. RY*(   5) H  85                  0.00001     2.92474   
  1550. RY*(   1) H  86                  0.00054     0.79103   
  1551. RY*(   2) H  86                  0.00014     2.24834   
  1552. RY*(   3) H  86                  0.00005     2.27370   
  1553. RY*(   4) H  86                  0.00004     2.71743   
  1554. RY*(   5) H  86                  0.00002     2.40434   
  1555. RY*(   1) H  87                  0.00033     1.12756   
  1556. RY*(   2) H  87                  0.00008     1.46760   
  1557. RY*(   3) H  87                  0.00006     1.95382   
  1558. RY*(   4) H  87                  0.00003     2.08358   
  1559. RY*(   5) H  87                  0.00000     2.84679   
  1560. BD*(   1)Fe   1 - N   2          0.07820     0.16837   
  1561. BD*(   1)Fe   1 - N   3          0.06600     0.18019   
  1562. BD*(   1)Fe   1 - N  73          0.05567     0.21071   
  1563. BD*(   1)Fe   1 - S  83          0.03963     0.19997   
  1564. BD*(   1) N   2 - C   6          0.01404     0.40570   
  1565. BD*(   2) N   2 - C   6          0.32933    -0.09777  1610(v),1579(v),1584(v)
                                                    171(v),310(g),206(g),309(g)
                                                    724(v),1571(r),1562(v)
  1566. BD*(   1) N   2 - C   9          0.01398     0.40360   
  1567. BD*(   1) N   3 - C  10          0.01440     0.40414   
  1568. BD*(   2) N   3 - C  10          0.32087    -0.10053  1584(v),1588(v),1593(v)
                                                    414(g),230(g),755(v),1574(r)
                                                    1562(v),416(g)
  1569. BD*(   1) N   3 - C  13          0.01439     0.40601   
  1570. BD*(   1) N   4 - C  14          0.01475     0.40274   
  1571. BD*(   2) N   4 - C  14          0.32422    -0.09981  1593(v),1597(v),1602(v)
                                                    171(r),518(g),258(g),517(g)
                                                    1565(r),1563(r),786(v)
  1572. BD*(   1) N   4 - C  17          0.01490     0.39834   
  1573. BD*(   1) N   5 - C  18          0.01441     0.41044   
  1574. BD*(   2) N   5 - C  18          0.31643    -0.09826  1602(v),1610(v),1605(r)
                                                    622(g),282(g),1568(r),817(v)
                                                    174(r),1563(r)
  1575. BD*(   1) N   5 - C  21          0.01354     0.40445   
  1576. BD*(   1) C   6 - C   7          0.01724     0.38607   
  1577. BD*(   1) C   6 - C  22          0.01026     0.47559   
  1578. BD*(   1) C   7 - C   8          0.01146     0.50844   
  1579. BD*(   2) C   7 - C   8          0.11953    -0.02968  1584(v),1565(v),1616(v)
                                                    1619(v),1618(v),1615(v)
  1580. BD*(   1) C   7 - C  30          0.00812     0.32163   
  1581. BD*(   1) C   8 - C   9          0.01745     0.38657   
  1582. BD*(   1) C   8 - C  34          0.00817     0.32079   
  1583. BD*(   1) C   9 - C  24          0.01046     0.47041   
  1584. BD*(   2) C   9 - C  24          0.20192    -0.05818  1568(v),1579(v),1565(v)
                                                    755(g),1610(r),1593(r)
                                                    390(g)
  1585. BD*(   1) C  10 - C  11          0.01785     0.38876   
  1586. BD*(   1) C  10 - C  24          0.01078     0.47115   
  1587. BD*(   1) C  11 - C  12          0.01171     0.50952   
  1588. BD*(   2) C  11 - C  12          0.11935    -0.03032  1593(v),1568(v),1642(v)
                                                    1637(v),1641(v),1638(v)
  1589. BD*(   1) C  11 - C  60          0.00840     0.32186   
  1590. BD*(   1) C  12 - C  13          0.01760     0.38931   
  1591. BD*(   1) C  12 - C  56          0.00835     0.32253   
  1592. BD*(   1) C  13 - C  26          0.01078     0.47163   
  1593. BD*(   2) C  13 - C  26          0.20006    -0.05605  1571(v),1588(v),1568(v)
                                                    1584(r),786(g),1610(r)
                                                    1602(r),494(g)
  1594. BD*(   1) C  14 - C  15          0.01693     0.38366   
  1595. BD*(   1) C  14 - C  26          0.01043     0.46719   
  1596. BD*(   1) C  15 - C  16          0.01269     0.49046   
  1597. BD*(   2) C  15 - C  16          0.14085    -0.03563  1634(v),1602(v),1571(v)
                                                    1629(v),1630(v)
  1598. BD*(   1) C  15 - C  51          0.01337     0.40141   
  1599. BD*(   1) C  16 - C  17          0.01723     0.39424   
  1600. BD*(   1) C  16 - C  47          0.00782     0.32137   
  1601. BD*(   1) C  17 - C  28          0.01079     0.46487   
  1602. BD*(   2) C  17 - C  28          0.21002    -0.06079  1574(v),1597(v),1571(v)
                                                    817(g),1593(r),598(g)
                                                    1610(r)
  1603. BD*(   1) C  18 - C  28          0.01106     0.46693   
  1604. BD*(   1) C  19 - C  20          0.01435     0.49076   
  1605. BD*(   2) C  19 - C  20          0.13645    -0.03281  1626(v),1610(v),1574(r)
                                                    1621(v)
  1606. BD*(   1) C  19 - C  42          0.01473     0.40463   
  1607. BD*(   1) C  20 - C  21          0.01697     0.39608   
  1608. BD*(   1) C  20 - C  38          0.00784     0.32527   
  1609. BD*(   1) C  21 - C  22          0.01052     0.46878   
  1610. BD*(   2) C  21 - C  22          0.20524    -0.05583  1565(v),1605(v),1574(v)
                                                    724(g),1584(r),1593(r)
                                                    1602(r),702(g)
  1611. BD*(   1) C  22 - H  23          0.00630     0.33469   
  1612. BD*(   1) C  24 - H  25          0.00639     0.33581   
  1613. BD*(   1) C  26 - H  27          0.00649     0.33578   
  1614. BD*(   1) C  28 - H  29          0.00677     0.33843   
  1615. BD*(   1) C  30 - H  31          0.00447     0.29410   
  1616. BD*(   1) C  30 - H  32          0.00457     0.29538   
  1617. BD*(   1) C  30 - H  33          0.00302     0.30717   
  1618. BD*(   1) C  34 - H  35          0.00449     0.29495   
  1619. BD*(   1) C  34 - H  36          0.00459     0.29266   
  1620. BD*(   1) C  34 - H  37          0.00301     0.30694   
  1621. BD*(   1) C  38 - H  39          0.00558     0.29406   
  1622. BD*(   1) C  38 - H  40          0.00444     0.30120   
  1623. BD*(   1) C  38 - H  41          0.00377     0.30966   
  1624. BD*(   1) C  42 - H  43          0.01042     0.33548   
  1625. BD*(   1) C  42 - C  44          0.00366     0.54646   
  1626. BD*(   2) C  42 - C  44          0.03148    -0.02710   
  1627. BD*(   1) C  44 - H  45          0.00517     0.35292   
  1628. BD*(   1) C  44 - H  46          0.00388     0.35669   
  1629. BD*(   1) C  47 - H  48          0.00532     0.29147   
  1630. BD*(   1) C  47 - H  49          0.00441     0.29735   
  1631. BD*(   1) C  47 - H  50          0.00373     0.30719   
  1632. BD*(   1) C  51 - H  52          0.01027     0.33419   
  1633. BD*(   1) C  51 - C  53          0.00366     0.54362   
  1634. BD*(   2) C  51 - C  53          0.02948    -0.02885   
  1635. BD*(   1) C  53 - H  54          0.00517     0.35001   
  1636. BD*(   1) C  53 - H  55          0.00387     0.35450   
  1637. BD*(   1) C  56 - H  57          0.00476     0.29424   
  1638. BD*(   1) C  56 - H  58          0.00474     0.29419   
  1639. BD*(   1) C  56 - H  59          0.00304     0.30736   
  1640. BD*(   1) C  60 - H  61          0.00304     0.30709   
  1641. BD*(   1) C  60 - H  62          0.00476     0.29325   
  1642. BD*(   1) C  60 - H  63          0.00480     0.29363   
  1643. BD*(   1) C  64 - H  65          0.00502     0.27610   
  1644. BD*(   1) C  64 - H  66          0.00514     0.27613   
  1645. BD*(   1) C  64 - H  67          0.00156     0.28796   
  1646. BD*(   1) C  64 - C  70          0.00624     0.29565   
  1647. BD*(   1) N  68 - H  69          0.00659     0.27188   
  1648. BD*(   1) N  68 - C  70          0.01360     0.32620   
  1649. BD*(   1) N  68 - C  71          0.01038     0.34101   
  1650. BD*(   1) C  70 - C  74          0.01043     0.46033   
  1651. BD*(   2) C  70 - C  74          0.14156    -0.06928  1654(v),1644(v),1643(v)
                                                    1388(g)
  1652. BD*(   1) C  71 - H  72          0.00847     0.28296   
  1653. BD*(   1) C  71 - N  73          0.00984     0.41608   
  1654. BD*(   2) C  71 - N  73          0.21828    -0.11855  1651(v),1327(g),1653(g)
                                                    169(v),1363(g)
  1655. BD*(   1) N  73 - C  74          0.00866     0.36794   
  1656. BD*(   1) C  74 - H  75          0.00690     0.32442   
  1657. BD*(   1) C  76 - H  77          0.00384     0.29429   
  1658. BD*(   1) C  76 - H  78          0.00373     0.29394   
  1659. BD*(   1) C  76 - H  79          0.00428     0.31245   
  1660. BD*(   1) C  76 - C  80          0.00329     0.25837   
  1661. BD*(   1) C  80 - H  81          0.01008     0.28907   
  1662. BD*(   1) C  80 - H  82          0.00825     0.26169   
  1663. BD*(   1) C  80 - S  83          0.01673     0.03684   
  1664. BD*(   1) S  83 - C  84          0.00690     0.04916   
  1665. BD*(   1) C  84 - H  85          0.00338     0.28238   
  1666. BD*(   1) C  84 - H  86          0.00703     0.28288   
  1667. BD*(   1) C  84 - H  87          0.00529     0.27277   
       -------------------------------
              Total Lewis  167.85568  ( 97.0264%)
        Valence non-Lewis    4.79470  (  2.7715%)
        Rydberg non-Lewis    0.34962  (  0.2021%)
       -------------------------------
            Total unit  1  173.00000  (100.0000%)
           Charge unit  1    1.00000
 Unable to Open any file for archive entry.
 1\1\GINC-BGN1038\SP\UAPFD\def2TZVP\C37H42Fe1N6S1(1+,2)\BEBJONES\27-Oct
 -2024\0\\# apfd/def2TZVP guess=read scf=maxcycle=999 geom=check pop=nb
 o\\1co6_III_D\\1,2\Fe,0,20.7047835007,-19.2247916308,13.7667115404\N,0
 ,22.6054165055,-18.9927433468,14.3103511564\N,0,20.8949434088,-21.2063
 374573,13.8834530223\N,0,18.7609022252,-19.4395722451,13.2876288835\N,
 0,20.4634068058,-17.2282542162,13.7290872004\C,0,23.2773429768,-17.821
 0168494,14.4450884951\C,0,24.6921823716,-18.0606400037,14.6303820927\C
 ,0,24.8605803792,-19.4080573371,14.5725917177\C,0,23.5453275852,-19.97
 18387762,14.3591468644\C,0,22.053627832,-21.8957196475,14.0535137164\C
 ,0,21.8201529026,-23.3193869098,13.9545174037\C,0,20.4915344365,-23.47
 09148779,13.7031245981\C,0,19.934611353,-22.1375358648,13.6492639773\C
 ,0,18.069273121,-20.6056357301,13.2135146691\C,0,16.6946447293,-20.362
 9484041,12.8219819036\C,0,16.5758380359,-19.0053346398,12.6830039538\C
 ,0,17.8713700318,-18.4542994058,12.9863751886\C,0,19.3443674031,-16.53
 67132418,13.3941095256\C,0,19.5622199959,-15.1094303316,13.5316431825\
 C,0,20.8441383272,-14.9691732861,13.9939015843\C,0,21.3866748668,-16.2
 994802771,14.0950182029\C,0,22.7060873644,-16.565160021,14.4194604276\
 H,0,23.3506498163,-15.7210743375,14.6116952299\C,0,23.2936893248,-21.3
 295217067,14.2871885015\H,0,24.1359785249,-21.998325912,14.3794983819\
 C,0,18.6042756149,-21.8690799153,13.3893917348\H,0,17.9456556467,-22.7
 133348639,13.2545564106\C,0,18.14974747,-17.097956008,12.9853975483\H,
 0,17.3543430606,-16.4279151012,12.6972447504\C,0,25.7077382864,-16.987
 6999587,14.8252061761\H,0,25.4712228159,-16.3902459906,15.7061732122\H
 ,0,25.730245361,-16.3223374664,13.9619281733\H,0,26.6999875613,-17.412
 5465494,14.9560580331\C,0,26.110877177,-20.2107523846,14.6889439646\H,
 0,26.2715495147,-20.7995842576,13.7858430961\H,0,26.0504231987,-20.897
 6350117,15.5339011851\H,0,26.9731849551,-19.5648592817,14.8347684619\C
 ,0,21.5579528486,-13.722533374,14.3847764063\H,0,22.2099913769,-13.378
 2859025,13.5798214984\H,0,22.1727161389,-13.8926080704,15.2674361263\H
 ,0,20.8405388705,-12.9343304499,14.6049874783\C,0,18.5703815015,-14.09
 35750993,13.2590004602\H,0,17.5414449534,-14.3806548519,13.4435483762\
 C,0,18.8219768775,-12.871165328,12.8013504685\H,0,19.8167947445,-12.54
 46772405,12.5537770932\H,0,18.0306715709,-12.1597669794,12.6321390079\
 C,0,15.3580258201,-18.2104964742,12.3632582534\H,0,15.3472713284,-17.9
 171692656,11.3118294063\H,0,15.3194113063,-17.303634064,12.9652872532\
 H,0,14.4652423735,-18.7991074432,12.5646778219\C,0,15.6905929964,-21.3
 908915334,12.6609364188\H,0,15.7853276074,-22.2446636442,13.3222235256
 \C,0,14.6958118932,-21.3664442653,11.7797577337\H,0,14.5799101339,-20.
 5683996608,11.0672046517\H,0,13.9727531747,-22.1633717036,11.724435653
 9\C,0,19.7056802583,-24.7197234975,13.4955875483\H,0,19.2478518905,-24
 .7240049107,12.5060145475\H,0,18.909370271,-24.7995774374,14.236135990
 8\H,0,20.3425548182,-25.5967920893,13.5817696487\C,0,22.8809609856,-24
 .3570201068,14.0935250192\H,0,22.4633700717,-25.3546496928,13.98173642
 24\H,0,23.3572967504,-24.2918628479,15.0721926618\H,0,23.6513700395,-2
 4.2207664659,13.333897142\C,0,18.2852061489,-18.2756013082,18.70786925
 95\H,0,18.8637769202,-17.7418162164,19.4617837479\H,0,17.7759804922,-1
 9.1073451027,19.194794023\H,0,17.538528313,-17.6012603264,18.300475106
 8\N,0,20.2119602197,-19.6181096613,17.8373909937\H,0,20.4843331397,-19
 .9944318526,18.7306651721\C,0,19.1650693382,-18.7618822586,17.61516194
 42\C,0,20.8036646654,-19.8597169456,16.6464379484\H,0,21.653591181,-20
 .4964473926,16.5137720643\N,0,20.1955643108,-19.2094960468,15.68529265
 81\C,0,19.1744627243,-18.5226592663,16.2707966789\H,0,18.5189070157,-1
 7.9062840389,15.6916014818\C,0,21.4675368632,-21.8013764333,10.4395581
 984\H,0,22.3687922109,-21.5416638515,9.8891919564\H,0,20.9467264895,-2
 2.5954916734,9.9080916923\H,0,21.7565009757,-22.1710872926,11.41874121
 79\C,0,20.5652937762,-20.5902319518,10.5765203065\H,0,19.6577721109,-2
 0.8341722791,11.1258113728\H,0,20.3076833735,-20.1892688368,9.59664763
 31\S,0,21.4357443681,-19.2472770768,11.486229974\C,0,20.6564575848,-17
 .8288621197,10.6551414141\H,0,21.0595509459,-16.9331751377,11.11482440
 24\H,0,19.5812906944,-17.8626825227,10.7991994728\H,0,20.9123410495,-1
 7.8526347644,9.5990305004\\Version=ES64L-G16RevC.02\State=2-A\HF=-3424
 .6666779\S2=0.765217\S2-1=0.\S2A=0.750174\RMSD=1.275e-09\Dipole=0.1054
 282,-0.3618031,1.1533457\Quadrupole=-0.4866865,0.6595196,-0.1728331,-1
 .4358501,5.6653461,-1.3113932\PG=C01 [X(C37H42Fe1N6S1)]\\@
 The archive entry for this job was punched.


 IT IS DOUBTED WHETHER A MAN EVER BRINGS HIS FACULTIES TO BEAR WITH THEIR FULL FORCE
 ON A SUBJECT UNTIL HE WRITES UPON IT.

                          -- CICERO
 Job cpu time:       2 days  8 hours  4 minutes 18.5 seconds.
 Elapsed time:       0 days  0 hours 51 minutes 22.7 seconds.
 File lengths (MBytes):  RWF=   2563 Int=      0 D2E=      0 Chk=    233 Scr=      1
 Normal termination of Gaussian 16 at Sun Oct 27 04:54:51 2024.
