 Entering Gaussian System, Link 0=g16
 Input=1co912.com
 Output=1co912.log
 Initial command:
 /sw/chem/gaussian/g16_C02/a100/g16/l1.exe "/local/bebjones_8061729/Gau-736505.inp" -scrdir="/local/bebjones_8061729/"
 Entering Link 1 = /sw/chem/gaussian/g16_C02/a100/g16/l1.exe PID=    736508.
  
 Copyright (c) 1988-2021, Gaussian, Inc.  All Rights Reserved.
  
 This is part of the Gaussian(R) 16 program.  It is based on
 the Gaussian(R) 09 system (copyright 2009, Gaussian, Inc.),
 the Gaussian(R) 03 system (copyright 2003, Gaussian, Inc.),
 the Gaussian(R) 98 system (copyright 1998, Gaussian, Inc.),
 the Gaussian(R) 94 system (copyright 1995, Gaussian, Inc.),
 the Gaussian 92(TM) system (copyright 1992, Gaussian, Inc.),
 the Gaussian 90(TM) system (copyright 1990, Gaussian, Inc.),
 the Gaussian 88(TM) system (copyright 1988, Gaussian, Inc.),
 the Gaussian 86(TM) system (copyright 1986, Carnegie Mellon
 University), and the Gaussian 82(TM) system (copyright 1983,
 Carnegie Mellon University). Gaussian is a federally registered
 trademark of Gaussian, Inc.
  
 This software contains proprietary and confidential information,
 including trade secrets, belonging to Gaussian, Inc.
  
 This software is provided under written license and may be
 used, copied, transmitted, or stored only in accord with that
 written license.
  
 The following legend is applicable only to US Government
 contracts under FAR:
  
                    RESTRICTED RIGHTS LEGEND
  
 Use, reproduction and disclosure by the US Government is
 subject to restrictions as set forth in subparagraphs (a)
 and (c) of the Commercial Computer Software - Restricted
 Rights clause in FAR 52.227-19.
  
 Gaussian, Inc.
 340 Quinnipiac St., Bldg. 40, Wallingford CT 06492
  
  
 ---------------------------------------------------------------
 Warning -- This program may not be used in any manner that
 competes with the business of Gaussian, Inc. or will provide
 assistance to any competitor of Gaussian, Inc.  The licensee
 of this program is prohibited from giving any competitor of
 Gaussian, Inc. access to this program.  By using this program,
 the user acknowledges that Gaussian, Inc. is engaged in the
 business of creating and licensing software in the field of
 computational chemistry and represents and warrants to the
 licensee that it is not a competitor of Gaussian, Inc. and that
 it will not use this program in any manner prohibited above.
 ---------------------------------------------------------------
  

 Cite this work as:
 Gaussian 16, Revision C.02,
 M. J. Frisch, G. W. Trucks, H. B. Schlegel, G. E. Scuseria, 
 M. A. Robb, J. R. Cheeseman, G. Scalmani, V. Barone, 
 G. A. Petersson, H. Nakatsuji, X. Li, M. Caricato, A. V. Marenich, 
 J. Bloino, B. G. Janesko, R. Gomperts, B. Mennucci, H. P. Hratchian, 
 J. V. Ortiz, A. F. Izmaylov, J. L. Sonnenberg, D. Williams-Young, 
 F. Ding, F. Lipparini, F. Egidi, J. Goings, B. Peng, A. Petrone, 
 T. Henderson, D. Ranasinghe, V. G. Zakrzewski, J. Gao, N. Rega, 
 G. Zheng, W. Liang, M. Hada, M. Ehara, K. Toyota, R. Fukuda, 
 J. Hasegawa, M. Ishida, T. Nakajima, Y. Honda, O. Kitao, H. Nakai, 
 T. Vreven, K. Throssell, J. A. Montgomery, Jr., J. E. Peralta, 
 F. Ogliaro, M. J. Bearpark, J. J. Heyd, E. N. Brothers, K. N. Kudin, 
 V. N. Staroverov, T. A. Keith, R. Kobayashi, J. Normand, 
 K. Raghavachari, A. P. Rendell, J. C. Burant, S. S. Iyengar, 
 J. Tomasi, M. Cossi, J. M. Millam, M. Klene, C. Adamo, R. Cammi, 
 J. W. Ochterski, R. L. Martin, K. Morokuma, O. Farkas, 
 J. B. Foresman, and D. J. Fox, Gaussian, Inc., Wallingford CT, 2019.
 
 ******************************************
 Gaussian 16:  ES64L-G16RevC.02  7-Dec-2021
                27-Oct-2024 
 ******************************************
 %mem=16GB
 %CPU=0-71
 SetSPE:  set environment variable "OMP_PROC_BIND" = "true"
 SetSPE:  set environment variable "OMP_PLACES" = "{0},{1},{2},{3},{4},{5},{6},{7},{8},{9},{10},{11},{12},{13},{14},{15},{16},{17},{18},{19},{20},{21},{22},{23},{24},{25},{26},{27},{28},{29},{30},{31},{32},{33},{34},{35},{36},{37},{38},{39},{40},{41},{42},{43},{44},{45},{46},{47},{48},{49},{50},{51},{52},{53},{54},{55},{56},{57},{58},{59},{60},{61},{62},{63},{64},{65},{66},{67},{68},{69},{70},{71}"
 Will use up to   72 processors via shared memory.
 %gpucpu=0,1,2,3=0,1,2,3
 Will use    4 GPUs:
 Thread  CPU   GPU
      0    0     0
      1    1     1
      2    2     2
      3    3     3
      4    4    -1
      5    5    -1
      6    6    -1
      7    7    -1
      8    8    -1
      9    9    -1
     10   10    -1
     11   11    -1
     12   12    -1
     13   13    -1
     14   14    -1
     15   15    -1
     16   16    -1
     17   17    -1
     18   18    -1
     19   19    -1
     20   20    -1
     21   21    -1
     22   22    -1
     23   23    -1
     24   24    -1
     25   25    -1
     26   26    -1
     27   27    -1
     28   28    -1
     29   29    -1
     30   30    -1
     31   31    -1
     32   32    -1
     33   33    -1
     34   34    -1
     35   35    -1
     36   36    -1
     37   37    -1
     38   38    -1
     39   39    -1
     40   40    -1
     41   41    -1
     42   42    -1
     43   43    -1
     44   44    -1
     45   45    -1
     46   46    -1
     47   47    -1
     48   48    -1
     49   49    -1
     50   50    -1
     51   51    -1
     52   52    -1
     53   53    -1
     54   54    -1
     55   55    -1
     56   56    -1
     57   57    -1
     58   58    -1
     59   59    -1
     60   60    -1
     61   61    -1
     62   62    -1
     63   63    -1
     64   64    -1
     65   65    -1
     66   66    -1
     67   67    -1
     68   68    -1
     69   69    -1
     70   70    -1
     71   71    -1
 SetGPE:  set environment variable "OMP_PROC_BIND" = "true"
 SetGPE:  set environment variable "OMP_PLACES" = "{0},{1},{2},{3},{4},{5},{6},{7},{8},{9},{10},{11},{12},{13},{14},{15},{16},{17},{18},{19},{20},{21},{22},{23},{24},{25},{26},{27},{28},{29},{30},{31},{32},{33},{34},{35},{36},{37},{38},{39},{40},{41},{42},{43},{44},{45},{46},{47},{48},{49},{50},{51},{52},{53},{54},{55},{56},{57},{58},{59},{60},{61},{62},{63},{64},{65},{66},{67},{68},{69},{70},{71}"
 %oldchk=1co9_II_Sre.chk
 %chk=1co9_III_Dn.chk
 Properties for Device   0
 Minimum vector length:                              32
 Maximum vector length:                            1024
 Number of SMPs:                                    108
 Maximum number of threads per SMP:                2048
 Number of ASync Engines:                             5
 Memory:                                           9207742464
 Properties for Device   1
 Minimum vector length:                              32
 Maximum vector length:                            1024
 Number of SMPs:                                    108
 Maximum number of threads per SMP:                2048
 Number of ASync Engines:                             5
 Memory:                                           9207742464
 Properties for Device   2
 Minimum vector length:                              32
 Maximum vector length:                            1024
 Number of SMPs:                                    108
 Maximum number of threads per SMP:                2048
 Number of ASync Engines:                             5
 Memory:                                           9207742464
 Properties for Device   3
 Minimum vector length:                              32
 Maximum vector length:                            1024
 Number of SMPs:                                    108
 Maximum number of threads per SMP:                2048
 Number of ASync Engines:                             5
 Memory:                                           9207742464
   8286968217 words of memory will be used on each GPU.
 Copying data from "1co9_II_Sre.chk" to current chk file "1co9_III_Dn.chk"
 IOpt=  2 FromEx=T IUOpen= 4 IOptOp= 5 NList=   0 IFRang= 0 IUIn= 4 IUOut= 2.
 --------------------------------------------------------------
 # apfd/def2TZVP guess=read scf=maxcycle=999 geom=check pop=nbo
 --------------------------------------------------------------
 1/29=2,38=1,172=1/1;
 2/12=2,40=1/2;
 3/5=44,7=101,11=2,14=-4,25=1,30=1,74=-44,116=-2/1,2,3;
 4/5=1/1;
 5/5=2,7=999,38=6/2;
 6/7=2,8=2,9=2,10=2,28=1,40=1/1,7;
 99/5=1,9=1/99;
 ----------
 1co9_III_D
 ----------
 Structure from the checkpoint file:  "1co9_III_Dn.chk"
 Charge =  1 Multiplicity = 2
 Z-Matrix found in chk file.
 Fe,0,35.2617239628,4.0217792159,10.2108455857
 N,0,37.1676456805,3.7690236227,9.6998637579
 N,0,35.0169581715,5.3273821765,8.705980578
 N,0,33.3462865535,4.3519448183,10.7771629548
 N,0,35.501904212,2.8001212012,11.7740327134
 C,0,38.0669264981,2.9436434561,10.2951426365
 C,0,39.3066654675,2.915434877,9.5502085294
 C,0,39.1448028806,3.7728352741,8.5069943825
 C,0,37.8033585959,4.3022308465,8.6225756327
 C,0,35.9475243407,5.667876582,7.7723525503
 C,0,35.396752564,6.5848598211,6.8068638106
 C,0,34.0897113076,6.7802241277,7.1656804316
 C,0,33.8808259105,5.9860588184,8.3614621132
 C,0,32.4754855588,5.2464275575,10.2307399922
 C,0,31.2836287274,5.3621779845,11.0279696574
 C,0,31.4766447468,4.5621340549,12.1241801667
 C,0,32.772879248,3.940060145,11.9393162106
 C,0,34.5881070845,2.494852132,12.7314530419
 C,0,35.1567768158,1.6023036057,13.7188727318
 C,0,36.4468643296,1.3951528806,13.3449128266
 C,0,36.6387504749,2.1400531943,12.1188067653
 C,0,37.8403077281,2.2023811216,11.4404752361
 H,0,38.6603983304,1.6138644896,11.8228636084
 C,0,37.2509515663,5.2010322775,7.7312947636
 H,0,37.8840906938,5.5601721233,6.9339551953
 C,0,32.6936314265,5.9610249483,9.0653911615
 H,0,31.892197194,6.592084476,8.7127390416
 C,0,33.3087742577,3.0095351631,12.811993639
 H,0,32.7132949479,2.7215250462,13.6647632095
 C,0,40.1030079684,4.1364024226,7.4243117098
 H,0,41.0477770797,3.6138182346,7.5524234546
 H,0,40.300833889,5.2084691398,7.4322770891
 H,0,39.6973853906,3.8758191072,6.4460276762
 C,0,40.4922659057,2.0917316284,9.920669455
 H,0,40.2296761643,1.0340759297,9.950162354
 H,0,40.8626999368,2.3748733,10.906261524
 H,0,41.2971257199,2.225291409,9.2018697657
 C,0,36.1177882214,7.1186135276,5.617981496
 H,0,36.773769019,6.3620814547,5.1895139883
 H,0,36.7303243921,7.9799742197,5.8893646306
 H,0,35.4041857828,7.4310944787,4.858182244
 C,0,33.0743471615,7.5851628989,6.52335827
 H,0,32.0638899816,7.1969135811,6.5830464665
 C,0,33.2853874995,8.7348107754,5.8904545482
 H,0,34.2582096348,9.1919973271,5.8419178733
 H,0,32.4804737134,9.2754508194,5.420462255
 C,0,30.0899463458,6.178550228,10.6741447765
 H,0,29.8910668669,6.1240670114,9.6048383901
 H,0,30.2404336026,7.2275338685,10.9353864186
 H,0,29.216268333,5.8129117549,11.2098874978
 C,0,30.5968970584,4.3245747936,13.2469841924
 H,0,30.6377899251,3.3293801398,13.6745324311
 C,0,29.773565407,5.2189938579,13.7845665353
 H,0,29.7240020491,6.2358540605,13.4362123228
 H,0,29.134986115,4.9685494109,14.6154721771
 C,0,34.4190574978,1.0781796497,14.9031365927
 H,0,33.5254973049,0.5377536937,14.5901219242
 H,0,34.1084773485,1.8955266466,15.5549254953
 H,0,35.0443963685,0.4007670085,15.4795335752
 C,0,37.5022574667,0.5758584354,14.005329898
 H,0,37.8587797503,-0.2050023731,13.3331416135
 H,0,37.1186753007,0.1036795194,14.9065117646
 H,0,38.3535889232,1.1987536742,14.2808942838
 O,0,35.769,5.771,11.569
 H,0,34.936,6.16,11.836
 H,0,36.578,6.027,11.835
 C,0,32.7780990023,-0.4880608317,8.1019126823
 H,0,32.1028850739,-0.3498665804,7.2574027219
 H,0,32.1867114881,-0.6600096937,8.9958800189
 H,0,33.3867936761,-1.3720483164,7.9104653441
 N,0,34.4718883393,1.1811444239,7.3182330122
 H,0,34.5891040758,0.7821588583,6.4014157627
 C,0,33.6335034369,0.7102396207,8.2947297036
 C,0,35.1005544047,2.2733932673,7.8096007155
 H,0,35.8169145608,2.8505448997,7.2618447814
 N,0,34.7117914248,2.5213273537,9.0369011301
 C,0,33.7997759462,1.5570844427,9.3526565589
 H,0,33.3282040663,1.5407166457,10.3131055353
 Recover connectivity data from disk.
 Stoichiometry    C34H36FeN6O(1+,2)
 Framework group  C1[X(C34H36FeN6O)]
 Deg. of freedom   228
 Full point group                 C1      NOp   1
 Largest Abelian subgroup         C1      NOp   1
 Largest concise Abelian subgroup C1      NOp   1
                         Standard orientation:                         
 ---------------------------------------------------------------------
 Center     Atomic      Atomic             Coordinates (Angstroms)
 Number     Number       Type             X           Y           Z
 ---------------------------------------------------------------------
      1         26           0       -0.027371   -0.188205   -0.324904
      2          7           0       -1.193682   -1.783708   -0.552092
      3          7           0       -1.637610    1.009939   -0.351580
      4          7           0        1.157512    1.447165   -0.182631
      5          7           0        1.599084   -1.347471   -0.391474
      6          6           0       -0.795710   -3.080906   -0.608772
      7          6           0       -1.939357   -3.966623   -0.624667
      8          6           0       -3.040518   -3.168574   -0.610791
      9          6           0       -2.553096   -1.806922   -0.573152
     10          6           0       -2.938377    0.613826   -0.419778
     11          6           0       -3.826023    1.746814   -0.350500
     12          6           0       -3.028033    2.851494   -0.215718
     13          6           0       -1.662716    2.361563   -0.225774
     14          6           0        0.759120    2.749933   -0.215069
     15          6           0        1.889226    3.634891   -0.311010
     16          6           0        2.996683    2.833011   -0.408639
     17          6           0        2.509944    1.470307   -0.322053
     18          6           0        2.897734   -0.950144   -0.368907
     19          6           0        3.785469   -2.088412   -0.475204
     20          6           0        2.987492   -3.182912   -0.586491
     21          6           0        1.624619   -2.700488   -0.516659
     22          6           0        0.516331   -3.517896   -0.622964
     23          1           0        0.686119   -4.580661   -0.705563
     24          6           0       -3.373224   -0.696495   -0.531665
     25          1           0       -4.438382   -0.865640   -0.580911
     26          6           0       -0.554822    3.182941   -0.166759
     27          1           0       -0.725647    4.248285   -0.139246
     28          6           0        3.334881    0.359405   -0.323519
     29          1           0        4.400003    0.526523   -0.371976
     30          6           0       -4.482569   -3.546593   -0.622200
     31          1           0       -4.598903   -4.627061   -0.656125
     32          1           0       -4.983062   -3.120795   -1.492102
     33          1           0       -4.986106   -3.175793    0.271350
     34          6           0       -1.851160   -5.453988   -0.661323
     35          1           0       -1.297142   -5.826142    0.200666
     36          1           0       -1.334780   -5.785111   -1.562706
     37          1           0       -2.842064   -5.901559   -0.651340
     38          6           0       -5.313644    1.675317   -0.340486
     39          1           0       -5.657031    0.806034    0.218681
     40          1           0       -5.705834    1.598252   -1.355887
     41          1           0       -5.727033    2.570582    0.119706
     42          6           0       -3.403863    4.240853   -0.074645
     43          1           0       -2.751669    4.839680    0.550953
     44          6           0       -4.456060    4.818620   -0.645489
     45          1           0       -5.109319    4.286199   -1.314472
     46          1           0       -4.684437    5.859168   -0.483702
     47          6           0        1.820892    5.121697   -0.275335
     48          1           0        1.071102    5.454273    0.441006
     49          1           0        1.554349    5.525903   -1.253513
     50          1           0        2.785924    5.532263    0.014795
     51          6           0        4.386694    3.208760   -0.541902
     52          1           0        5.100572    2.549045   -0.062280
     53          6           0        4.839034    4.269594   -1.202866
     54          1           0        4.184291    4.933417   -1.739955
     55          1           0        5.891222    4.496540   -1.250892
     56          6           0        5.273092   -1.997173   -0.483588
     57          1           0        5.632485   -1.507224    0.421550
     58          1           0        5.617646   -1.417742   -1.340843
     59          1           0        5.720877   -2.986459   -0.538096
     60          6           0        3.365545   -4.616151   -0.741898
     61          1           0        2.969764   -5.209155    0.082960
     62          1           0        4.446530   -4.731809   -0.759556
     63          1           0        2.962771   -5.019413   -1.671335
     64          8           0        0.155393    0.104060   -2.570536
     65          1           0        0.591599    0.946083   -2.701767
     66          1           0       -0.092963   -0.464309   -3.207756
     67          6           0        1.148446   -0.245036    5.112823
     68          1           0        0.717715    0.539177    5.735470
     69          1           0        2.199593   -0.025271    4.953834
     70          1           0        1.066629   -1.190194    5.650016
     71          7           0       -0.892043   -0.561676    3.696677
     72          1           0       -1.526379   -0.704272    4.465290
     73          6           0        0.452789   -0.320271    3.803159
     74          6           0       -1.204586   -0.566392    2.380636
     75          1           0       -2.191322   -0.730458    1.998867
     76          7           0       -0.139905   -0.343712    1.648692
     77          6           0        0.898892   -0.189237    2.519483
     78          1           0        1.889136    0.005857    2.163864
 ---------------------------------------------------------------------
 Rotational constants (GHZ):           0.0925968           0.0913628           0.0593455
 Standard basis: def2TZVP (5D, 7F)
 There are  1744 symmetry adapted cartesian basis functions of A   symmetry.
 There are  1532 symmetry adapted basis functions of A   symmetry.
  1532 basis functions,  2481 primitive gaussians,  1744 cartesian basis functions
   158 alpha electrons      157 beta electrons
       nuclear repulsion energy      5965.6147878911 Hartrees.
 NAtoms=   78 NActive=   78 NUniq=   78 SFac= 1.00D+00 NAtFMM=   60 NAOKFM=T Big=T
 Integral buffers will be    131072 words long.
 Raffenetti 2 integral format.
 Two-electron integral symmetry is turned on.
 R6APFD:  NTU= -4 IXU= 1 FactS= 1.050
 Nuclear repulsion after empirical dispersion term =     5965.4619454152 Hartrees.
 One-electron integrals computed using PRISM.
   1 Symmetry operations used in ECPInt.
 ECPInt:  NShTT=  186355 NPrTT=  576197 LenC2=  147144 LenP2D=  301080.
 LDataN:  DoStor=T MaxTD1= 6 Len=  172
 Number of processors reduced to  23 by ecpmxn.
 NBasis=  1532 RedAO= T EigKep=  3.23D-06  NBF=  1532
 NBsUse=  1532 1.00D-06 EigRej= -1.00D+00 NBFU=  1532
 Initial guess from the checkpoint file:  "1co9_III_Dn.chk"
 B after Tr=     0.000000    0.000000   -0.000000
         Rot=    1.000000   -0.000000    0.000000   -0.000000 Ang=   0.00 deg.
 Initial guess <Sx>= 0.0000 <Sy>= 0.0000 <Sz>= 0.5000 <S**2>= 0.8076 S= 0.5284
 Requested convergence on RMS density matrix=1.00D-08 within 999 cycles.
 Requested convergence on MAX density matrix=1.00D-06.
 Requested convergence on             energy=1.00D-06.
 No special actions if energy rises.
 Restarting incremental Fock formation.
 Restarting incremental Fock formation.
 SCF Done:  E(UAPFD) =  -2983.83452728     A.U. after   55 cycles
            NFock= 55  Conv=0.91D-09     -V/T= 2.0035
 <Sx>= 0.0000 <Sy>= 0.0000 <Sz>= 0.5000 <S**2>= 0.8076 S= 0.5284
 <L.S>=  0.00000000000    
 Annihilation of the first spin contaminant:
 S**2 before annihilation     0.8076,   after     0.7510

 **********************************************************************

            Population analysis using the SCF Density.

 **********************************************************************

 Orbital symmetries:
 Alpha Orbitals:
       Occupied  (A) (A) (A) (A) (A) (A) (A) (A) (A) (A) (A) (A)
                 (A) (A) (A) (A) (A) (A) (A) (A) (A) (A) (A) (A)
                 (A) (A) (A) (A) (A) (A) (A) (A) (A) (A) (A) (A)
                 (A) (A) (A) (A) (A) (A) (A) (A) (A) (A) (A) (A)
                 (A) (A) (A) (A) (A) (A) (A) (A) (A) (A) (A) (A)
                 (A) (A) (A) (A) (A) (A) (A) (A) (A) (A) (A) (A)
                 (A) (A) (A) (A) (A) (A) (A) (A) (A) (A) (A) (A)
                 (A) (A) (A) (A) (A) (A) (A) (A) (A) (A) (A) (A)
                 (A) (A) (A) (A) (A) (A) (A) (A) (A) (A) (A) (A)
                 (A) (A) (A) (A) (A) (A) (A) (A) (A) (A) (A) (A)
                 (A) (A) (A) (A) (A) (A) (A) (A) (A) (A) (A) (A)
                 (A) (A) (A) (A) (A) (A) (A) (A) (A) (A) (A) (A)
                 (A) (A) (A) (A) (A) (A) (A) (A) (A) (A) (A) (A)
                 (A) (A)
       Virtual   (A) (A) (A) (A) (A) (A) (A) (A) (A) (A) (A) (A)
                 (A) (A) (A) (A) (A) (A) (A) (A) (A) (A) (A) (A)
                 (A) (A) (A) (A) (A) (A) (A) (A) (A) (A) (A) (A)
                 (A) (A) (A) (A) (A) (A) (A) (A) (A) (A) (A) (A)
                 (A) (A) (A) (A) (A) (A) (A) (A) (A) (A) (A) (A)
                 (A) (A) (A) (A) (A) (A) (A) (A) (A) (A) (A) (A)
                 (A) (A) (A) (A) (A) (A) (A) (A) (A) (A) (A) (A)
                 (A) (A) (A) (A) (A) (A) (A) (A) (A) (A) (A) (A)
                 (A) (A) (A) (A) (A) (A) (A) (A) (A) (A) (A) (A)
                 (A) (A) (A) (A) (A) (A) (A) (A) (A) (A) (A) (A)
                 (A) (A) (A) (A) (A) (A) (A) (A) (A) (A) (A) (A)
                 (A) (A) (A) (A) (A) (A) (A) (A) (A) (A) (A) (A)
                 (A) (A) (A) (A) (A) (A) (A) (A) (A) (A) (A) (A)
                 (A) (A) (A) (A) (A) (A) (A) (A) (A) (A) (A) (A)
                 (A) (A) (A) (A) (A) (A) (A) (A) (A) (A) (A) (A)
                 (A) (A) (A) (A) (A) (A) (A) (A) (A) (A) (A) (A)
                 (A) (A) (A) (A) (A) (A) (A) (A) (A) (A) (A) (A)
                 (A) (A) (A) (A) (A) (A) (A) (A) (A) (A) (A) (A)
                 (A) (A) (A) (A) (A) (A) (A) (A) (A) (A) (A) (A)
                 (A) (A) (A) (A) (A) (A) (A) (A) (A) (A) (A) (A)
                 (A) (A) (A) (A) (A) (A) (A) (A) (A) (A) (A) (A)
                 (A) (A) (A) (A) (A) (A) (A) (A) (A) (A) (A) (A)
                 (A) (A) (A) (A) (A) (A) (A) (A) (A) (A) (A) (A)
                 (A) (A) (A) (A) (A) (A) (A) (A) (A) (A) (A) (A)
                 (A) (A) (A) (A) (A) (A) (A) (A) (A) (A) (A) (A)
                 (A) (A) (A) (A) (A) (A) (A) (A) (A) (A) (A) (A)
                 (A) (A) (A) (A) (A) (A) (A) (A) (A) (A) (A) (A)
                 (A) (A) (A) (A) (A) (A) (A) (A) (A) (A) (A) (A)
                 (A) (A) (A) (A) (A) (A) (A) (A) (A) (A) (A) (A)
                 (A) (A) (A) (A) (A) (A) (A) (A) (A) (A) (A) (A)
                 (A) (A) (A) (A) (A) (A) (A) (A) (A) (A) (A) (A)
                 (A) (A) (A) (A) (A) (A) (A) (A) (A) (A) (A) (A)
                 (A) (A) (A) (A) (A) (A) (A) (A) (A) (A) (A) (A)
                 (A) (A) (A) (A) (A) (A) (A) (A) (A) (A) (A) (A)
                 (A) (A) (A) (A) (A) (A) (A) (A) (A) (A) (A) (A)
                 (A) (A) (A) (A) (A) (A) (A) (A) (A) (A) (A) (A)
                 (A) (A) (A) (A) (A) (A) (A) (A) (A) (A) (A) (A)
                 (A) (A) (A) (A) (A) (A) (A) (A) (A) (A) (A) (A)
                 (A) (A) (A) (A) (A) (A) (A) (A) (A) (A) (A) (A)
                 (A) (A) (A) (A) (A) (A) (A) (A) (A) (A) (A) (A)
                 (A) (A) (A) (A) (A) (A) (A) (A) (A) (A) (A) (A)
                 (A) (A) (A) (A) (A) (A) (A) (A) (A) (A) (A) (A)
                 (A) (A) (A) (A) (A) (A) (A) (A) (A) (A) (A) (A)
                 (A) (A) (A) (A) (A) (A) (A) (A) (A) (A) (A) (A)
                 (A) (A) (A) (A) (A) (A) (A) (A) (A) (A) (A) (A)
                 (A) (A) (A) (A) (A) (A) (A) (A) (A) (A) (A) (A)
                 (A) (A) (A) (A) (A) (A) (A) (A) (A) (A) (A) (A)
                 (A) (A) (A) (A) (A) (A) (A) (A) (A) (A) (A) (A)
                 (A) (A) (A) (A) (A) (A) (A) (A) (A) (A) (A) (A)
                 (A) (A) (A) (A) (A) (A) (A) (A) (A) (A) (A) (A)
                 (A) (A) (A) (A) (A) (A) (A) (A) (A) (A) (A) (A)
                 (A) (A) (A) (A) (A) (A) (A) (A) (A) (A) (A) (A)
                 (A) (A) (A) (A) (A) (A) (A) (A) (A) (A) (A) (A)
                 (A) (A) (A) (A) (A) (A) (A) (A) (A) (A) (A) (A)
                 (A) (A) (A) (A) (A) (A) (A) (A) (A) (A) (A) (A)
                 (A) (A) (A) (A) (A) (A) (A) (A) (A) (A) (A) (A)
                 (A) (A) (A) (A) (A) (A) (A) (A) (A) (A) (A) (A)
                 (A) (A) (A) (A) (A) (A) (A) (A) (A) (A) (A) (A)
                 (A) (A) (A) (A) (A) (A) (A) (A) (A) (A) (A) (A)
                 (A) (A) (A) (A) (A) (A) (A) (A) (A) (A) (A) (A)
                 (A) (A) (A) (A) (A) (A) (A) (A) (A) (A) (A) (A)
                 (A) (A) (A) (A) (A) (A) (A) (A) (A) (A) (A) (A)
                 (A) (A) (A) (A) (A) (A) (A) (A) (A) (A) (A) (A)
                 (A) (A) (A) (A) (A) (A) (A) (A) (A) (A) (A) (A)
                 (A) (A) (A) (A) (A) (A) (A) (A) (A) (A) (A) (A)
                 (A) (A) (A) (A) (A) (A) (A) (A) (A) (A) (A) (A)
                 (A) (A) (A) (A) (A) (A) (A) (A) (A) (A) (A) (A)
                 (A) (A) (A) (A) (A) (A) (A) (A) (A) (A) (A) (A)
                 (A) (A) (A) (A) (A) (A) (A) (A) (A) (A) (A) (A)
                 (A) (A) (A) (A) (A) (A) (A) (A) (A) (A) (A) (A)
                 (A) (A) (A) (A) (A) (A) (A) (A) (A) (A) (A) (A)
                 (A) (A) (A) (A) (A) (A) (A) (A) (A) (A) (A) (A)
                 (A) (A) (A) (A) (A) (A) (A) (A) (A) (A) (A) (A)
                 (A) (A) (A) (A) (A) (A) (A) (A) (A) (A) (A) (A)
                 (A) (A) (A) (A) (A) (A) (A) (A) (A) (A) (A) (A)
                 (A) (A) (A) (A) (A) (A) (A) (A) (A) (A) (A) (A)
                 (A) (A) (A) (A) (A) (A) (A) (A) (A) (A) (A) (A)
                 (A) (A) (A) (A) (A) (A) (A) (A) (A) (A) (A) (A)
                 (A) (A) (A) (A) (A) (A) (A) (A) (A) (A) (A) (A)
                 (A) (A) (A) (A) (A) (A) (A) (A) (A) (A) (A) (A)
                 (A) (A) (A) (A) (A) (A) (A) (A) (A) (A) (A) (A)
                 (A) (A) (A) (A) (A) (A) (A) (A) (A) (A) (A) (A)
                 (A) (A) (A) (A) (A) (A) (A) (A) (A) (A) (A) (A)
                 (A) (A) (A) (A) (A) (A) (A) (A) (A) (A) (A) (A)
                 (A) (A) (A) (A) (A) (A) (A) (A) (A) (A) (A) (A)
                 (A) (A) (A) (A) (A) (A) (A) (A) (A) (A) (A) (A)
                 (A) (A) (A) (A) (A) (A) (A) (A) (A) (A) (A) (A)
                 (A) (A) (A) (A) (A) (A) (A) (A) (A) (A) (A) (A)
                 (A) (A) (A) (A) (A) (A) (A) (A) (A) (A) (A) (A)
                 (A) (A) (A) (A) (A) (A) (A) (A) (A) (A) (A) (A)
                 (A) (A) (A) (A) (A) (A) (A) (A) (A) (A) (A) (A)
                 (A) (A) (A) (A) (A) (A) (A) (A) (A) (A) (A) (A)
                 (A) (A) (A) (A) (A) (A) (A) (A) (A) (A) (A) (A)
                 (A) (A) (A) (A) (A) (A) (A) (A) (A) (A) (A) (A)
                 (A) (A) (A) (A) (A) (A) (A) (A) (A) (A) (A) (A)
                 (A) (A) (A) (A) (A) (A) (A) (A) (A) (A) (A) (A)
                 (A) (A) (A) (A) (A) (A) (A) (A) (A) (A) (A) (A)
                 (A) (A) (A) (A) (A) (A) (A) (A) (A) (A) (A) (A)
                 (A) (A) (A) (A) (A) (A) (A) (A) (A) (A) (A) (A)
                 (A) (A) (A) (A) (A) (A) (A) (A) (A) (A) (A) (A)
                 (A) (A) (A) (A) (A) (A) (A) (A) (A) (A) (A) (A)
                 (A) (A) (A) (A) (A) (A) (A) (A) (A) (A) (A) (A)
                 (A) (A) (A) (A) (A) (A) (A) (A) (A) (A) (A) (A)
                 (A) (A) (A) (A) (A) (A) (A) (A) (A) (A) (A) (A)
                 (A) (A) (A) (A) (A) (A) (A) (A) (A) (A) (A) (A)
                 (A) (A) (A) (A) (A) (A) (A) (A) (A) (A) (A) (A)
                 (A) (A) (A) (A) (A) (A) (A) (A) (A) (A) (A) (A)
                 (A) (A) (A) (A) (A) (A) (A) (A) (A) (A) (A) (A)
                 (A) (A) (A) (A) (A) (A) (A) (A) (A) (A) (A) (A)
                 (A) (A) (A) (A) (A) (A) (A) (A) (A) (A) (A) (A)
                 (A) (A) (A) (A) (A) (A) (A) (A) (A) (A) (A) (A)
                 (A) (A) (A) (A) (A) (A) (A) (A) (A) (A) (A) (A)
                 (A) (A) (A) (A) (A) (A) (A) (A) (A) (A) (A) (A)
                 (A) (A) (A) (A) (A) (A) (A) (A) (A) (A) (A) (A)
                 (A) (A) (A) (A) (A) (A)
 Beta  Orbitals:
       Occupied  (A) (A) (A) (A) (A) (A) (A) (A) (A) (A) (A) (A)
                 (A) (A) (A) (A) (A) (A) (A) (A) (A) (A) (A) (A)
                 (A) (A) (A) (A) (A) (A) (A) (A) (A) (A) (A) (A)
                 (A) (A) (A) (A) (A) (A) (A) (A) (A) (A) (A) (A)
                 (A) (A) (A) (A) (A) (A) (A) (A) (A) (A) (A) (A)
                 (A) (A) (A) (A) (A) (A) (A) (A) (A) (A) (A) (A)
                 (A) (A) (A) (A) (A) (A) (A) (A) (A) (A) (A) (A)
                 (A) (A) (A) (A) (A) (A) (A) (A) (A) (A) (A) (A)
                 (A) (A) (A) (A) (A) (A) (A) (A) (A) (A) (A) (A)
                 (A) (A) (A) (A) (A) (A) (A) (A) (A) (A) (A) (A)
                 (A) (A) (A) (A) (A) (A) (A) (A) (A) (A) (A) (A)
                 (A) (A) (A) (A) (A) (A) (A) (A) (A) (A) (A) (A)
                 (A) (A) (A) (A) (A) (A) (A) (A) (A) (A) (A) (A)
                 (A)
       Virtual   (A) (A) (A) (A) (A) (A) (A) (A) (A) (A) (A) (A)
                 (A) (A) (A) (A) (A) (A) (A) (A) (A) (A) (A) (A)
                 (A) (A) (A) (A) (A) (A) (A) (A) (A) (A) (A) (A)
                 (A) (A) (A) (A) (A) (A) (A) (A) (A) (A) (A) (A)
                 (A) (A) (A) (A) (A) (A) (A) (A) (A) (A) (A) (A)
                 (A) (A) (A) (A) (A) (A) (A) (A) (A) (A) (A) (A)
                 (A) (A) (A) (A) (A) (A) (A) (A) (A) (A) (A) (A)
                 (A) (A) (A) (A) (A) (A) (A) (A) (A) (A) (A) (A)
                 (A) (A) (A) (A) (A) (A) (A) (A) (A) (A) (A) (A)
                 (A) (A) (A) (A) (A) (A) (A) (A) (A) (A) (A) (A)
                 (A) (A) (A) (A) (A) (A) (A) (A) (A) (A) (A) (A)
                 (A) (A) (A) (A) (A) (A) (A) (A) (A) (A) (A) (A)
                 (A) (A) (A) (A) (A) (A) (A) (A) (A) (A) (A) (A)
                 (A) (A) (A) (A) (A) (A) (A) (A) (A) (A) (A) (A)
                 (A) (A) (A) (A) (A) (A) (A) (A) (A) (A) (A) (A)
                 (A) (A) (A) (A) (A) (A) (A) (A) (A) (A) (A) (A)
                 (A) (A) (A) (A) (A) (A) (A) (A) (A) (A) (A) (A)
                 (A) (A) (A) (A) (A) (A) (A) (A) (A) (A) (A) (A)
                 (A) (A) (A) (A) (A) (A) (A) (A) (A) (A) (A) (A)
                 (A) (A) (A) (A) (A) (A) (A) (A) (A) (A) (A) (A)
                 (A) (A) (A) (A) (A) (A) (A) (A) (A) (A) (A) (A)
                 (A) (A) (A) (A) (A) (A) (A) (A) (A) (A) (A) (A)
                 (A) (A) (A) (A) (A) (A) (A) (A) (A) (A) (A) (A)
                 (A) (A) (A) (A) (A) (A) (A) (A) (A) (A) (A) (A)
                 (A) (A) (A) (A) (A) (A) (A) (A) (A) (A) (A) (A)
                 (A) (A) (A) (A) (A) (A) (A) (A) (A) (A) (A) (A)
                 (A) (A) (A) (A) (A) (A) (A) (A) (A) (A) (A) (A)
                 (A) (A) (A) (A) (A) (A) (A) (A) (A) (A) (A) (A)
                 (A) (A) (A) (A) (A) (A) (A) (A) (A) (A) (A) (A)
                 (A) (A) (A) (A) (A) (A) (A) (A) (A) (A) (A) (A)
                 (A) (A) (A) (A) (A) (A) (A) (A) (A) (A) (A) (A)
                 (A) (A) (A) (A) (A) (A) (A) (A) (A) (A) (A) (A)
                 (A) (A) (A) (A) (A) (A) (A) (A) (A) (A) (A) (A)
                 (A) (A) (A) (A) (A) (A) (A) (A) (A) (A) (A) (A)
                 (A) (A) (A) (A) (A) (A) (A) (A) (A) (A) (A) (A)
                 (A) (A) (A) (A) (A) (A) (A) (A) (A) (A) (A) (A)
                 (A) (A) (A) (A) (A) (A) (A) (A) (A) (A) (A) (A)
                 (A) (A) (A) (A) (A) (A) (A) (A) (A) (A) (A) (A)
                 (A) (A) (A) (A) (A) (A) (A) (A) (A) (A) (A) (A)
                 (A) (A) (A) (A) (A) (A) (A) (A) (A) (A) (A) (A)
                 (A) (A) (A) (A) (A) (A) (A) (A) (A) (A) (A) (A)
                 (A) (A) (A) (A) (A) (A) (A) (A) (A) (A) (A) (A)
                 (A) (A) (A) (A) (A) (A) (A) (A) (A) (A) (A) (A)
                 (A) (A) (A) (A) (A) (A) (A) (A) (A) (A) (A) (A)
                 (A) (A) (A) (A) (A) (A) (A) (A) (A) (A) (A) (A)
                 (A) (A) (A) (A) (A) (A) (A) (A) (A) (A) (A) (A)
                 (A) (A) (A) (A) (A) (A) (A) (A) (A) (A) (A) (A)
                 (A) (A) (A) (A) (A) (A) (A) (A) (A) (A) (A) (A)
                 (A) (A) (A) (A) (A) (A) (A) (A) (A) (A) (A) (A)
                 (A) (A) (A) (A) (A) (A) (A) (A) (A) (A) (A) (A)
                 (A) (A) (A) (A) (A) (A) (A) (A) (A) (A) (A) (A)
                 (A) (A) (A) (A) (A) (A) (A) (A) (A) (A) (A) (A)
                 (A) (A) (A) (A) (A) (A) (A) (A) (A) (A) (A) (A)
                 (A) (A) (A) (A) (A) (A) (A) (A) (A) (A) (A) (A)
                 (A) (A) (A) (A) (A) (A) (A) (A) (A) (A) (A) (A)
                 (A) (A) (A) (A) (A) (A) (A) (A) (A) (A) (A) (A)
                 (A) (A) (A) (A) (A) (A) (A) (A) (A) (A) (A) (A)
                 (A) (A) (A) (A) (A) (A) (A) (A) (A) (A) (A) (A)
                 (A) (A) (A) (A) (A) (A) (A) (A) (A) (A) (A) (A)
                 (A) (A) (A) (A) (A) (A) (A) (A) (A) (A) (A) (A)
                 (A) (A) (A) (A) (A) (A) (A) (A) (A) (A) (A) (A)
                 (A) (A) (A) (A) (A) (A) (A) (A) (A) (A) (A) (A)
                 (A) (A) (A) (A) (A) (A) (A) (A) (A) (A) (A) (A)
                 (A) (A) (A) (A) (A) (A) (A) (A) (A) (A) (A) (A)
                 (A) (A) (A) (A) (A) (A) (A) (A) (A) (A) (A) (A)
                 (A) (A) (A) (A) (A) (A) (A) (A) (A) (A) (A) (A)
                 (A) (A) (A) (A) (A) (A) (A) (A) (A) (A) (A) (A)
                 (A) (A) (A) (A) (A) (A) (A) (A) (A) (A) (A) (A)
                 (A) (A) (A) (A) (A) (A) (A) (A) (A) (A) (A) (A)
                 (A) (A) (A) (A) (A) (A) (A) (A) (A) (A) (A) (A)
                 (A) (A) (A) (A) (A) (A) (A) (A) (A) (A) (A) (A)
                 (A) (A) (A) (A) (A) (A) (A) (A) (A) (A) (A) (A)
                 (A) (A) (A) (A) (A) (A) (A) (A) (A) (A) (A) (A)
                 (A) (A) (A) (A) (A) (A) (A) (A) (A) (A) (A) (A)
                 (A) (A) (A) (A) (A) (A) (A) (A) (A) (A) (A) (A)
                 (A) (A) (A) (A) (A) (A) (A) (A) (A) (A) (A) (A)
                 (A) (A) (A) (A) (A) (A) (A) (A) (A) (A) (A) (A)
                 (A) (A) (A) (A) (A) (A) (A) (A) (A) (A) (A) (A)
                 (A) (A) (A) (A) (A) (A) (A) (A) (A) (A) (A) (A)
                 (A) (A) (A) (A) (A) (A) (A) (A) (A) (A) (A) (A)
                 (A) (A) (A) (A) (A) (A) (A) (A) (A) (A) (A) (A)
                 (A) (A) (A) (A) (A) (A) (A) (A) (A) (A) (A) (A)
                 (A) (A) (A) (A) (A) (A) (A) (A) (A) (A) (A) (A)
                 (A) (A) (A) (A) (A) (A) (A) (A) (A) (A) (A) (A)
                 (A) (A) (A) (A) (A) (A) (A) (A) (A) (A) (A) (A)
                 (A) (A) (A) (A) (A) (A) (A) (A) (A) (A) (A) (A)
                 (A) (A) (A) (A) (A) (A) (A) (A) (A) (A) (A) (A)
                 (A) (A) (A) (A) (A) (A) (A) (A) (A) (A) (A) (A)
                 (A) (A) (A) (A) (A) (A) (A) (A) (A) (A) (A) (A)
                 (A) (A) (A) (A) (A) (A) (A) (A) (A) (A) (A) (A)
                 (A) (A) (A) (A) (A) (A) (A) (A) (A) (A) (A) (A)
                 (A) (A) (A) (A) (A) (A) (A) (A) (A) (A) (A) (A)
                 (A) (A) (A) (A) (A) (A) (A) (A) (A) (A) (A) (A)
                 (A) (A) (A) (A) (A) (A) (A) (A) (A) (A) (A) (A)
                 (A) (A) (A) (A) (A) (A) (A) (A) (A) (A) (A) (A)
                 (A) (A) (A) (A) (A) (A) (A) (A) (A) (A) (A) (A)
                 (A) (A) (A) (A) (A) (A) (A) (A) (A) (A) (A) (A)
                 (A) (A) (A) (A) (A) (A) (A) (A) (A) (A) (A) (A)
                 (A) (A) (A) (A) (A) (A) (A) (A) (A) (A) (A) (A)
                 (A) (A) (A) (A) (A) (A) (A) (A) (A) (A) (A) (A)
                 (A) (A) (A) (A) (A) (A) (A) (A) (A) (A) (A) (A)
                 (A) (A) (A) (A) (A) (A) (A) (A) (A) (A) (A) (A)
                 (A) (A) (A) (A) (A) (A) (A) (A) (A) (A) (A) (A)
                 (A) (A) (A) (A) (A) (A) (A) (A) (A) (A) (A) (A)
                 (A) (A) (A) (A) (A) (A) (A) (A) (A) (A) (A) (A)
                 (A) (A) (A) (A) (A) (A) (A) (A) (A) (A) (A) (A)
                 (A) (A) (A) (A) (A) (A) (A) (A) (A) (A) (A) (A)
                 (A) (A) (A) (A) (A) (A) (A) (A) (A) (A) (A) (A)
                 (A) (A) (A) (A) (A) (A) (A) (A) (A) (A) (A) (A)
                 (A) (A) (A) (A) (A) (A) (A) (A) (A) (A) (A) (A)
                 (A) (A) (A) (A) (A) (A) (A) (A) (A) (A) (A) (A)
                 (A) (A) (A) (A) (A) (A) (A) (A) (A) (A) (A) (A)
                 (A) (A) (A) (A) (A) (A) (A) (A) (A) (A) (A) (A)
                 (A) (A) (A) (A) (A) (A) (A) (A) (A) (A) (A) (A)
                 (A) (A) (A) (A) (A) (A) (A)
 The electronic state is 2-A.
 Alpha  occ. eigenvalues -- -256.39102 -30.25845 -26.10542 -26.10316 -26.07590
 Alpha  occ. eigenvalues --  -19.29792 -14.53215 -14.50103 -14.46156 -14.46024
 Alpha  occ. eigenvalues --  -14.45758 -14.45621 -10.37868 -10.35006 -10.32777
 Alpha  occ. eigenvalues --  -10.32724 -10.32719 -10.32616 -10.32561 -10.32560
 Alpha  occ. eigenvalues --  -10.32453 -10.32449 -10.32406 -10.30386 -10.29966
 Alpha  occ. eigenvalues --  -10.29654 -10.29646 -10.29626 -10.29617 -10.29571
 Alpha  occ. eigenvalues --  -10.29557 -10.29544 -10.29388 -10.29364 -10.29284
 Alpha  occ. eigenvalues --  -10.29277 -10.28865 -10.28689 -10.27897 -10.27891
 Alpha  occ. eigenvalues --  -10.27856 -10.27834 -10.27765 -10.27565 -10.27531
 Alpha  occ. eigenvalues --  -10.27297  -3.64306  -2.42623  -2.42062  -2.36310
 Alpha  occ. eigenvalues --   -1.17349  -1.17275  -1.08905  -1.08033  -1.07756
 Alpha  occ. eigenvalues --   -1.06911  -1.03153  -0.93509  -0.92309  -0.91923
 Alpha  occ. eigenvalues --   -0.91381  -0.91112  -0.90942  -0.90717  -0.90633
 Alpha  occ. eigenvalues --   -0.86777  -0.85564  -0.85237  -0.84313  -0.82905
 Alpha  occ. eigenvalues --   -0.82570  -0.81228  -0.80238  -0.78550  -0.78348
 Alpha  occ. eigenvalues --   -0.78072  -0.76346  -0.75150  -0.75104  -0.72837
 Alpha  occ. eigenvalues --   -0.72757  -0.70741  -0.70078  -0.68864  -0.68182
 Alpha  occ. eigenvalues --   -0.67343  -0.65145  -0.64451  -0.63658  -0.63401
 Alpha  occ. eigenvalues --   -0.61933  -0.61826  -0.61468  -0.59458  -0.59334
 Alpha  occ. eigenvalues --   -0.58887  -0.58316  -0.58117  -0.56152  -0.55598
 Alpha  occ. eigenvalues --   -0.55159  -0.54892  -0.54460  -0.54298  -0.54137
 Alpha  occ. eigenvalues --   -0.54022  -0.53491  -0.53385  -0.53275  -0.53007
 Alpha  occ. eigenvalues --   -0.52753  -0.52564  -0.52276  -0.52088  -0.51724
 Alpha  occ. eigenvalues --   -0.50855  -0.50699  -0.50536  -0.50408  -0.50248
 Alpha  occ. eigenvalues --   -0.50158  -0.49940  -0.49797  -0.49391  -0.49152
 Alpha  occ. eigenvalues --   -0.48603  -0.48363  -0.48226  -0.48175  -0.47875
 Alpha  occ. eigenvalues --   -0.47568  -0.47323  -0.47089  -0.46621  -0.46324
 Alpha  occ. eigenvalues --   -0.45925  -0.45435  -0.44916  -0.44403  -0.43840
 Alpha  occ. eigenvalues --   -0.43553  -0.43054  -0.42683  -0.41707  -0.41524
 Alpha  occ. eigenvalues --   -0.40675  -0.39992  -0.39488  -0.39372  -0.37603
 Alpha  occ. eigenvalues --   -0.37377  -0.35319  -0.33960  -0.33371  -0.32613
 Alpha  occ. eigenvalues --   -0.32162  -0.29935  -0.28946
 Alpha virt. eigenvalues --   -0.19476  -0.17810  -0.17763  -0.14846  -0.12129
 Alpha virt. eigenvalues --   -0.10222  -0.09030  -0.07854  -0.07399  -0.06394
 Alpha virt. eigenvalues --   -0.06173  -0.05420  -0.04400  -0.03903  -0.03060
 Alpha virt. eigenvalues --   -0.02728  -0.02585  -0.02243  -0.02146  -0.01187
 Alpha virt. eigenvalues --   -0.00719  -0.00608  -0.00050   0.00286   0.00366
 Alpha virt. eigenvalues --    0.00603   0.00778   0.01563   0.02012   0.02203
 Alpha virt. eigenvalues --    0.02564   0.02629   0.02830   0.03131   0.03411
 Alpha virt. eigenvalues --    0.03499   0.03614   0.03933   0.04100   0.04164
 Alpha virt. eigenvalues --    0.04446   0.04564   0.05043   0.05095   0.05196
 Alpha virt. eigenvalues --    0.05543   0.05612   0.05895   0.06120   0.06466
 Alpha virt. eigenvalues --    0.06964   0.07204   0.07272   0.07590   0.07827
 Alpha virt. eigenvalues --    0.07955   0.08027   0.08356   0.08646   0.08777
 Alpha virt. eigenvalues --    0.08899   0.09223   0.09450   0.09753   0.10063
 Alpha virt. eigenvalues --    0.10227   0.10720   0.10805   0.11165   0.11358
 Alpha virt. eigenvalues --    0.11628   0.11872   0.11993   0.12288   0.12543
 Alpha virt. eigenvalues --    0.13110   0.13253   0.13477   0.13519   0.13846
 Alpha virt. eigenvalues --    0.14000   0.14403   0.14667   0.15032   0.15349
 Alpha virt. eigenvalues --    0.15708   0.15997   0.16483   0.16875   0.16981
 Alpha virt. eigenvalues --    0.17009   0.17426   0.17591   0.17703   0.17944
 Alpha virt. eigenvalues --    0.18068   0.18382   0.18792   0.19328   0.19699
 Alpha virt. eigenvalues --    0.19830   0.20129   0.20466   0.20623   0.20939
 Alpha virt. eigenvalues --    0.21055   0.21291   0.21451   0.21892   0.22056
 Alpha virt. eigenvalues --    0.22234   0.22522   0.22697   0.23277   0.23415
 Alpha virt. eigenvalues --    0.23585   0.23895   0.24097   0.24421   0.24529
 Alpha virt. eigenvalues --    0.24907   0.24977   0.25434   0.25522   0.25726
 Alpha virt. eigenvalues --    0.26154   0.26696   0.26977   0.27469   0.27526
 Alpha virt. eigenvalues --    0.27931   0.28214   0.28354   0.28756   0.28944
 Alpha virt. eigenvalues --    0.29074   0.29206   0.29577   0.29965   0.30118
 Alpha virt. eigenvalues --    0.30322   0.30421   0.30722   0.31112   0.31283
 Alpha virt. eigenvalues --    0.31461   0.31613   0.31785   0.32026   0.32452
 Alpha virt. eigenvalues --    0.32676   0.32872   0.33098   0.33261   0.33414
 Alpha virt. eigenvalues --    0.33580   0.33617   0.34246   0.34487   0.34522
 Alpha virt. eigenvalues --    0.34906   0.35051   0.35379   0.35449   0.35507
 Alpha virt. eigenvalues --    0.35903   0.36062   0.36362   0.36634   0.36973
 Alpha virt. eigenvalues --    0.37393   0.37651   0.37914   0.38052   0.38171
 Alpha virt. eigenvalues --    0.38325   0.38469   0.38711   0.38889   0.39059
 Alpha virt. eigenvalues --    0.39200   0.39455   0.39920   0.40002   0.40249
 Alpha virt. eigenvalues --    0.40534   0.40815   0.41153   0.41411   0.41490
 Alpha virt. eigenvalues --    0.41561   0.41936   0.42199   0.42299   0.42459
 Alpha virt. eigenvalues --    0.42604   0.42800   0.43079   0.43187   0.43590
 Alpha virt. eigenvalues --    0.43704   0.43997   0.44226   0.44384   0.44640
 Alpha virt. eigenvalues --    0.45038   0.45199   0.45552   0.45683   0.45955
 Alpha virt. eigenvalues --    0.46036   0.46392   0.46853   0.46912   0.47174
 Alpha virt. eigenvalues --    0.47338   0.47495   0.47971   0.48217   0.48369
 Alpha virt. eigenvalues --    0.48519   0.49029   0.49216   0.49568   0.49863
 Alpha virt. eigenvalues --    0.50190   0.50436   0.50567   0.50946   0.51480
 Alpha virt. eigenvalues --    0.51958   0.52091   0.52368   0.52475   0.53076
 Alpha virt. eigenvalues --    0.53302   0.53377   0.54068   0.54245   0.54553
 Alpha virt. eigenvalues --    0.54755   0.54889   0.55268   0.55675   0.55757
 Alpha virt. eigenvalues --    0.56034   0.56095   0.56387   0.56974   0.57148
 Alpha virt. eigenvalues --    0.57322   0.57647   0.57911   0.58479   0.58576
 Alpha virt. eigenvalues --    0.58941   0.59489   0.59887   0.60520   0.60898
 Alpha virt. eigenvalues --    0.61109   0.61229   0.61843   0.61980   0.62365
 Alpha virt. eigenvalues --    0.62444   0.62655   0.63187   0.63629   0.63711
 Alpha virt. eigenvalues --    0.63813   0.64317   0.64644   0.64954   0.65298
 Alpha virt. eigenvalues --    0.65569   0.66163   0.66518   0.66595   0.67183
 Alpha virt. eigenvalues --    0.67769   0.68103   0.68286   0.68751   0.68808
 Alpha virt. eigenvalues --    0.68928   0.69193   0.69812   0.70043   0.70525
 Alpha virt. eigenvalues --    0.70618   0.71047   0.71459   0.71508   0.71952
 Alpha virt. eigenvalues --    0.72241   0.73132   0.73641   0.73852   0.74278
 Alpha virt. eigenvalues --    0.74784   0.75063   0.75369   0.76171   0.76298
 Alpha virt. eigenvalues --    0.76596   0.77093   0.77224   0.77505   0.78271
 Alpha virt. eigenvalues --    0.78592   0.78897   0.79387   0.79707   0.80208
 Alpha virt. eigenvalues --    0.80526   0.81055   0.81338   0.81373   0.82414
 Alpha virt. eigenvalues --    0.82594   0.83027   0.83174   0.83502   0.83831
 Alpha virt. eigenvalues --    0.84017   0.84222   0.85200   0.85418   0.85626
 Alpha virt. eigenvalues --    0.85908   0.86136   0.86931   0.87484   0.87697
 Alpha virt. eigenvalues --    0.87893   0.87967   0.88566   0.88966   0.89315
 Alpha virt. eigenvalues --    0.89425   0.90182   0.90539   0.90775   0.91055
 Alpha virt. eigenvalues --    0.91193   0.91783   0.91980   0.92105   0.92594
 Alpha virt. eigenvalues --    0.92780   0.93005   0.93622   0.93664   0.94083
 Alpha virt. eigenvalues --    0.94097   0.94274   0.94445   0.94728   0.95302
 Alpha virt. eigenvalues --    0.95613   0.96037   0.96318   0.96815   0.97083
 Alpha virt. eigenvalues --    0.97536   0.98158   0.98640   0.98851   0.99377
 Alpha virt. eigenvalues --    0.99567   0.99738   1.00482   1.00617   1.01084
 Alpha virt. eigenvalues --    1.02046   1.02218   1.02716   1.03202   1.03761
 Alpha virt. eigenvalues --    1.04295   1.04955   1.05634   1.05966   1.06104
 Alpha virt. eigenvalues --    1.06495   1.07158   1.07583   1.07904   1.08230
 Alpha virt. eigenvalues --    1.08431   1.08930   1.09385   1.09854   1.09969
 Alpha virt. eigenvalues --    1.10516   1.10750   1.11281   1.11415   1.11793
 Alpha virt. eigenvalues --    1.11997   1.12533   1.12694   1.13290   1.13579
 Alpha virt. eigenvalues --    1.13994   1.15224   1.15537   1.15885   1.16093
 Alpha virt. eigenvalues --    1.16774   1.16956   1.17448   1.17688   1.18034
 Alpha virt. eigenvalues --    1.18311   1.18684   1.18903   1.19368   1.19482
 Alpha virt. eigenvalues --    1.19726   1.20398   1.20711   1.21286   1.21479
 Alpha virt. eigenvalues --    1.21656   1.22288   1.22752   1.23204   1.23829
 Alpha virt. eigenvalues --    1.24688   1.25248   1.25918   1.26102   1.26954
 Alpha virt. eigenvalues --    1.27564   1.27986   1.28304   1.28739   1.29178
 Alpha virt. eigenvalues --    1.30230   1.30310   1.30754   1.31149   1.31945
 Alpha virt. eigenvalues --    1.32762   1.33582   1.33959   1.34256   1.34894
 Alpha virt. eigenvalues --    1.35492   1.35778   1.36206   1.36515   1.37203
 Alpha virt. eigenvalues --    1.37494   1.38043   1.38072   1.38361   1.38764
 Alpha virt. eigenvalues --    1.38866   1.39566   1.39631   1.39798   1.40351
 Alpha virt. eigenvalues --    1.40724   1.40925   1.41008   1.41613   1.41962
 Alpha virt. eigenvalues --    1.42175   1.42623   1.42951   1.43095   1.43456
 Alpha virt. eigenvalues --    1.43590   1.43670   1.44065   1.44306   1.44706
 Alpha virt. eigenvalues --    1.44942   1.45291   1.45449   1.45825   1.46030
 Alpha virt. eigenvalues --    1.46078   1.46441   1.46828   1.46993   1.47289
 Alpha virt. eigenvalues --    1.47450   1.47580   1.48096   1.48545   1.48568
 Alpha virt. eigenvalues --    1.48946   1.49262   1.49374   1.49771   1.50011
 Alpha virt. eigenvalues --    1.50381   1.50806   1.50991   1.51237   1.51748
 Alpha virt. eigenvalues --    1.51910   1.52588   1.52776   1.52912   1.53220
 Alpha virt. eigenvalues --    1.53507   1.53820   1.54135   1.54208   1.54894
 Alpha virt. eigenvalues --    1.54921   1.55095   1.55552   1.55920   1.56189
 Alpha virt. eigenvalues --    1.56292   1.57016   1.57324   1.57754   1.58101
 Alpha virt. eigenvalues --    1.58306   1.58521   1.58721   1.59066   1.59574
 Alpha virt. eigenvalues --    1.59948   1.60268   1.60502   1.60668   1.61188
 Alpha virt. eigenvalues --    1.61253   1.62304   1.62769   1.63241   1.63350
 Alpha virt. eigenvalues --    1.63798   1.64386   1.64823   1.65056   1.65563
 Alpha virt. eigenvalues --    1.66067   1.67060   1.67327   1.68598   1.69335
 Alpha virt. eigenvalues --    1.69377   1.70237   1.70387   1.71315   1.71781
 Alpha virt. eigenvalues --    1.72218   1.72815   1.73366   1.73719   1.73934
 Alpha virt. eigenvalues --    1.74314   1.74734   1.75440   1.75590   1.75985
 Alpha virt. eigenvalues --    1.76302   1.76807   1.77119   1.77459   1.77965
 Alpha virt. eigenvalues --    1.77999   1.78358   1.78561   1.78962   1.79494
 Alpha virt. eigenvalues --    1.79895   1.81194   1.81621   1.82154   1.82372
 Alpha virt. eigenvalues --    1.82848   1.83416   1.83643   1.84160   1.84632
 Alpha virt. eigenvalues --    1.85184   1.86071   1.86525   1.86786   1.87566
 Alpha virt. eigenvalues --    1.88079   1.88240   1.88593   1.88718   1.89231
 Alpha virt. eigenvalues --    1.89852   1.89927   1.90535   1.90735   1.91444
 Alpha virt. eigenvalues --    1.91956   1.92123   1.92466   1.93279   1.93780
 Alpha virt. eigenvalues --    1.93922   1.94613   1.95031   1.96215   1.96310
 Alpha virt. eigenvalues --    1.96659   1.97573   1.97878   1.98118   1.98768
 Alpha virt. eigenvalues --    1.99107   1.99290   2.00015   2.00323   2.01023
 Alpha virt. eigenvalues --    2.01384   2.01613   2.01819   2.02206   2.02766
 Alpha virt. eigenvalues --    2.03180   2.03501   2.03998   2.04318   2.05171
 Alpha virt. eigenvalues --    2.05525   2.05935   2.06070   2.06965   2.07426
 Alpha virt. eigenvalues --    2.08246   2.08585   2.08900   2.09402   2.09771
 Alpha virt. eigenvalues --    2.09931   2.10482   2.11276   2.11401   2.12302
 Alpha virt. eigenvalues --    2.12385   2.13009   2.13677   2.14229   2.15203
 Alpha virt. eigenvalues --    2.15819   2.16019   2.16241   2.17008   2.17215
 Alpha virt. eigenvalues --    2.17494   2.17669   2.18019   2.18671   2.18909
 Alpha virt. eigenvalues --    2.19388   2.19813   2.20441   2.21321   2.21400
 Alpha virt. eigenvalues --    2.21656   2.22411   2.22561   2.22931   2.23314
 Alpha virt. eigenvalues --    2.23713   2.24804   2.25555   2.25817   2.26200
 Alpha virt. eigenvalues --    2.26706   2.27193   2.27241   2.27904   2.28092
 Alpha virt. eigenvalues --    2.28374   2.28945   2.29298   2.29696   2.29797
 Alpha virt. eigenvalues --    2.30437   2.30992   2.31063   2.31290   2.31644
 Alpha virt. eigenvalues --    2.32144   2.32816   2.32977   2.34167   2.34424
 Alpha virt. eigenvalues --    2.34837   2.35258   2.35608   2.35995   2.36332
 Alpha virt. eigenvalues --    2.36607   2.36949   2.37494   2.37859   2.38050
 Alpha virt. eigenvalues --    2.38785   2.39078   2.39282   2.39989   2.40731
 Alpha virt. eigenvalues --    2.41298   2.41852   2.41912   2.42795   2.43304
 Alpha virt. eigenvalues --    2.43471   2.43667   2.43976   2.44331   2.45292
 Alpha virt. eigenvalues --    2.45721   2.46056   2.46342   2.46614   2.46873
 Alpha virt. eigenvalues --    2.47154   2.47185   2.47943   2.48309   2.48523
 Alpha virt. eigenvalues --    2.49048   2.49459   2.49815   2.50230   2.50593
 Alpha virt. eigenvalues --    2.50773   2.51281   2.51573   2.52022   2.52338
 Alpha virt. eigenvalues --    2.52783   2.53244   2.53986   2.54685   2.54875
 Alpha virt. eigenvalues --    2.55519   2.55747   2.55837   2.56155   2.56539
 Alpha virt. eigenvalues --    2.56884   2.57203   2.57552   2.57812   2.58115
 Alpha virt. eigenvalues --    2.58794   2.59035   2.59563   2.60186   2.60444
 Alpha virt. eigenvalues --    2.60656   2.60815   2.61752   2.62248   2.62253
 Alpha virt. eigenvalues --    2.62612   2.63247   2.63629   2.64277   2.64694
 Alpha virt. eigenvalues --    2.65119   2.65265   2.65818   2.66231   2.66551
 Alpha virt. eigenvalues --    2.66846   2.67308   2.67842   2.68480   2.68657
 Alpha virt. eigenvalues --    2.69453   2.69847   2.69961   2.70521   2.71059
 Alpha virt. eigenvalues --    2.71588   2.71984   2.72239   2.73012   2.73181
 Alpha virt. eigenvalues --    2.73581   2.73923   2.74074   2.74567   2.75161
 Alpha virt. eigenvalues --    2.75572   2.76089   2.76453   2.77078   2.77451
 Alpha virt. eigenvalues --    2.77524   2.77960   2.78637   2.78944   2.79204
 Alpha virt. eigenvalues --    2.79292   2.79579   2.80101   2.80380   2.80926
 Alpha virt. eigenvalues --    2.81189   2.81464   2.82197   2.82522   2.83240
 Alpha virt. eigenvalues --    2.83482   2.83614   2.83716   2.84097   2.84871
 Alpha virt. eigenvalues --    2.85129   2.85387   2.85904   2.86299   2.86584
 Alpha virt. eigenvalues --    2.86979   2.87067   2.87371   2.88146   2.88607
 Alpha virt. eigenvalues --    2.88836   2.89157   2.89505   2.89681   2.90101
 Alpha virt. eigenvalues --    2.90236   2.90683   2.90951   2.91540   2.92154
 Alpha virt. eigenvalues --    2.92299   2.92724   2.93194   2.93796   2.94136
 Alpha virt. eigenvalues --    2.94329   2.95302   2.95631   2.96059   2.96130
 Alpha virt. eigenvalues --    2.96876   2.97034   2.97153   2.97227   2.97632
 Alpha virt. eigenvalues --    2.97816   2.98398   2.98757   2.99174   2.99367
 Alpha virt. eigenvalues --    2.99498   2.99805   3.00601   3.00969   3.01256
 Alpha virt. eigenvalues --    3.01628   3.01736   3.01985   3.02606   3.02739
 Alpha virt. eigenvalues --    3.03309   3.03399   3.03663   3.03846   3.04290
 Alpha virt. eigenvalues --    3.04983   3.05356   3.05927   3.06335   3.06622
 Alpha virt. eigenvalues --    3.07049   3.07182   3.07374   3.07842   3.08261
 Alpha virt. eigenvalues --    3.08551   3.09131   3.09193   3.09544   3.09868
 Alpha virt. eigenvalues --    3.10323   3.10802   3.11031   3.11171   3.11496
 Alpha virt. eigenvalues --    3.11877   3.12372   3.12609   3.12839   3.13080
 Alpha virt. eigenvalues --    3.13476   3.13543   3.14047   3.14522   3.14662
 Alpha virt. eigenvalues --    3.15187   3.15429   3.15742   3.15814   3.16046
 Alpha virt. eigenvalues --    3.16532   3.16619   3.17153   3.17300   3.17523
 Alpha virt. eigenvalues --    3.17677   3.17925   3.18418   3.18556   3.19072
 Alpha virt. eigenvalues --    3.19424   3.19610   3.19757   3.20127   3.20493
 Alpha virt. eigenvalues --    3.20884   3.20942   3.21213   3.21458   3.21579
 Alpha virt. eigenvalues --    3.21926   3.22100   3.22782   3.23218   3.23278
 Alpha virt. eigenvalues --    3.23342   3.23612   3.24190   3.24380   3.24856
 Alpha virt. eigenvalues --    3.24940   3.25312   3.25440   3.25765   3.25996
 Alpha virt. eigenvalues --    3.26399   3.26822   3.26995   3.27190   3.27557
 Alpha virt. eigenvalues --    3.27970   3.28020   3.28139   3.28260   3.28679
 Alpha virt. eigenvalues --    3.29094   3.29560   3.29676   3.29860   3.30125
 Alpha virt. eigenvalues --    3.30585   3.30715   3.31372   3.31768   3.32368
 Alpha virt. eigenvalues --    3.32575   3.32881   3.33470   3.33906   3.34748
 Alpha virt. eigenvalues --    3.34996   3.35233   3.35276   3.35963   3.36118
 Alpha virt. eigenvalues --    3.36604   3.36725   3.37388   3.37745   3.38000
 Alpha virt. eigenvalues --    3.38899   3.39224   3.39314   3.40284   3.40517
 Alpha virt. eigenvalues --    3.41201   3.41941   3.42354   3.42674   3.42977
 Alpha virt. eigenvalues --    3.43436   3.43809   3.44122   3.44837   3.45125
 Alpha virt. eigenvalues --    3.45541   3.45801   3.46795   3.47152   3.47546
 Alpha virt. eigenvalues --    3.47738   3.48173   3.48440   3.48988   3.49566
 Alpha virt. eigenvalues --    3.49794   3.50523   3.51057   3.51695   3.51968
 Alpha virt. eigenvalues --    3.52624   3.52808   3.53542   3.53969   3.54395
 Alpha virt. eigenvalues --    3.55215   3.55758   3.56284   3.56411   3.56699
 Alpha virt. eigenvalues --    3.57171   3.57843   3.58133   3.58888   3.59385
 Alpha virt. eigenvalues --    3.59716   3.60164   3.60602   3.60970   3.61376
 Alpha virt. eigenvalues --    3.61698   3.61887   3.62685   3.63348   3.63939
 Alpha virt. eigenvalues --    3.64071   3.64361   3.64504   3.64647   3.65075
 Alpha virt. eigenvalues --    3.65490   3.65823   3.66721   3.67264   3.67637
 Alpha virt. eigenvalues --    3.68077   3.68888   3.69200   3.69987   3.70182
 Alpha virt. eigenvalues --    3.70841   3.71065   3.72350   3.72681   3.72879
 Alpha virt. eigenvalues --    3.73237   3.74322   3.74855   3.75077   3.76128
 Alpha virt. eigenvalues --    3.76753   3.77020   3.77432   3.78400   3.79120
 Alpha virt. eigenvalues --    3.79481   3.80039   3.80399   3.80875   3.81138
 Alpha virt. eigenvalues --    3.81694   3.82335   3.82833   3.83156   3.83697
 Alpha virt. eigenvalues --    3.84851   3.86254   3.86934   3.87310   3.87523
 Alpha virt. eigenvalues --    3.88662   3.88999   3.89380   3.89802   3.90530
 Alpha virt. eigenvalues --    3.90808   3.91076   3.92012   3.92150   3.92778
 Alpha virt. eigenvalues --    3.92866   3.94051   3.94242   3.94935   3.95498
 Alpha virt. eigenvalues --    3.95911   3.96747   3.97622   3.98113   3.98865
 Alpha virt. eigenvalues --    3.99373   4.00272   4.00444   4.00596   4.01487
 Alpha virt. eigenvalues --    4.01815   4.02490   4.03400   4.03870   4.05044
 Alpha virt. eigenvalues --    4.05552   4.06102   4.06554   4.06927   4.07596
 Alpha virt. eigenvalues --    4.08192   4.08493   4.09093   4.09780   4.09922
 Alpha virt. eigenvalues --    4.11071   4.11851   4.12069   4.12586   4.13362
 Alpha virt. eigenvalues --    4.14416   4.14681   4.15219   4.15793   4.15972
 Alpha virt. eigenvalues --    4.16617   4.16999   4.17122   4.17587   4.19383
 Alpha virt. eigenvalues --    4.19916   4.20513   4.21248   4.22092   4.22518
 Alpha virt. eigenvalues --    4.22917   4.23236   4.23538   4.24597   4.25169
 Alpha virt. eigenvalues --    4.25905   4.26506   4.26668   4.28004   4.28895
 Alpha virt. eigenvalues --    4.29920   4.30187   4.30468   4.30727   4.31103
 Alpha virt. eigenvalues --    4.31899   4.32447   4.32936   4.33587   4.34061
 Alpha virt. eigenvalues --    4.34153   4.34625   4.35117   4.35325   4.35938
 Alpha virt. eigenvalues --    4.36244   4.36388   4.37487   4.37786   4.39017
 Alpha virt. eigenvalues --    4.40049   4.41118   4.41495   4.42263   4.43434
 Alpha virt. eigenvalues --    4.44179   4.44759   4.45995   4.46349   4.47051
 Alpha virt. eigenvalues --    4.47885   4.48222   4.49017   4.51151   4.52040
 Alpha virt. eigenvalues --    4.52998   4.54188   4.55072   4.55602   4.57241
 Alpha virt. eigenvalues --    4.57760   4.58713   4.59087   4.59381   4.60438
 Alpha virt. eigenvalues --    4.61102   4.61618   4.62009   4.63270   4.64219
 Alpha virt. eigenvalues --    4.64452   4.65131   4.66462   4.67006   4.69038
 Alpha virt. eigenvalues --    4.69176   4.70456   4.71077   4.72170   4.72323
 Alpha virt. eigenvalues --    4.72999   4.73507   4.74132   4.74467   4.74593
 Alpha virt. eigenvalues --    4.74951   4.76199   4.77138   4.77673   4.78512
 Alpha virt. eigenvalues --    4.79254   4.80717   4.81242   4.82714   4.82957
 Alpha virt. eigenvalues --    4.83248   4.84007   4.84569   4.84983   4.85966
 Alpha virt. eigenvalues --    4.86866   4.88992   4.89393   4.90782   4.91010
 Alpha virt. eigenvalues --    4.92207   4.92469   4.92767   4.94276   4.94915
 Alpha virt. eigenvalues --    4.95507   4.96079   4.96972   4.97821   4.98932
 Alpha virt. eigenvalues --    4.99533   4.99598   5.03101   5.03781   5.04456
 Alpha virt. eigenvalues --    5.06754   5.07358   5.08398   5.09221   5.09501
 Alpha virt. eigenvalues --    5.10656   5.11570   5.11952   5.13351   5.14561
 Alpha virt. eigenvalues --    5.14992   5.16143   5.17836   5.18313   5.19494
 Alpha virt. eigenvalues --    5.21136   5.23898   5.25109   5.25336   5.26306
 Alpha virt. eigenvalues --    5.26884   5.27843   5.28103   5.28695   5.29368
 Alpha virt. eigenvalues --    5.29928   5.31400   5.32038   5.32621   5.35632
 Alpha virt. eigenvalues --    5.36925   5.38458   5.39096   5.39579   5.40426
 Alpha virt. eigenvalues --    5.40814   5.41224   5.44594   5.44902   5.48046
 Alpha virt. eigenvalues --    5.50539   5.51180   5.51312   5.52190   5.52316
 Alpha virt. eigenvalues --    5.53870   5.54649   5.55899   5.56681   5.57881
 Alpha virt. eigenvalues --    5.59382   5.62194   5.65156   5.65817   5.67041
 Alpha virt. eigenvalues --    5.68923   5.70867   5.78459   5.80557   5.82017
 Alpha virt. eigenvalues --    5.82339   5.84675   5.90543   5.90831   5.91676
 Alpha virt. eigenvalues --    5.97253   5.99517   6.00809   6.01625   6.02160
 Alpha virt. eigenvalues --    6.05678   6.07629   6.12127   6.15559   6.23023
 Alpha virt. eigenvalues --    6.23656   6.30048   6.35507   6.39048   6.41910
 Alpha virt. eigenvalues --    6.55469   6.84659   7.15888  22.27028  22.27847
 Alpha virt. eigenvalues --   22.34697  22.36944  22.37678  22.43561  22.44065
 Alpha virt. eigenvalues --   22.53352  22.54023  22.66748  22.75785  22.77915
 Alpha virt. eigenvalues --   22.81221  22.83425  22.84143  22.85539  22.87523
 Alpha virt. eigenvalues --   22.93361  22.93798  22.97613  23.05013  23.16728
 Alpha virt. eigenvalues --   23.17437  23.19925  23.21247  23.30838  23.31408
 Alpha virt. eigenvalues --   23.40391  23.40756  23.45435  23.63952  23.68707
 Alpha virt. eigenvalues --   23.69741  23.78848  32.29518  32.62243  32.78766
 Alpha virt. eigenvalues --   32.84974  32.90401  33.00240  43.94277
  Beta  occ. eigenvalues -- -256.39068 -30.23662 -26.08140 -26.07904 -26.06941
  Beta  occ. eigenvalues --  -19.29791 -14.53212 -14.50175 -14.46192 -14.46058
  Beta  occ. eigenvalues --  -14.45820 -14.45687 -10.37851 -10.35008 -10.32772
  Beta  occ. eigenvalues --  -10.32720 -10.32711 -10.32607 -10.32561 -10.32555
  Beta  occ. eigenvalues --  -10.32452 -10.32446 -10.32401 -10.30387 -10.29946
  Beta  occ. eigenvalues --  -10.29653 -10.29633 -10.29619 -10.29608 -10.29562
  Beta  occ. eigenvalues --  -10.29552 -10.29551 -10.29399 -10.29365 -10.29287
  Beta  occ. eigenvalues --  -10.29279 -10.28871 -10.28689 -10.27898 -10.27891
  Beta  occ. eigenvalues --  -10.27858 -10.27835 -10.27766 -10.27555 -10.27531
  Beta  occ. eigenvalues --  -10.27297  -3.59009  -2.35278  -2.34723  -2.34091
  Beta  occ. eigenvalues --   -1.17347  -1.17284  -1.08921  -1.08015  -1.07813
  Beta  occ. eigenvalues --   -1.06933  -1.03194  -0.93510  -0.92287  -0.91933
  Beta  occ. eigenvalues --   -0.91356  -0.91114  -0.90943  -0.90727  -0.90640
  Beta  occ. eigenvalues --   -0.86772  -0.85562  -0.85254  -0.84309  -0.82903
  Beta  occ. eigenvalues --   -0.82571  -0.81229  -0.80242  -0.78553  -0.78356
  Beta  occ. eigenvalues --   -0.78088  -0.76368  -0.75149  -0.75100  -0.72840
  Beta  occ. eigenvalues --   -0.72758  -0.70738  -0.70084  -0.68857  -0.68178
  Beta  occ. eigenvalues --   -0.67345  -0.65147  -0.64461  -0.63659  -0.63397
  Beta  occ. eigenvalues --   -0.61944  -0.61849  -0.61482  -0.59436  -0.59304
  Beta  occ. eigenvalues --   -0.58821  -0.58327  -0.58106  -0.56139  -0.55560
  Beta  occ. eigenvalues --   -0.55056  -0.54835  -0.54375  -0.54299  -0.54030
  Beta  occ. eigenvalues --   -0.53940  -0.53483  -0.53380  -0.53291  -0.52938
  Beta  occ. eigenvalues --   -0.52715  -0.52495  -0.52268  -0.52080  -0.51738
  Beta  occ. eigenvalues --   -0.50684  -0.50561  -0.50496  -0.50288  -0.50216
  Beta  occ. eigenvalues --   -0.49980  -0.49814  -0.49765  -0.49390  -0.49120
  Beta  occ. eigenvalues --   -0.48567  -0.48314  -0.48141  -0.48073  -0.47763
  Beta  occ. eigenvalues --   -0.47441  -0.47207  -0.46791  -0.46290  -0.46058
  Beta  occ. eigenvalues --   -0.45742  -0.44929  -0.44333  -0.44117  -0.43630
  Beta  occ. eigenvalues --   -0.43086  -0.42573  -0.41754  -0.41480  -0.40112
  Beta  occ. eigenvalues --   -0.39461  -0.38854  -0.37851  -0.37545  -0.37128
  Beta  occ. eigenvalues --   -0.35274  -0.34175  -0.33457  -0.32637  -0.32016
  Beta  occ. eigenvalues --   -0.29964  -0.28870
  Beta virt. eigenvalues --   -0.20836  -0.17784  -0.17330  -0.16810  -0.12086
  Beta virt. eigenvalues --   -0.11925  -0.10009  -0.08951  -0.07816  -0.07357
  Beta virt. eigenvalues --   -0.06327  -0.06149  -0.05403  -0.04395  -0.03894
  Beta virt. eigenvalues --   -0.03057  -0.02723  -0.02427  -0.02185  -0.02073
  Beta virt. eigenvalues --   -0.01160  -0.00711  -0.00570  -0.00043   0.00290
  Beta virt. eigenvalues --    0.00394   0.00619   0.00788   0.01569   0.02033
  Beta virt. eigenvalues --    0.02219   0.02571   0.02636   0.02838   0.03156
  Beta virt. eigenvalues --    0.03443   0.03519   0.03643   0.03937   0.04118
  Beta virt. eigenvalues --    0.04176   0.04451   0.04581   0.05050   0.05106
  Beta virt. eigenvalues --    0.05226   0.05545   0.05640   0.05913   0.06125
  Beta virt. eigenvalues --    0.06468   0.06971   0.07211   0.07274   0.07598
  Beta virt. eigenvalues --    0.07834   0.07964   0.08029   0.08387   0.08654
  Beta virt. eigenvalues --    0.08792   0.08911   0.09226   0.09469   0.09772
  Beta virt. eigenvalues --    0.10080   0.10244   0.10723   0.10814   0.11173
  Beta virt. eigenvalues --    0.11364   0.11635   0.11902   0.12016   0.12294
  Beta virt. eigenvalues --    0.12552   0.13118   0.13265   0.13498   0.13529
  Beta virt. eigenvalues --    0.13860   0.14046   0.14461   0.14773   0.15058
  Beta virt. eigenvalues --    0.15414   0.15753   0.16025   0.16501   0.16890
  Beta virt. eigenvalues --    0.16990   0.17031   0.17445   0.17618   0.17747
  Beta virt. eigenvalues --    0.17969   0.18094   0.18392   0.18901   0.19400
  Beta virt. eigenvalues --    0.19704   0.19863   0.20163   0.20475   0.20637
  Beta virt. eigenvalues --    0.20990   0.21117   0.21320   0.21463   0.21914
  Beta virt. eigenvalues --    0.22084   0.22268   0.22574   0.22760   0.23300
  Beta virt. eigenvalues --    0.23438   0.23612   0.23917   0.24219   0.24441
  Beta virt. eigenvalues --    0.24556   0.24909   0.25007   0.25484   0.25549
  Beta virt. eigenvalues --    0.25771   0.26195   0.26721   0.26990   0.27502
  Beta virt. eigenvalues --    0.27574   0.27948   0.28280   0.28374   0.28790
  Beta virt. eigenvalues --    0.28977   0.29097   0.29249   0.29597   0.29983
  Beta virt. eigenvalues --    0.30142   0.30368   0.30454   0.30740   0.31146
  Beta virt. eigenvalues --    0.31297   0.31521   0.31666   0.31800   0.32062
  Beta virt. eigenvalues --    0.32469   0.32704   0.32916   0.33113   0.33298
  Beta virt. eigenvalues --    0.33445   0.33608   0.33700   0.34285   0.34508
  Beta virt. eigenvalues --    0.34556   0.34993   0.35081   0.35422   0.35492
  Beta virt. eigenvalues --    0.35554   0.35915   0.36069   0.36405   0.36649
  Beta virt. eigenvalues --    0.37001   0.37429   0.37657   0.37923   0.38086
  Beta virt. eigenvalues --    0.38186   0.38357   0.38499   0.38717   0.38902
  Beta virt. eigenvalues --    0.39069   0.39218   0.39483   0.39931   0.40016
  Beta virt. eigenvalues --    0.40257   0.40548   0.40826   0.41181   0.41472
  Beta virt. eigenvalues --    0.41490   0.41569   0.41950   0.42224   0.42331
  Beta virt. eigenvalues --    0.42489   0.42651   0.42831   0.43083   0.43215
  Beta virt. eigenvalues --    0.43605   0.43721   0.44030   0.44236   0.44414
  Beta virt. eigenvalues --    0.44641   0.45084   0.45217   0.45582   0.45692
  Beta virt. eigenvalues --    0.45990   0.46047   0.46425   0.46861   0.46956
  Beta virt. eigenvalues --    0.47200   0.47340   0.47518   0.47975   0.48240
  Beta virt. eigenvalues --    0.48402   0.48521   0.49031   0.49232   0.49614
  Beta virt. eigenvalues --    0.49884   0.50207   0.50451   0.50638   0.50968
  Beta virt. eigenvalues --    0.51500   0.51974   0.52112   0.52390   0.52486
  Beta virt. eigenvalues --    0.53103   0.53319   0.53391   0.54096   0.54256
  Beta virt. eigenvalues --    0.54564   0.54781   0.54923   0.55292   0.55720
  Beta virt. eigenvalues --    0.55769   0.56055   0.56117   0.56396   0.56984
  Beta virt. eigenvalues --    0.57164   0.57340   0.57665   0.57949   0.58504
  Beta virt. eigenvalues --    0.58667   0.58979   0.59548   0.59906   0.60571
  Beta virt. eigenvalues --    0.60966   0.61162   0.61330   0.61845   0.62028
  Beta virt. eigenvalues --    0.62406   0.62481   0.62672   0.63220   0.63653
  Beta virt. eigenvalues --    0.63757   0.63834   0.64357   0.64678   0.65009
  Beta virt. eigenvalues --    0.65316   0.65610   0.66198   0.66517   0.66628
  Beta virt. eigenvalues --    0.67198   0.67781   0.68110   0.68324   0.68760
  Beta virt. eigenvalues --    0.68842   0.68941   0.69224   0.69834   0.70057
  Beta virt. eigenvalues --    0.70555   0.70693   0.71062   0.71487   0.71541
  Beta virt. eigenvalues --    0.71974   0.72258   0.73156   0.73654   0.73888
  Beta virt. eigenvalues --    0.74292   0.74818   0.75075   0.75398   0.76194
  Beta virt. eigenvalues --    0.76325   0.76662   0.77115   0.77256   0.77615
  Beta virt. eigenvalues --    0.78289   0.78623   0.78949   0.79407   0.79763
  Beta virt. eigenvalues --    0.80236   0.80543   0.81096   0.81356   0.81407
  Beta virt. eigenvalues --    0.82439   0.82602   0.83052   0.83191   0.83529
  Beta virt. eigenvalues --    0.83852   0.84040   0.84278   0.85261   0.85482
  Beta virt. eigenvalues --    0.85636   0.85924   0.86162   0.86942   0.87507
  Beta virt. eigenvalues --    0.87711   0.87913   0.88025   0.88582   0.88979
  Beta virt. eigenvalues --    0.89342   0.89461   0.90198   0.90650   0.90800
  Beta virt. eigenvalues --    0.91104   0.91221   0.91803   0.92005   0.92121
  Beta virt. eigenvalues --    0.92600   0.92808   0.93032   0.93665   0.93688
  Beta virt. eigenvalues --    0.94109   0.94141   0.94310   0.94469   0.94772
  Beta virt. eigenvalues --    0.95387   0.95653   0.96069   0.96325   0.96869
  Beta virt. eigenvalues --    0.97196   0.97600   0.98205   0.98667   0.99015
  Beta virt. eigenvalues --    0.99492   0.99659   0.99766   1.00508   1.00777
  Beta virt. eigenvalues --    1.01157   1.02069   1.02232   1.02854   1.03283
  Beta virt. eigenvalues --    1.03901   1.04359   1.05008   1.05731   1.06011
  Beta virt. eigenvalues --    1.06246   1.06517   1.07175   1.07605   1.07933
  Beta virt. eigenvalues --    1.08275   1.08456   1.08980   1.09425   1.09878
  Beta virt. eigenvalues --    1.10044   1.10536   1.10767   1.11314   1.11512
  Beta virt. eigenvalues --    1.11817   1.12023   1.12658   1.12728   1.13301
  Beta virt. eigenvalues --    1.13606   1.14138   1.15305   1.15566   1.15939
  Beta virt. eigenvalues --    1.16155   1.16883   1.16992   1.17510   1.17738
  Beta virt. eigenvalues --    1.18066   1.18351   1.18707   1.18949   1.19397
  Beta virt. eigenvalues --    1.19500   1.19771   1.20539   1.20768   1.21312
  Beta virt. eigenvalues --    1.21497   1.21763   1.22332   1.22788   1.23226
  Beta virt. eigenvalues --    1.23854   1.24745   1.25276   1.25950   1.26111
  Beta virt. eigenvalues --    1.27049   1.27596   1.28010   1.28334   1.28760
  Beta virt. eigenvalues --    1.29211   1.30241   1.30335   1.30859   1.31172
  Beta virt. eigenvalues --    1.31971   1.32796   1.33622   1.33987   1.34276
  Beta virt. eigenvalues --    1.34917   1.35527   1.35805   1.36259   1.36564
  Beta virt. eigenvalues --    1.37244   1.37529   1.38072   1.38102   1.38399
  Beta virt. eigenvalues --    1.38780   1.38887   1.39620   1.39666   1.39820
  Beta virt. eigenvalues --    1.40385   1.40743   1.40958   1.41035   1.41634
  Beta virt. eigenvalues --    1.41984   1.42227   1.42658   1.42994   1.43114
  Beta virt. eigenvalues --    1.43497   1.43625   1.43701   1.44088   1.44324
  Beta virt. eigenvalues --    1.44720   1.44957   1.45331   1.45500   1.45843
  Beta virt. eigenvalues --    1.46051   1.46102   1.46449   1.46839   1.47028
  Beta virt. eigenvalues --    1.47297   1.47491   1.47593   1.48116   1.48575
  Beta virt. eigenvalues --    1.48592   1.48949   1.49283   1.49396   1.49793
  Beta virt. eigenvalues --    1.50020   1.50399   1.50816   1.51009   1.51248
  Beta virt. eigenvalues --    1.51770   1.51921   1.52616   1.52795   1.52926
  Beta virt. eigenvalues --    1.53231   1.53521   1.53836   1.54136   1.54219
  Beta virt. eigenvalues --    1.54907   1.54938   1.55103   1.55559   1.55928
  Beta virt. eigenvalues --    1.56218   1.56312   1.57032   1.57334   1.57769
  Beta virt. eigenvalues --    1.58116   1.58331   1.58542   1.58747   1.59096
  Beta virt. eigenvalues --    1.59619   1.59973   1.60276   1.60513   1.60675
  Beta virt. eigenvalues --    1.61209   1.61263   1.62321   1.62788   1.63248
  Beta virt. eigenvalues --    1.63369   1.63828   1.64393   1.64849   1.65116
  Beta virt. eigenvalues --    1.65627   1.66118   1.67077   1.67352   1.68612
  Beta virt. eigenvalues --    1.69344   1.69390   1.70253   1.70408   1.71326
  Beta virt. eigenvalues --    1.71795   1.72238   1.72841   1.73397   1.73734
  Beta virt. eigenvalues --    1.73956   1.74328   1.74744   1.75450   1.75611
  Beta virt. eigenvalues --    1.75992   1.76310   1.76830   1.77142   1.77489
  Beta virt. eigenvalues --    1.77981   1.78018   1.78368   1.78592   1.78980
  Beta virt. eigenvalues --    1.79527   1.79902   1.81240   1.81652   1.82245
  Beta virt. eigenvalues --    1.82396   1.82887   1.83445   1.83793   1.84219
  Beta virt. eigenvalues --    1.84651   1.85229   1.86088   1.86585   1.86826
  Beta virt. eigenvalues --    1.87600   1.88108   1.88300   1.88680   1.88745
  Beta virt. eigenvalues --    1.89259   1.89921   1.89963   1.90541   1.90766
  Beta virt. eigenvalues --    1.91453   1.91999   1.92135   1.92472   1.93320
  Beta virt. eigenvalues --    1.93806   1.94046   1.94636   1.95163   1.96292
  Beta virt. eigenvalues --    1.96390   1.96692   1.97628   1.97919   1.98167
  Beta virt. eigenvalues --    1.98799   1.99131   1.99306   2.00046   2.00332
  Beta virt. eigenvalues --    2.01050   2.01410   2.01642   2.01870   2.02254
  Beta virt. eigenvalues --    2.02808   2.03220   2.03531   2.04038   2.04355
  Beta virt. eigenvalues --    2.05199   2.05581   2.05960   2.06104   2.07015
  Beta virt. eigenvalues --    2.07446   2.08272   2.08596   2.08924   2.09429
  Beta virt. eigenvalues --    2.09793   2.09951   2.10512   2.11294   2.11463
  Beta virt. eigenvalues --    2.12335   2.12412   2.13030   2.13693   2.14293
  Beta virt. eigenvalues --    2.15221   2.15836   2.16033   2.16255   2.17030
  Beta virt. eigenvalues --    2.17254   2.17506   2.17704   2.18040   2.18689
  Beta virt. eigenvalues --    2.18919   2.19415   2.19909   2.20463   2.21338
  Beta virt. eigenvalues --    2.21429   2.21677   2.22453   2.22635   2.22949
  Beta virt. eigenvalues --    2.23345   2.23739   2.24815   2.25576   2.25828
  Beta virt. eigenvalues --    2.26211   2.26722   2.27209   2.27270   2.27915
  Beta virt. eigenvalues --    2.28106   2.28386   2.28967   2.29319   2.29743
  Beta virt. eigenvalues --    2.29811   2.30456   2.31032   2.31091   2.31306
  Beta virt. eigenvalues --    2.31679   2.32191   2.32841   2.33012   2.34227
  Beta virt. eigenvalues --    2.34462   2.34884   2.35288   2.35715   2.36036
  Beta virt. eigenvalues --    2.36394   2.36656   2.37023   2.37513   2.37914
  Beta virt. eigenvalues --    2.38063   2.38908   2.39134   2.39303   2.40010
  Beta virt. eigenvalues --    2.40819   2.41342   2.41869   2.42045   2.42825
  Beta virt. eigenvalues --    2.43349   2.43544   2.43685   2.43982   2.44378
  Beta virt. eigenvalues --    2.45320   2.45738   2.46171   2.46352   2.46634
  Beta virt. eigenvalues --    2.46896   2.47193   2.47212   2.47952   2.48352
  Beta virt. eigenvalues --    2.48561   2.49151   2.49504   2.49859   2.50254
  Beta virt. eigenvalues --    2.50604   2.50788   2.51304   2.51616   2.52049
  Beta virt. eigenvalues --    2.52357   2.52800   2.53261   2.54012   2.54752
  Beta virt. eigenvalues --    2.54906   2.55586   2.55779   2.55870   2.56189
  Beta virt. eigenvalues --    2.56587   2.56907   2.57239   2.57577   2.57844
  Beta virt. eigenvalues --    2.58144   2.58812   2.59044   2.59578   2.60219
  Beta virt. eigenvalues --    2.60500   2.60680   2.60849   2.61759   2.62257
  Beta virt. eigenvalues --    2.62295   2.62632   2.63271   2.63676   2.64296
  Beta virt. eigenvalues --    2.64735   2.65178   2.65279   2.65878   2.66282
  Beta virt. eigenvalues --    2.66561   2.66863   2.67338   2.67861   2.68541
  Beta virt. eigenvalues --    2.68680   2.69458   2.69861   2.69962   2.70566
  Beta virt. eigenvalues --    2.71082   2.71604   2.72023   2.72293   2.73039
  Beta virt. eigenvalues --    2.73189   2.73595   2.73942   2.74103   2.74606
  Beta virt. eigenvalues --    2.75207   2.75594   2.76125   2.76505   2.77097
  Beta virt. eigenvalues --    2.77468   2.77563   2.77983   2.78667   2.78993
  Beta virt. eigenvalues --    2.79215   2.79329   2.79618   2.80117   2.80433
  Beta virt. eigenvalues --    2.81008   2.81229   2.81507   2.82218   2.82568
  Beta virt. eigenvalues --    2.83311   2.83526   2.83666   2.83811   2.84121
  Beta virt. eigenvalues --    2.84899   2.85186   2.85482   2.85977   2.86332
  Beta virt. eigenvalues --    2.86604   2.86999   2.87079   2.87405   2.88161
  Beta virt. eigenvalues --    2.88621   2.88866   2.89170   2.89527   2.89700
  Beta virt. eigenvalues --    2.90179   2.90271   2.90709   2.90993   2.91562
  Beta virt. eigenvalues --    2.92179   2.92320   2.92799   2.93209   2.93825
  Beta virt. eigenvalues --    2.94152   2.94371   2.95334   2.95673   2.96088
  Beta virt. eigenvalues --    2.96159   2.96910   2.97048   2.97170   2.97241
  Beta virt. eigenvalues --    2.97645   2.97847   2.98413   2.98795   2.99198
  Beta virt. eigenvalues --    2.99389   2.99513   2.99843   3.00618   3.00999
  Beta virt. eigenvalues --    3.01289   3.01653   3.01760   3.02000   3.02641
  Beta virt. eigenvalues --    3.02754   3.03328   3.03427   3.03687   3.03865
  Beta virt. eigenvalues --    3.04308   3.05001   3.05384   3.05952   3.06354
  Beta virt. eigenvalues --    3.06649   3.07069   3.07199   3.07394   3.07865
  Beta virt. eigenvalues --    3.08276   3.08568   3.09146   3.09214   3.09568
  Beta virt. eigenvalues --    3.09899   3.10337   3.10827   3.11058   3.11207
  Beta virt. eigenvalues --    3.11525   3.11895   3.12387   3.12642   3.12850
  Beta virt. eigenvalues --    3.13125   3.13509   3.13561   3.14062   3.14550
  Beta virt. eigenvalues --    3.14674   3.15210   3.15465   3.15768   3.15842
  Beta virt. eigenvalues --    3.16059   3.16548   3.16638   3.17184   3.17327
  Beta virt. eigenvalues --    3.17546   3.17712   3.17946   3.18431   3.18582
  Beta virt. eigenvalues --    3.19093   3.19443   3.19623   3.19769   3.20142
  Beta virt. eigenvalues --    3.20507   3.20898   3.20953   3.21231   3.21467
  Beta virt. eigenvalues --    3.21593   3.21943   3.22127   3.22809   3.23233
  Beta virt. eigenvalues --    3.23298   3.23359   3.23620   3.24210   3.24414
  Beta virt. eigenvalues --    3.24882   3.24965   3.25326   3.25463   3.25807
  Beta virt. eigenvalues --    3.26042   3.26432   3.26846   3.27014   3.27209
  Beta virt. eigenvalues --    3.27584   3.27996   3.28037   3.28168   3.28322
  Beta virt. eigenvalues --    3.28698   3.29120   3.29593   3.29701   3.29882
  Beta virt. eigenvalues --    3.30153   3.30610   3.30751   3.31385   3.31803
  Beta virt. eigenvalues --    3.32386   3.32595   3.32894   3.33494   3.33968
  Beta virt. eigenvalues --    3.34813   3.35026   3.35260   3.35336   3.36034
  Beta virt. eigenvalues --    3.36139   3.36631   3.36766   3.37409   3.37762
  Beta virt. eigenvalues --    3.38049   3.38924   3.39261   3.39352   3.40306
  Beta virt. eigenvalues --    3.40561   3.41242   3.41977   3.42382   3.42710
  Beta virt. eigenvalues --    3.43026   3.43470   3.43866   3.44199   3.44868
  Beta virt. eigenvalues --    3.45147   3.45566   3.45891   3.46813   3.47168
  Beta virt. eigenvalues --    3.47592   3.47766   3.48276   3.48581   3.49042
  Beta virt. eigenvalues --    3.49588   3.49922   3.50580   3.51148   3.51755
  Beta virt. eigenvalues --    3.52085   3.52710   3.52830   3.53567   3.54002
  Beta virt. eigenvalues --    3.54410   3.55378   3.55775   3.56331   3.56523
[...]
  1387. RY*(  12) N  76                  0.00004     3.77527   
  1388. RY*(  13) N  76                  0.00003     2.96086   
  1389. RY*(  14) N  76                  0.00001     2.99110   
  1390. RY*(  15) N  76                  0.00000     4.32842   
  1391. RY*(  16) N  76                  0.00001     4.32329   
  1392. RY*(  17) N  76                  0.00000     4.71032   
  1393. RY*(  18) N  76                  0.00001     4.61441   
  1394. RY*(  19) N  76                  0.00000    31.29499   
  1395. RY*(  20) N  76                  0.00000     4.24950   
  1396. RY*(  21) N  76                  0.00001     4.75988   
  1397. RY*(  22) N  76                  0.00000     3.98510   
  1398. RY*(  23) N  76                  0.00000     4.41334   
  1399. RY*(  24) N  76                  0.00000     4.50460   
  1400. RY*(  25) N  76                  0.00000     4.58071   
  1401. RY*(  26) N  76                  0.00000     4.43895   
  1402. RY*(   1) C  77                  0.00194     1.40670   
  1403. RY*(   2) C  77                  0.00123     0.61787   
  1404. RY*(   3) C  77                  0.00079     1.79252   
  1405. RY*(   4) C  77                  0.00035     1.97277   
  1406. RY*(   5) C  77                  0.00026     1.54056   
  1407. RY*(   6) C  77                  0.00022     1.64315   
  1408. RY*(   7) C  77                  0.00020     1.76079   
  1409. RY*(   8) C  77                  0.00014     1.57037   
  1410. RY*(   9) C  77                  0.00010     1.88570   
  1411. RY*(  10) C  77                  0.00007     1.63682   
  1412. RY*(  11) C  77                  0.00005     1.36239   
  1413. RY*(  12) C  77                  0.00003     2.00046   
  1414. RY*(  13) C  77                  0.00003     1.93161   
  1415. RY*(  14) C  77                  0.00003     2.84657   
  1416. RY*(  15) C  77                  0.00000     3.14410   
  1417. RY*(  16) C  77                  0.00001     1.21359   
  1418. RY*(  17) C  77                  0.00000     3.50645   
  1419. RY*(  18) C  77                  0.00001     3.28546   
  1420. RY*(  19) C  77                  0.00000    21.43506   
  1421. RY*(  20) C  77                  0.00000     3.83160   
  1422. RY*(  21) C  77                  0.00001     3.83986   
  1423. RY*(  22) C  77                  0.00000     3.36380   
  1424. RY*(  23) C  77                  0.00000     3.63134   
  1425. RY*(  24) C  77                  0.00000     3.36011   
  1426. RY*(  25) C  77                  0.00000     3.46351   
  1427. RY*(  26) C  77                  0.00000     3.32823   
  1428. RY*(   1) H  78                  0.00026     0.74348   
  1429. RY*(   2) H  78                  0.00017     2.10365   
  1430. RY*(   3) H  78                  0.00010     2.19136   
  1431. RY*(   4) H  78                  0.00004     2.63274   
  1432. RY*(   5) H  78                  0.00001     3.00158   
  1433. BD*(   1)Fe   1 - N   2          0.03048     0.28198   
  1434. BD*(   1)Fe   1 - N   3          0.03873     0.27288   
  1435. BD*(   1)Fe   1 - N   4          0.03088     0.28375   
  1436. BD*(   1)Fe   1 - N   5          0.03888     0.27527   
  1437. BD*(   1)Fe   1 - N  76          0.03838     0.15650   
  1438. BD*(   1) N   2 - C   6          0.01345     0.40304   
  1439. BD*(   2) N   2 - C   6          0.31700    -0.09994  1485(v),1458(v),1453(v)
                                                    293(g),187(g),155(v),707(v)
                                                    192(g)
  1440. BD*(   1) N   2 - C   9          0.01369     0.39923   
  1441. BD*(   1) N   3 - C  10          0.01379     0.39430   
  1442. BD*(   2) N   3 - C  10          0.33244    -0.10365  1458(v),1462(v),1467(v)
                                                    154(v),397(g),215(g),155(v)
                                                    396(g),738(v),1448(r)
  1443. BD*(   1) N   3 - C  13          0.01312     0.40082   
  1444. BD*(   1) N   4 - C  14          0.01362     0.39547   
  1445. BD*(   2) N   4 - C  14          0.32961    -0.10493  1467(v),1471(v),1476(v)
                                                    501(g),239(g),770(v),155(v)
  1446. BD*(   1) N   4 - C  17          0.01312     0.39850   
  1447. BD*(   1) N   5 - C  18          0.01343     0.40038   
  1448. BD*(   2) N   5 - C  18          0.33025    -0.10129  1476(v),1480(v),1485(v)
                                                    154(v),605(g),267(g),155(v)
                                                    604(g),1442(r),800(v)
  1449. BD*(   1) N   5 - C  21          0.01350     0.40003   
  1450. BD*(   1) C   6 - C   7          0.01729     0.38525   
  1451. BD*(   1) C   6 - C  22          0.01024     0.47045   
  1452. BD*(   1) C   7 - C   8          0.01146     0.50716   
  1453. BD*(   2) C   7 - C   8          0.11751    -0.03097  1458(v),1439(v),1492(v)
                                                    1494(v),1491(v),1493(v)
  1454. BD*(   1) C   7 - C  34          0.00811     0.32122   
  1455. BD*(   1) C   8 - C   9          0.01752     0.38533   
  1456. BD*(   1) C   8 - C  30          0.00817     0.31985   
  1457. BD*(   1) C   9 - C  24          0.01032     0.46933   
  1458. BD*(   2) C   9 - C  24          0.20008    -0.06025  1442(v),1453(v),1439(v)
                                                    738(g),1467(r),1485(r)
                                                    373(g)
  1459. BD*(   1) C  10 - C  11          0.01696     0.39045   
  1460. BD*(   1) C  10 - C  24          0.01050     0.46309   
  1461. BD*(   1) C  11 - C  12          0.01259     0.48960   
  1462. BD*(   2) C  11 - C  12          0.14009    -0.03657  1501(v),1467(v),1442(v)
                                                    1497(v),1496(v)
  1463. BD*(   1) C  11 - C  38          0.00779     0.31979   
  1464. BD*(   1) C  12 - C  13          0.01681     0.37968   
  1465. BD*(   1) C  12 - C  42          0.01330     0.40032   
  1466. BD*(   1) C  13 - C  26          0.01014     0.47115   
  1467. BD*(   2) C  13 - C  26          0.19481    -0.05762  1462(v),1445(v),1442(v)
                                                    770(g),1458(r),1476(r)
                                                    1485(r),477(g)
  1468. BD*(   1) C  14 - C  15          0.01697     0.39435   
  1469. BD*(   1) C  14 - C  26          0.01056     0.46718   
  1470. BD*(   1) C  15 - C  16          0.01261     0.49000   
  1471. BD*(   2) C  15 - C  16          0.13863    -0.03543  1509(v),1476(v),1445(v)
                                                    1505(v),1504(v)
  1472. BD*(   1) C  15 - C  47          0.00775     0.32336   
  1473. BD*(   1) C  16 - C  17          0.01714     0.38300   
  1474. BD*(   1) C  16 - C  51          0.01334     0.40241   
  1475. BD*(   1) C  17 - C  28          0.01044     0.46617   
  1476. BD*(   2) C  17 - C  28          0.20594    -0.06148  1448(v),1471(v),1445(v)
                                                    800(g),1467(r),1485(r)
                                                    579(g)
  1477. BD*(   1) C  18 - C  19          0.01744     0.38350   
  1478. BD*(   1) C  18 - C  28          0.01043     0.46926   
  1479. BD*(   1) C  19 - C  20          0.01146     0.50672   
  1480. BD*(   2) C  19 - C  20          0.11930    -0.03122  1485(v),1448(v),1513(v)
                                                    1515(v),1517(v),1512(v)
  1481. BD*(   1) C  19 - C  56          0.00812     0.31931   
  1482. BD*(   1) C  20 - C  21          0.01718     0.38310   
  1483. BD*(   1) C  20 - C  60          0.00811     0.31986   
  1484. BD*(   1) C  21 - C  22          0.01016     0.47222   
  1485. BD*(   2) C  21 - C  22          0.19675    -0.05731  1439(v),1480(v),1448(v)
                                                    707(g),1458(r),685(g)
                                                    1467(r),1476(r)
  1486. BD*(   1) C  22 - H  23          0.00609     0.33267   
  1487. BD*(   1) C  24 - H  25          0.00641     0.33309   
  1488. BD*(   1) C  26 - H  27          0.00647     0.33255   
  1489. BD*(   1) C  28 - H  29          0.00659     0.33405   
  1490. BD*(   1) C  30 - H  31          0.00303     0.30621   
  1491. BD*(   1) C  30 - H  32          0.00469     0.29376   
  1492. BD*(   1) C  30 - H  33          0.00482     0.29105   
  1493. BD*(   1) C  34 - H  35          0.00467     0.29406   
  1494. BD*(   1) C  34 - H  36          0.00474     0.29429   
  1495. BD*(   1) C  34 - H  37          0.00303     0.30669   
  1496. BD*(   1) C  38 - H  39          0.00443     0.29566   
  1497. BD*(   1) C  38 - H  40          0.00537     0.29172   
  1498. BD*(   1) C  38 - H  41          0.00374     0.30576   
  1499. BD*(   1) C  42 - H  43          0.01025     0.33320   
  1500. BD*(   1) C  42 - C  44          0.00368     0.54302   
  1501. BD*(   2) C  42 - C  44          0.02912    -0.02924   
  1502. BD*(   1) C  44 - H  45          0.00514     0.34999   
  1503. BD*(   1) C  44 - H  46          0.00386     0.35389   
  1504. BD*(   1) C  47 - H  48          0.00447     0.29969   
  1505. BD*(   1) C  47 - H  49          0.00549     0.29382   
  1506. BD*(   1) C  47 - H  50          0.00372     0.30894   
  1507. BD*(   1) C  51 - H  52          0.01043     0.33514   
  1508. BD*(   1) C  51 - C  53          0.00366     0.54483   
  1509. BD*(   2) C  51 - C  53          0.03073    -0.02725   
  1510. BD*(   1) C  53 - H  54          0.00515     0.35172   
  1511. BD*(   1) C  53 - H  55          0.00386     0.35590   
  1512. BD*(   1) C  56 - H  57          0.00435     0.29276   
  1513. BD*(   1) C  56 - H  58          0.00467     0.29326   
  1514. BD*(   1) C  56 - H  59          0.00300     0.30584   
  1515. BD*(   1) C  60 - H  61          0.00449     0.29323   
  1516. BD*(   1) C  60 - H  62          0.00301     0.30602   
  1517. BD*(   1) C  60 - H  63          0.00452     0.29371   
  1520. BD*(   1) C  67 - H  68          0.00487     0.27039   
  1521. BD*(   1) C  67 - H  69          0.00153     0.28212   
  1522. BD*(   1) C  67 - H  70          0.00504     0.27018   
  1523. BD*(   1) C  67 - C  73          0.00611     0.28817   
  1524. BD*(   1) N  71 - H  72          0.00638     0.26368   
  1525. BD*(   1) N  71 - C  73          0.01366     0.31745   
  1526. BD*(   1) N  71 - C  74          0.01011     0.32760   
  1527. BD*(   1) C  73 - C  77          0.01035     0.45217   
  1528. BD*(   1) C  74 - H  75          0.00857     0.27280   
  1529. BD*(   1) C  74 - N  76          0.00896     0.40876   
  1530. BD*(   2) C  74 - N  76          0.22179    -0.13075  95(v),1346(g),154(v),1529(g)
  1531. BD*(   1) N  76 - C  77          0.00837     0.35633   
  1532. BD*(   1) C  77 - H  78          0.00677     0.31618   
       -------------------------------
              Total Lewis  147.56712  ( 97.0197%)
        Valence non-Lewis    4.23808  (  2.7864%)
        Rydberg non-Lewis    0.29494  (  0.1939%)
       -------------------------------
            Total unit  1  152.10013  (100.0000%)
           Charge unit  1    0.89987
 
 Molecular unit  2  (H2O)
    86. BD (   1) O  64 - H  65          0.99679    -0.92940  155(r),161(r),1243(v)
                                                    1437(r),163(r),1376(r)
                                                    1435(r),162(r),168(r),192(r)
                                                    187(r),243(r),189(r)
    87. BD (   1) O  64 - H  66          0.99751    -0.99212  155(r),161(r),1239(v),163(r)
                                                    1437(r),162(r),1379(r)
                                                    243(r),165(r),242(r),1376(r)
                                                    1377(r),154(r),213(r)
   146. CR (   1) O  64                  0.99990   -19.09290  155(r),1243(v),1239(v)
                                                    1437(r),163(r)
   157. LP (   1) O  64                  0.98807    -0.45470  154(r),1242(v),1434(r)
                                                    1237(v),1436(r),166(r)
                                                    1378(r),162(r)
   158. LP (   2) O  64                  0.91185    -0.63107  155(r),1437(r),1243(v)
                                                    1238(v),1518(g),1519(g)
                                                    168(r),163(r),214(r),1379(r)
                                                    266(r),242(r),187(r),165(r)
                                                    268(r),241(r),216(r),154(r)
                                                    267(r),189(r),215(r),1435(r)
                                                    190(r),171(r)
  1211. RY*(   1) O  64                  0.00074     1.10243   
  1212. RY*(   2) O  64                  0.00021     0.68815   
  1213. RY*(   3) O  64                  0.00018     0.99580   
  1214. RY*(   4) O  64                  0.00008     1.00966   
  1215. RY*(   5) O  64                  0.00002     2.06350   
  1216. RY*(   6) O  64                  0.00002     2.13931   
  1217. RY*(   7) O  64                  0.00000     3.23979   
  1218. RY*(   8) O  64                  0.00001     5.19180   
  1219. RY*(   9) O  64                  0.00001     3.05619   
  1220. RY*(  10) O  64                  0.00001     2.43743   
  1221. RY*(  11) O  64                  0.00000     6.23819   
  1222. RY*(  12) O  64                  0.00000     2.67849   
  1223. RY*(  13) O  64                  0.00000     6.29961   
  1224. RY*(  14) O  64                  0.00000    42.09086   
  1225. RY*(  15) O  64                  0.00000     6.41540   
  1226. RY*(  16) O  64                  0.00000     2.25933   
  1227. RY*(  17) O  64                  0.00000     6.17254   
  1228. RY*(  18) O  64                  0.00001     2.39753   
  1229. RY*(  19) O  64                  0.00000     6.43369   
  1230. RY*(  20) O  64                  0.00000     5.25714   
  1231. RY*(  21) O  64                  0.00000     5.15947   
  1232. RY*(  22) O  64                  0.00000     5.56884   
  1233. RY*(  23) O  64                  0.00000     5.31235   
  1234. RY*(  24) O  64                  0.00000     5.37447   
  1235. RY*(  25) O  64                  0.00000     5.51609   
  1236. RY*(  26) O  64                  0.00000     5.23213   
  1237. RY*(   1) H  65                  0.00039     1.88980   
  1238. RY*(   2) H  65                  0.00038     1.21502   
  1239. RY*(   3) H  65                  0.00032     1.78324   
  1240. RY*(   4) H  65                  0.00008     1.85160   
  1241. RY*(   5) H  65                  0.00000     2.75812   
  1242. RY*(   1) H  66                  0.00044     1.90466   
  1243. RY*(   2) H  66                  0.00035     1.99108   
  1244. RY*(   3) H  66                  0.00019     1.88854   
  1245. RY*(   4) H  66                  0.00007     1.19114   
  1246. RY*(   5) H  66                  0.00000     2.91499   
  1518. BD*(   1) O  64 - H  65          0.00128     0.31684   
  1519. BD*(   1) O  64 - H  66          0.00087     0.49500   
       -------------------------------
              Total Lewis    4.89411  ( 99.8846%)
        Valence non-Lewis    0.00214  (  0.0438%)
        Rydberg non-Lewis    0.00351  (  0.0716%)
       -------------------------------
            Total unit  2    4.89977  (100.0000%)
           Charge unit  2    0.10023
 Unable to Open any file for archive entry.
 1\1\GINC-BGN1034\SP\UAPFD\def2TZVP\C34H36Fe1N6O1(1+,2)\BEBJONES\27-Oct
 -2024\0\\# apfd/def2TZVP guess=read scf=maxcycle=999 geom=check pop=nb
 o\\1co9_III_D\\1,2\Fe,0,35.2617239628,4.0217792159,10.2108455857\N,0,3
 7.1676456805,3.7690236227,9.6998637579\N,0,35.0169581715,5.3273821765,
 8.705980578\N,0,33.3462865535,4.3519448183,10.7771629548\N,0,35.501904
 212,2.8001212012,11.7740327134\C,0,38.0669264981,2.9436434561,10.29514
 26365\C,0,39.3066654675,2.915434877,9.5502085294\C,0,39.1448028806,3.7
 728352741,8.5069943825\C,0,37.8033585959,4.3022308465,8.6225756327\C,0
 ,35.9475243407,5.667876582,7.7723525503\C,0,35.396752564,6.5848598211,
 6.8068638106\C,0,34.0897113076,6.7802241277,7.1656804316\C,0,33.880825
 9105,5.9860588184,8.3614621132\C,0,32.4754855588,5.2464275575,10.23073
 99922\C,0,31.2836287274,5.3621779845,11.0279696574\C,0,31.4766447468,4
 .5621340549,12.1241801667\C,0,32.772879248,3.940060145,11.9393162106\C
 ,0,34.5881070845,2.494852132,12.7314530419\C,0,35.1567768158,1.6023036
 057,13.7188727318\C,0,36.4468643296,1.3951528806,13.3449128266\C,0,36.
 6387504749,2.1400531943,12.1188067653\C,0,37.8403077281,2.2023811216,1
 1.4404752361\H,0,38.6603983304,1.6138644896,11.8228636084\C,0,37.25095
 15663,5.2010322775,7.7312947636\H,0,37.8840906938,5.5601721233,6.93395
 51953\C,0,32.6936314265,5.9610249483,9.0653911615\H,0,31.892197194,6.5
 92084476,8.7127390416\C,0,33.3087742577,3.0095351631,12.811993639\H,0,
 32.7132949479,2.7215250462,13.6647632095\C,0,40.1030079684,4.136402422
 6,7.4243117098\H,0,41.0477770797,3.6138182346,7.5524234546\H,0,40.3008
 33889,5.2084691398,7.4322770891\H,0,39.6973853906,3.8758191072,6.44602
 76762\C,0,40.4922659057,2.0917316284,9.920669455\H,0,40.2296761643,1.0
 340759297,9.950162354\H,0,40.8626999368,2.3748733,10.906261524\H,0,41.
 2971257199,2.225291409,9.2018697657\C,0,36.1177882214,7.1186135276,5.6
 17981496\H,0,36.773769019,6.3620814547,5.1895139883\H,0,36.7303243921,
 7.9799742197,5.8893646306\H,0,35.4041857828,7.4310944787,4.858182244\C
 ,0,33.0743471615,7.5851628989,6.52335827\H,0,32.0638899816,7.196913581
 1,6.5830464665\C,0,33.2853874995,8.7348107754,5.8904545482\H,0,34.2582
 096348,9.1919973271,5.8419178733\H,0,32.4804737134,9.2754508194,5.4204
 62255\C,0,30.0899463458,6.178550228,10.6741447765\H,0,29.8910668669,6.
 1240670114,9.6048383901\H,0,30.2404336026,7.2275338685,10.9353864186\H
 ,0,29.216268333,5.8129117549,11.2098874978\C,0,30.5968970584,4.3245747
 936,13.2469841924\H,0,30.6377899251,3.3293801398,13.6745324311\C,0,29.
 773565407,5.2189938579,13.7845665353\H,0,29.7240020491,6.2358540605,13
 .4362123228\H,0,29.134986115,4.9685494109,14.6154721771\C,0,34.4190574
 978,1.0781796497,14.9031365927\H,0,33.5254973049,0.5377536937,14.59012
 19242\H,0,34.1084773485,1.8955266466,15.5549254953\H,0,35.0443963685,0
 .4007670085,15.4795335752\C,0,37.5022574667,0.5758584354,14.005329898\
 H,0,37.8587797503,-0.2050023731,13.3331416135\H,0,37.1186753007,0.1036
 795194,14.9065117646\H,0,38.3535889232,1.1987536742,14.2808942838\O,0,
 35.769,5.771,11.569\H,0,34.936,6.16,11.836\H,0,36.578,6.027,11.835\C,0
 ,32.7780990023,-0.4880608317,8.1019126823\H,0,32.1028850739,-0.3498665
 804,7.2574027219\H,0,32.1867114881,-0.6600096937,8.9958800189\H,0,33.3
 867936761,-1.3720483164,7.9104653441\N,0,34.4718883393,1.1811444239,7.
 3182330122\H,0,34.5891040758,0.7821588583,6.4014157627\C,0,33.63350343
 69,0.7102396207,8.2947297036\C,0,35.1005544047,2.2733932673,7.80960071
 55\H,0,35.8169145608,2.8505448997,7.2618447814\N,0,34.7117914248,2.521
 3273537,9.0369011301\C,0,33.7997759462,1.5570844427,9.3526565589\H,0,3
 3.3282040663,1.5407166457,10.3131055353\\Version=ES64L-G16RevC.02\Stat
 e=2-A\HF=-2983.8345273\S2=0.80757\S2-1=0.\S2A=0.751017\RMSD=9.148e-10\
 Dipole=0.1859194,-1.1491594,-0.9079886\Quadrupole=-1.7766726,-2.180054
 5,3.9567271,-3.7371556,-4.5500081,-2.3327156\PG=C01 [X(C34H36Fe1N6O1)]
 \\@
 The archive entry for this job was punched.


 I WANT TO KNOW HOW GOD CREATED THE WORLD.  I AM NOT INTERESTED IN
 THIS OR THAT PHENOMENON, IN THE SPECTRUM OF THIS OR THAT ELEMENT.
 I WANT TO KNOW HIS THOUGHTS, THE REST ARE DETAILS.
     -- ALBERT EINSTEIN
 Job cpu time:       1 days 15 hours 45 minutes 37.1 seconds.
 Elapsed time:       0 days  0 hours 37 minutes  3.5 seconds.
 File lengths (MBytes):  RWF=   2166 Int=      0 D2E=      0 Chk=    197 Scr=      1
 Normal termination of Gaussian 16 at Sun Oct 27 04:29:23 2024.
