 Entering Gaussian System, Link 0=g16
 Input=1co912re.com
 Output=1co912re.log
 Initial command:
 /sw/chem/gaussian/g16_C02/a100/g16/l1.exe "/local/bebjones_8061385/Gau-993926.inp" -scrdir="/local/bebjones_8061385/"
 Entering Link 1 = /sw/chem/gaussian/g16_C02/a100/g16/l1.exe PID=    993927.
  
 Copyright (c) 1988-2021, Gaussian, Inc.  All Rights Reserved.
  
 This is part of the Gaussian(R) 16 program.  It is based on
 the Gaussian(R) 09 system (copyright 2009, Gaussian, Inc.),
 the Gaussian(R) 03 system (copyright 2003, Gaussian, Inc.),
 the Gaussian(R) 98 system (copyright 1998, Gaussian, Inc.),
 the Gaussian(R) 94 system (copyright 1995, Gaussian, Inc.),
 the Gaussian 92(TM) system (copyright 1992, Gaussian, Inc.),
 the Gaussian 90(TM) system (copyright 1990, Gaussian, Inc.),
 the Gaussian 88(TM) system (copyright 1988, Gaussian, Inc.),
 the Gaussian 86(TM) system (copyright 1986, Carnegie Mellon
 University), and the Gaussian 82(TM) system (copyright 1983,
 Carnegie Mellon University). Gaussian is a federally registered
 trademark of Gaussian, Inc.
  
 This software contains proprietary and confidential information,
 including trade secrets, belonging to Gaussian, Inc.
  
 This software is provided under written license and may be
 used, copied, transmitted, or stored only in accord with that
 written license.
  
 The following legend is applicable only to US Government
 contracts under FAR:
  
                    RESTRICTED RIGHTS LEGEND
  
 Use, reproduction and disclosure by the US Government is
 subject to restrictions as set forth in subparagraphs (a)
 and (c) of the Commercial Computer Software - Restricted
 Rights clause in FAR 52.227-19.
  
 Gaussian, Inc.
 340 Quinnipiac St., Bldg. 40, Wallingford CT 06492
  
  
 ---------------------------------------------------------------
 Warning -- This program may not be used in any manner that
 competes with the business of Gaussian, Inc. or will provide
 assistance to any competitor of Gaussian, Inc.  The licensee
 of this program is prohibited from giving any competitor of
 Gaussian, Inc. access to this program.  By using this program,
 the user acknowledges that Gaussian, Inc. is engaged in the
 business of creating and licensing software in the field of
 computational chemistry and represents and warrants to the
 licensee that it is not a competitor of Gaussian, Inc. and that
 it will not use this program in any manner prohibited above.
 ---------------------------------------------------------------
  

 Cite this work as:
 Gaussian 16, Revision C.02,
 M. J. Frisch, G. W. Trucks, H. B. Schlegel, G. E. Scuseria, 
 M. A. Robb, J. R. Cheeseman, G. Scalmani, V. Barone, 
 G. A. Petersson, H. Nakatsuji, X. Li, M. Caricato, A. V. Marenich, 
 J. Bloino, B. G. Janesko, R. Gomperts, B. Mennucci, H. P. Hratchian, 
 J. V. Ortiz, A. F. Izmaylov, J. L. Sonnenberg, D. Williams-Young, 
 F. Ding, F. Lipparini, F. Egidi, J. Goings, B. Peng, A. Petrone, 
 T. Henderson, D. Ranasinghe, V. G. Zakrzewski, J. Gao, N. Rega, 
 G. Zheng, W. Liang, M. Hada, M. Ehara, K. Toyota, R. Fukuda, 
 J. Hasegawa, M. Ishida, T. Nakajima, Y. Honda, O. Kitao, H. Nakai, 
 T. Vreven, K. Throssell, J. A. Montgomery, Jr., J. E. Peralta, 
 F. Ogliaro, M. J. Bearpark, J. J. Heyd, E. N. Brothers, K. N. Kudin, 
 V. N. Staroverov, T. A. Keith, R. Kobayashi, J. Normand, 
 K. Raghavachari, A. P. Rendell, J. C. Burant, S. S. Iyengar, 
 J. Tomasi, M. Cossi, J. M. Millam, M. Klene, C. Adamo, R. Cammi, 
 J. W. Ochterski, R. L. Martin, K. Morokuma, O. Farkas, 
 J. B. Foresman, and D. J. Fox, Gaussian, Inc., Wallingford CT, 2019.
 
 ******************************************
 Gaussian 16:  ES64L-G16RevC.02  7-Dec-2021
                26-Oct-2024 
 ******************************************
 %mem=16GB
 %CPU=0-71
 SetSPE:  set environment variable "OMP_PROC_BIND" = "true"
 SetSPE:  set environment variable "OMP_PLACES" = "{0},{1},{2},{3},{4},{5},{6},{7},{8},{9},{10},{11},{12},{13},{14},{15},{16},{17},{18},{19},{20},{21},{22},{23},{24},{25},{26},{27},{28},{29},{30},{31},{32},{33},{34},{35},{36},{37},{38},{39},{40},{41},{42},{43},{44},{45},{46},{47},{48},{49},{50},{51},{52},{53},{54},{55},{56},{57},{58},{59},{60},{61},{62},{63},{64},{65},{66},{67},{68},{69},{70},{71}"
 Will use up to   72 processors via shared memory.
 %gpucpu=0,1,2,3=0,1,2,3
 Will use    4 GPUs:
 Thread  CPU   GPU
      0    0     0
      1    1     1
      2    2     2
      3    3     3
      4    4    -1
      5    5    -1
      6    6    -1
      7    7    -1
      8    8    -1
      9    9    -1
     10   10    -1
     11   11    -1
     12   12    -1
     13   13    -1
     14   14    -1
     15   15    -1
     16   16    -1
     17   17    -1
     18   18    -1
     19   19    -1
     20   20    -1
     21   21    -1
     22   22    -1
     23   23    -1
     24   24    -1
     25   25    -1
     26   26    -1
     27   27    -1
     28   28    -1
     29   29    -1
     30   30    -1
     31   31    -1
     32   32    -1
     33   33    -1
     34   34    -1
     35   35    -1
     36   36    -1
     37   37    -1
     38   38    -1
     39   39    -1
     40   40    -1
     41   41    -1
     42   42    -1
     43   43    -1
     44   44    -1
     45   45    -1
     46   46    -1
     47   47    -1
     48   48    -1
     49   49    -1
     50   50    -1
     51   51    -1
     52   52    -1
     53   53    -1
     54   54    -1
     55   55    -1
     56   56    -1
     57   57    -1
     58   58    -1
     59   59    -1
     60   60    -1
     61   61    -1
     62   62    -1
     63   63    -1
     64   64    -1
     65   65    -1
     66   66    -1
     67   67    -1
     68   68    -1
     69   69    -1
     70   70    -1
     71   71    -1
 SetGPE:  set environment variable "OMP_PROC_BIND" = "true"
 SetGPE:  set environment variable "OMP_PLACES" = "{0},{1},{2},{3},{4},{5},{6},{7},{8},{9},{10},{11},{12},{13},{14},{15},{16},{17},{18},{19},{20},{21},{22},{23},{24},{25},{26},{27},{28},{29},{30},{31},{32},{33},{34},{35},{36},{37},{38},{39},{40},{41},{42},{43},{44},{45},{46},{47},{48},{49},{50},{51},{52},{53},{54},{55},{56},{57},{58},{59},{60},{61},{62},{63},{64},{65},{66},{67},{68},{69},{70},{71}"
 %oldchk=1co9_II_S.chk
 %chk=1co9_II_Sre.chk
 Properties for Device   0
 Minimum vector length:                              32
 Maximum vector length:                            1024
 Number of SMPs:                                    108
 Maximum number of threads per SMP:                2048
 Number of ASync Engines:                             5
 Memory:                                           9207742464
 Properties for Device   1
 Minimum vector length:                              32
 Maximum vector length:                            1024
 Number of SMPs:                                    108
 Maximum number of threads per SMP:                2048
 Number of ASync Engines:                             5
 Memory:                                           9207742464
 Properties for Device   2
 Minimum vector length:                              32
 Maximum vector length:                            1024
 Number of SMPs:                                    108
 Maximum number of threads per SMP:                2048
 Number of ASync Engines:                             5
 Memory:                                           9207742464
 Properties for Device   3
 Minimum vector length:                              32
 Maximum vector length:                            1024
 Number of SMPs:                                    108
 Maximum number of threads per SMP:                2048
 Number of ASync Engines:                             5
 Memory:                                           9207742464
   8286968217 words of memory will be used on each GPU.
 Copying data from "1co9_II_S.chk" to current chk file "1co9_II_Sre.chk"
 IOpt=  2 FromEx=T IUOpen= 4 IOptOp= 5 NList=   0 IFRang= 0 IUIn= 4 IUOut= 2.
 --------------------------------------
 # apfd/gen scf=maxcycle=999 geom=check
 --------------------------------------
 1/29=2,38=1,172=1/1;
 2/12=2,40=1/2;
 3/5=7,11=2,14=-4,25=1,30=1,74=-44/1,2,3;
 4//1;
 5/5=2,7=999,38=5/2;
 6/7=2,8=2,9=2,10=2,28=1/1;
 99/5=1,9=1/99;
 ----------
 1co9_III_D
 ----------
 Structure from the checkpoint file:  "1co9_II_Sre.chk"
 Charge =  1 Multiplicity = 2
 Z-Matrix found in chk file.
 Fe,0,35.2617239628,4.0217792159,10.2108455857
 N,0,37.1676456805,3.7690236227,9.6998637579
 N,0,35.0169581715,5.3273821765,8.705980578
 N,0,33.3462865535,4.3519448183,10.7771629548
 N,0,35.501904212,2.8001212012,11.7740327134
 C,0,38.0669264981,2.9436434561,10.2951426365
 C,0,39.3066654675,2.915434877,9.5502085294
 C,0,39.1448028806,3.7728352741,8.5069943825
 C,0,37.8033585959,4.3022308465,8.6225756327
 C,0,35.9475243407,5.667876582,7.7723525503
 C,0,35.396752564,6.5848598211,6.8068638106
 C,0,34.0897113076,6.7802241277,7.1656804316
 C,0,33.8808259105,5.9860588184,8.3614621132
 C,0,32.4754855588,5.2464275575,10.2307399922
 C,0,31.2836287274,5.3621779845,11.0279696574
 C,0,31.4766447468,4.5621340549,12.1241801667
 C,0,32.772879248,3.940060145,11.9393162106
 C,0,34.5881070845,2.494852132,12.7314530419
 C,0,35.1567768158,1.6023036057,13.7188727318
 C,0,36.4468643296,1.3951528806,13.3449128266
 C,0,36.6387504749,2.1400531943,12.1188067653
 C,0,37.8403077281,2.2023811216,11.4404752361
 H,0,38.6603983304,1.6138644896,11.8228636084
 C,0,37.2509515663,5.2010322775,7.7312947636
 H,0,37.8840906938,5.5601721233,6.9339551953
 C,0,32.6936314265,5.9610249483,9.0653911615
 H,0,31.892197194,6.592084476,8.7127390416
 C,0,33.3087742577,3.0095351631,12.811993639
 H,0,32.7132949479,2.7215250462,13.6647632095
 C,0,40.1030079684,4.1364024226,7.4243117098
 H,0,41.0477770797,3.6138182346,7.5524234546
 H,0,40.300833889,5.2084691398,7.4322770891
 H,0,39.6973853906,3.8758191072,6.4460276762
 C,0,40.4922659057,2.0917316284,9.920669455
 H,0,40.2296761643,1.0340759297,9.950162354
 H,0,40.8626999368,2.3748733,10.906261524
 H,0,41.2971257199,2.225291409,9.2018697657
 C,0,36.1177882214,7.1186135276,5.617981496
 H,0,36.773769019,6.3620814547,5.1895139883
 H,0,36.7303243921,7.9799742197,5.8893646306
 H,0,35.4041857828,7.4310944787,4.858182244
 C,0,33.0743471615,7.5851628989,6.52335827
 H,0,32.0638899816,7.1969135811,6.5830464665
 C,0,33.2853874995,8.7348107754,5.8904545482
 H,0,34.2582096348,9.1919973271,5.8419178733
 H,0,32.4804737134,9.2754508194,5.420462255
 C,0,30.0899463458,6.178550228,10.6741447765
 H,0,29.8910668669,6.1240670114,9.6048383901
 H,0,30.2404336026,7.2275338685,10.9353864186
 H,0,29.216268333,5.8129117549,11.2098874978
 C,0,30.5968970584,4.3245747936,13.2469841924
 H,0,30.6377899251,3.3293801398,13.6745324311
 C,0,29.773565407,5.2189938579,13.7845665353
 H,0,29.7240020491,6.2358540605,13.4362123228
 H,0,29.134986115,4.9685494109,14.6154721771
 C,0,34.4190574978,1.0781796497,14.9031365927
 H,0,33.5254973049,0.5377536937,14.5901219242
 H,0,34.1084773485,1.8955266466,15.5549254953
 H,0,35.0443963685,0.4007670085,15.4795335752
 C,0,37.5022574667,0.5758584354,14.005329898
 H,0,37.8587797503,-0.2050023731,13.3331416135
 H,0,37.1186753007,0.1036795194,14.9065117646
 H,0,38.3535889232,1.1987536742,14.2808942838
 O,0,35.769,5.771,11.569
 H,0,34.936,6.16,11.836
 H,0,36.578,6.027,11.835
 C,0,32.7780990023,-0.4880608317,8.1019126823
 H,0,32.1028850739,-0.3498665804,7.2574027219
 H,0,32.1867114881,-0.6600096937,8.9958800189
 H,0,33.3867936761,-1.3720483164,7.9104653441
 N,0,34.4718883393,1.1811444239,7.3182330122
 H,0,34.5891040758,0.7821588583,6.4014157627
 C,0,33.6335034369,0.7102396207,8.2947297036
 C,0,35.1005544047,2.2733932673,7.8096007155
 H,0,35.8169145608,2.8505448997,7.2618447814
 N,0,34.7117914248,2.5213273537,9.0369011301
 C,0,33.7997759462,1.5570844427,9.3526565589
 H,0,33.3282040663,1.5407166457,10.3131055353
 Recover connectivity data from disk.
 Stoichiometry    C34H36FeN6O(1+,2)
 Framework group  C1[X(C34H36FeN6O)]
 Deg. of freedom   228
 Full point group                 C1      NOp   1
 Largest Abelian subgroup         C1      NOp   1
 Largest concise Abelian subgroup C1      NOp   1
                         Standard orientation:                         
 ---------------------------------------------------------------------
 Center     Atomic      Atomic             Coordinates (Angstroms)
 Number     Number       Type             X           Y           Z
 ---------------------------------------------------------------------
      1         26           0       -0.027371   -0.188205   -0.324904
      2          7           0       -1.193682   -1.783708   -0.552092
      3          7           0       -1.637610    1.009939   -0.351580
      4          7           0        1.157512    1.447165   -0.182631
      5          7           0        1.599084   -1.347471   -0.391474
      6          6           0       -0.795710   -3.080906   -0.608772
      7          6           0       -1.939357   -3.966623   -0.624667
      8          6           0       -3.040518   -3.168574   -0.610791
      9          6           0       -2.553096   -1.806922   -0.573152
     10          6           0       -2.938377    0.613826   -0.419778
     11          6           0       -3.826023    1.746814   -0.350500
     12          6           0       -3.028033    2.851494   -0.215718
     13          6           0       -1.662716    2.361563   -0.225774
     14          6           0        0.759120    2.749933   -0.215069
     15          6           0        1.889226    3.634891   -0.311010
     16          6           0        2.996683    2.833011   -0.408639
     17          6           0        2.509944    1.470307   -0.322053
     18          6           0        2.897734   -0.950144   -0.368907
     19          6           0        3.785469   -2.088412   -0.475204
     20          6           0        2.987492   -3.182912   -0.586491
     21          6           0        1.624619   -2.700488   -0.516659
     22          6           0        0.516331   -3.517896   -0.622964
     23          1           0        0.686119   -4.580661   -0.705563
     24          6           0       -3.373224   -0.696495   -0.531665
     25          1           0       -4.438382   -0.865640   -0.580911
     26          6           0       -0.554822    3.182941   -0.166759
     27          1           0       -0.725647    4.248285   -0.139246
     28          6           0        3.334881    0.359405   -0.323519
     29          1           0        4.400003    0.526523   -0.371976
     30          6           0       -4.482569   -3.546593   -0.622200
     31          1           0       -4.598903   -4.627061   -0.656125
     32          1           0       -4.983062   -3.120795   -1.492102
     33          1           0       -4.986106   -3.175793    0.271350
     34          6           0       -1.851160   -5.453988   -0.661323
     35          1           0       -1.297142   -5.826142    0.200666
     36          1           0       -1.334780   -5.785111   -1.562706
     37          1           0       -2.842064   -5.901559   -0.651340
     38          6           0       -5.313644    1.675317   -0.340486
     39          1           0       -5.657031    0.806034    0.218681
     40          1           0       -5.705834    1.598252   -1.355887
     41          1           0       -5.727033    2.570582    0.119706
     42          6           0       -3.403863    4.240853   -0.074645
     43          1           0       -2.751669    4.839680    0.550953
     44          6           0       -4.456060    4.818620   -0.645489
     45          1           0       -5.109319    4.286199   -1.314472
     46          1           0       -4.684437    5.859168   -0.483702
     47          6           0        1.820892    5.121697   -0.275335
     48          1           0        1.071102    5.454273    0.441006
     49          1           0        1.554349    5.525903   -1.253513
     50          1           0        2.785924    5.532263    0.014795
     51          6           0        4.386694    3.208760   -0.541902
     52          1           0        5.100572    2.549045   -0.062280
     53          6           0        4.839034    4.269594   -1.202866
     54          1           0        4.184291    4.933417   -1.739955
     55          1           0        5.891222    4.496540   -1.250892
     56          6           0        5.273092   -1.997173   -0.483588
     57          1           0        5.632485   -1.507224    0.421550
     58          1           0        5.617646   -1.417742   -1.340843
     59          1           0        5.720877   -2.986459   -0.538096
     60          6           0        3.365545   -4.616151   -0.741898
     61          1           0        2.969764   -5.209155    0.082960
     62          1           0        4.446530   -4.731809   -0.759556
     63          1           0        2.962771   -5.019413   -1.671335
     64          8           0        0.155393    0.104060   -2.570536
     65          1           0        0.591599    0.946083   -2.701767
     66          1           0       -0.092963   -0.464309   -3.207756
     67          6           0        1.148446   -0.245036    5.112823
     68          1           0        0.717715    0.539177    5.735470
     69          1           0        2.199593   -0.025271    4.953834
     70          1           0        1.066629   -1.190194    5.650016
     71          7           0       -0.892043   -0.561676    3.696677
     72          1           0       -1.526379   -0.704272    4.465290
     73          6           0        0.452789   -0.320271    3.803159
     74          6           0       -1.204586   -0.566392    2.380636
     75          1           0       -2.191322   -0.730458    1.998867
     76          7           0       -0.139905   -0.343712    1.648692
     77          6           0        0.898892   -0.189237    2.519483
     78          1           0        1.889136    0.005857    2.163864
 ---------------------------------------------------------------------
 Rotational constants (GHZ):           0.0925968           0.0913628           0.0593455
 General basis read from cards:  (5D, 7F)
 There are   723 symmetry adapted cartesian basis functions of A   symmetry.
 There are   679 symmetry adapted basis functions of A   symmetry.
   679 basis functions,  1378 primitive gaussians,   723 cartesian basis functions
   158 alpha electrons      157 beta electrons
       nuclear repulsion energy      5965.6147878911 Hartrees.
 NAtoms=   78 NActive=   78 NUniq=   78 SFac= 1.00D+00 NAtFMM=   60 NAOKFM=T Big=T
 Integral buffers will be    131072 words long.
 Raffenetti 2 integral format.
 Two-electron integral symmetry is turned on.
 R6APFD:  NTU= -4 IXU= 1 FactS= 1.050
 Nuclear repulsion after empirical dispersion term =     5965.4619454152 Hartrees.
 One-electron integrals computed using PRISM.
 NBasis=   679 RedAO= T EigKep=  2.56D-04  NBF=   679
 NBsUse=   679 1.00D-06 EigRej= -1.00D+00 NBFU=   679
 ExpMin= 4.20D-02 ExpMax= 3.01D+05 ExpMxC= 2.91D+03 IAcc=3 IRadAn=         5 AccDes= 0.00D+00
 Harris functional with IExCor= 3731 and IRadAn=       5 diagonalized for initial guess.
 HarFok:  IExCor= 3731 AccDes= 0.00D+00 IRadAn=         5 IDoV= 1 UseB2=F ITyADJ=14
 ICtDFT=  3500011 ScaDFX=  1.000000  1.000000  1.000000  1.000000
 FoFCou: FMM=F IPFlag=           0 FMFlag=      100000 FMFlg1=        2001
         NFxFlg=           0 DoJE=T BraDBF=F KetDBF=T FulRan=T
         wScrn=  0.000000 ICntrl=       500 IOpCl=  0 I1Cent=   200000004 NGrid=           0
         NMat0=    1 NMatS0=      1 NMatT0=    0 NMatD0=    1 NMtDS0=    0 NMtDT0=    0
 Petite list used in FoFCou.
 Initial guess <Sx>= 0.0000 <Sy>= 0.0000 <Sz>= 0.5000 <S**2>= 0.7500 S= 0.5000
 Requested convergence on RMS density matrix=1.00D-08 within 999 cycles.
 Requested convergence on MAX density matrix=1.00D-06.
 Requested convergence on             energy=1.00D-06.
 No special actions if energy rises.
 EnCoef did   100 forward-backward iterations
 EnCoef did   100 forward-backward iterations
 EnCoef did   100 forward-backward iterations
 EnCoef did   100 forward-backward iterations
 EnCoef did     4 forward-backward iterations
 EnCoef did     2 forward-backward iterations
 EnCoef did     2 forward-backward iterations
 EnCoef did     4 forward-backward iterations
 Restarting incremental Fock formation.
 Rare condition: small coef for last iteration:  0.000D+00
 Rare condition: small coef for last iteration:  0.000D+00
 Rare condition: small coef for last iteration:  0.000D+00
 Restarting incremental Fock formation.
 Restarting incremental Fock formation.
 Restarting incremental Fock formation.
 SCF Done:  E(UAPFD) =  -2983.20899726     A.U. after   99 cycles
            NFock= 99  Conv=0.54D-08     -V/T= 2.0038
 <Sx>= 0.0000 <Sy>= 0.0000 <Sz>= 0.5000 <S**2>= 0.8076 S= 0.5284
 <L.S>=  0.00000000000    
 Annihilation of the first spin contaminant:
 S**2 before annihilation     0.8076,   after     0.7510

 **********************************************************************

            Population analysis using the SCF Density.

 **********************************************************************

 Orbital symmetries:
 Alpha Orbitals:
       Occupied  (A) (A) (A) (A) (A) (A) (A) (A) (A) (A) (A) (A)
                 (A) (A) (A) (A) (A) (A) (A) (A) (A) (A) (A) (A)
                 (A) (A) (A) (A) (A) (A) (A) (A) (A) (A) (A) (A)
                 (A) (A) (A) (A) (A) (A) (A) (A) (A) (A) (A) (A)
                 (A) (A) (A) (A) (A) (A) (A) (A) (A) (A) (A) (A)
                 (A) (A) (A) (A) (A) (A) (A) (A) (A) (A) (A) (A)
                 (A) (A) (A) (A) (A) (A) (A) (A) (A) (A) (A) (A)
                 (A) (A) (A) (A) (A) (A) (A) (A) (A) (A) (A) (A)
                 (A) (A) (A) (A) (A) (A) (A) (A) (A) (A) (A) (A)
                 (A) (A) (A) (A) (A) (A) (A) (A) (A) (A) (A) (A)
                 (A) (A) (A) (A) (A) (A) (A) (A) (A) (A) (A) (A)
                 (A) (A) (A) (A) (A) (A) (A) (A) (A) (A) (A) (A)
                 (A) (A) (A) (A) (A) (A) (A) (A) (A) (A) (A) (A)
                 (A) (A)
       Virtual   (A) (A) (A) (A) (A) (A) (A) (A) (A) (A) (A) (A)
                 (A) (A) (A) (A) (A) (A) (A) (A) (A) (A) (A) (A)
                 (A) (A) (A) (A) (A) (A) (A) (A) (A) (A) (A) (A)
                 (A) (A) (A) (A) (A) (A) (A) (A) (A) (A) (A) (A)
                 (A) (A) (A) (A) (A) (A) (A) (A) (A) (A) (A) (A)
                 (A) (A) (A) (A) (A) (A) (A) (A) (A) (A) (A) (A)
                 (A) (A) (A) (A) (A) (A) (A) (A) (A) (A) (A) (A)
                 (A) (A) (A) (A) (A) (A) (A) (A) (A) (A) (A) (A)
                 (A) (A) (A) (A) (A) (A) (A) (A) (A) (A) (A) (A)
                 (A) (A) (A) (A) (A) (A) (A) (A) (A) (A) (A) (A)
                 (A) (A) (A) (A) (A) (A) (A) (A) (A) (A) (A) (A)
                 (A) (A) (A) (A) (A) (A) (A) (A) (A) (A) (A) (A)
                 (A) (A) (A) (A) (A) (A) (A) (A) (A) (A) (A) (A)
                 (A) (A) (A) (A) (A) (A) (A) (A) (A) (A) (A) (A)
                 (A) (A) (A) (A) (A) (A) (A) (A) (A) (A) (A) (A)
                 (A) (A) (A) (A) (A) (A) (A) (A) (A) (A) (A) (A)
                 (A) (A) (A) (A) (A) (A) (A) (A) (A) (A) (A) (A)
                 (A) (A) (A) (A) (A) (A) (A) (A) (A) (A) (A) (A)
                 (A) (A) (A) (A) (A) (A) (A) (A) (A) (A) (A) (A)
                 (A) (A) (A) (A) (A) (A) (A) (A) (A) (A) (A) (A)
                 (A) (A) (A) (A) (A) (A) (A) (A) (A) (A) (A) (A)
                 (A) (A) (A) (A) (A) (A) (A) (A) (A) (A) (A) (A)
                 (A) (A) (A) (A) (A) (A) (A) (A) (A) (A) (A) (A)
                 (A) (A) (A) (A) (A) (A) (A) (A) (A) (A) (A) (A)
                 (A) (A) (A) (A) (A) (A) (A) (A) (A) (A) (A) (A)
                 (A) (A) (A) (A) (A) (A) (A) (A) (A) (A) (A) (A)
                 (A) (A) (A) (A) (A) (A) (A) (A) (A) (A) (A) (A)
                 (A) (A) (A) (A) (A) (A) (A) (A) (A) (A) (A) (A)
                 (A) (A) (A) (A) (A) (A) (A) (A) (A) (A) (A) (A)
                 (A) (A) (A) (A) (A) (A) (A) (A) (A) (A) (A) (A)
                 (A) (A) (A) (A) (A) (A) (A) (A) (A) (A) (A) (A)
                 (A) (A) (A) (A) (A) (A) (A) (A) (A) (A) (A) (A)
                 (A) (A) (A) (A) (A) (A) (A) (A) (A) (A) (A) (A)
                 (A) (A) (A) (A) (A) (A) (A) (A) (A) (A) (A) (A)
                 (A) (A) (A) (A) (A) (A) (A) (A) (A) (A) (A) (A)
                 (A) (A) (A) (A) (A) (A) (A) (A) (A) (A) (A) (A)
                 (A) (A) (A) (A) (A) (A) (A) (A) (A) (A) (A) (A)
                 (A) (A) (A) (A) (A) (A) (A) (A) (A) (A) (A) (A)
                 (A) (A) (A) (A) (A) (A) (A) (A) (A) (A) (A) (A)
                 (A) (A) (A) (A) (A) (A) (A) (A) (A) (A) (A) (A)
                 (A) (A) (A) (A) (A) (A) (A) (A) (A) (A) (A) (A)
                 (A) (A) (A) (A) (A) (A) (A) (A) (A) (A) (A) (A)
                 (A) (A) (A) (A) (A) (A) (A) (A) (A) (A) (A) (A)
                 (A) (A) (A) (A) (A)
 Beta  Orbitals:
       Occupied  (A) (A) (A) (A) (A) (A) (A) (A) (A) (A) (A) (A)
                 (A) (A) (A) (A) (A) (A) (A) (A) (A) (A) (A) (A)
                 (A) (A) (A) (A) (A) (A) (A) (A) (A) (A) (A) (A)
                 (A) (A) (A) (A) (A) (A) (A) (A) (A) (A) (A) (A)
                 (A) (A) (A) (A) (A) (A) (A) (A) (A) (A) (A) (A)
                 (A) (A) (A) (A) (A) (A) (A) (A) (A) (A) (A) (A)
                 (A) (A) (A) (A) (A) (A) (A) (A) (A) (A) (A) (A)
                 (A) (A) (A) (A) (A) (A) (A) (A) (A) (A) (A) (A)
                 (A) (A) (A) (A) (A) (A) (A) (A) (A) (A) (A) (A)
                 (A) (A) (A) (A) (A) (A) (A) (A) (A) (A) (A) (A)
                 (A) (A) (A) (A) (A) (A) (A) (A) (A) (A) (A) (A)
                 (A) (A) (A) (A) (A) (A) (A) (A) (A) (A) (A) (A)
                 (A) (A) (A) (A) (A) (A) (A) (A) (A) (A) (A) (A)
                 (A)
       Virtual   (A) (A) (A) (A) (A) (A) (A) (A) (A) (A) (A) (A)
                 (A) (A) (A) (A) (A) (A) (A) (A) (A) (A) (A) (A)
                 (A) (A) (A) (A) (A) (A) (A) (A) (A) (A) (A) (A)
                 (A) (A) (A) (A) (A) (A) (A) (A) (A) (A) (A) (A)
                 (A) (A) (A) (A) (A) (A) (A) (A) (A) (A) (A) (A)
                 (A) (A) (A) (A) (A) (A) (A) (A) (A) (A) (A) (A)
                 (A) (A) (A) (A) (A) (A) (A) (A) (A) (A) (A) (A)
                 (A) (A) (A) (A) (A) (A) (A) (A) (A) (A) (A) (A)
                 (A) (A) (A) (A) (A) (A) (A) (A) (A) (A) (A) (A)
                 (A) (A) (A) (A) (A) (A) (A) (A) (A) (A) (A) (A)
                 (A) (A) (A) (A) (A) (A) (A) (A) (A) (A) (A) (A)
                 (A) (A) (A) (A) (A) (A) (A) (A) (A) (A) (A) (A)
                 (A) (A) (A) (A) (A) (A) (A) (A) (A) (A) (A) (A)
                 (A) (A) (A) (A) (A) (A) (A) (A) (A) (A) (A) (A)
                 (A) (A) (A) (A) (A) (A) (A) (A) (A) (A) (A) (A)
                 (A) (A) (A) (A) (A) (A) (A) (A) (A) (A) (A) (A)
                 (A) (A) (A) (A) (A) (A) (A) (A) (A) (A) (A) (A)
                 (A) (A) (A) (A) (A) (A) (A) (A) (A) (A) (A) (A)
                 (A) (A) (A) (A) (A) (A) (A) (A) (A) (A) (A) (A)
                 (A) (A) (A) (A) (A) (A) (A) (A) (A) (A) (A) (A)
                 (A) (A) (A) (A) (A) (A) (A) (A) (A) (A) (A) (A)
                 (A) (A) (A) (A) (A) (A) (A) (A) (A) (A) (A) (A)
                 (A) (A) (A) (A) (A) (A) (A) (A) (A) (A) (A) (A)
                 (A) (A) (A) (A) (A) (A) (A) (A) (A) (A) (A) (A)
                 (A) (A) (A) (A) (A) (A) (A) (A) (A) (A) (A) (A)
                 (A) (A) (A) (A) (A) (A) (A) (A) (A) (A) (A) (A)
                 (A) (A) (A) (A) (A) (A) (A) (A) (A) (A) (A) (A)
                 (A) (A) (A) (A) (A) (A) (A) (A) (A) (A) (A) (A)
                 (A) (A) (A) (A) (A) (A) (A) (A) (A) (A) (A) (A)
                 (A) (A) (A) (A) (A) (A) (A) (A) (A) (A) (A) (A)
                 (A) (A) (A) (A) (A) (A) (A) (A) (A) (A) (A) (A)
                 (A) (A) (A) (A) (A) (A) (A) (A) (A) (A) (A) (A)
                 (A) (A) (A) (A) (A) (A) (A) (A) (A) (A) (A) (A)
                 (A) (A) (A) (A) (A) (A) (A) (A) (A) (A) (A) (A)
                 (A) (A) (A) (A) (A) (A) (A) (A) (A) (A) (A) (A)
                 (A) (A) (A) (A) (A) (A) (A) (A) (A) (A) (A) (A)
                 (A) (A) (A) (A) (A) (A) (A) (A) (A) (A) (A) (A)
                 (A) (A) (A) (A) (A) (A) (A) (A) (A) (A) (A) (A)
                 (A) (A) (A) (A) (A) (A) (A) (A) (A) (A) (A) (A)
                 (A) (A) (A) (A) (A) (A) (A) (A) (A) (A) (A) (A)
                 (A) (A) (A) (A) (A) (A) (A) (A) (A) (A) (A) (A)
                 (A) (A) (A) (A) (A) (A) (A) (A) (A) (A) (A) (A)
                 (A) (A) (A) (A) (A) (A) (A) (A) (A) (A) (A) (A)
                 (A) (A) (A) (A) (A) (A)
 The electronic state is 2-A.
 Alpha  occ. eigenvalues -- -256.38138 -30.25062 -26.09764 -26.09528 -26.06745
 Alpha  occ. eigenvalues --  -19.30508 -14.54253 -14.51187 -14.47246 -14.47122
 Alpha  occ. eigenvalues --  -14.46863 -14.46706 -10.38392 -10.35485 -10.33196
 Alpha  occ. eigenvalues --  -10.33167 -10.33141 -10.33064 -10.32990 -10.32972
 Alpha  occ. eigenvalues --  -10.32897 -10.32873 -10.32829 -10.30580 -10.30318
 Alpha  occ. eigenvalues --  -10.30090 -10.30063 -10.29994 -10.29986 -10.29982
 Alpha  occ. eigenvalues --  -10.29962 -10.29944 -10.29804 -10.29755 -10.29674
 Alpha  occ. eigenvalues --  -10.29620 -10.29246 -10.29063 -10.28121 -10.28104
 Alpha  occ. eigenvalues --  -10.28066 -10.28021 -10.27969 -10.27956 -10.27701
 Alpha  occ. eigenvalues --  -10.27675  -3.63731  -2.42077  -2.41525  -2.35646
 Alpha  occ. eigenvalues --   -1.17108  -1.16651  -1.08618  -1.07760  -1.07460
 Alpha  occ. eigenvalues --   -1.06638  -1.02925  -0.93145  -0.91925  -0.91527
 Alpha  occ. eigenvalues --   -0.91058  -0.90824  -0.90633  -0.90391  -0.90286
 Alpha  occ. eigenvalues --   -0.86430  -0.85181  -0.84881  -0.83991  -0.82651
 Alpha  occ. eigenvalues --   -0.82312  -0.80906  -0.79921  -0.78263  -0.78065
 Alpha  occ. eigenvalues --   -0.77800  -0.76123  -0.74789  -0.74742  -0.72481
 Alpha  occ. eigenvalues --   -0.72306  -0.70378  -0.69713  -0.68363  -0.67856
 Alpha  occ. eigenvalues --   -0.67017  -0.64764  -0.64046  -0.63283  -0.62944
 Alpha  occ. eigenvalues --   -0.61511  -0.61393  -0.61041  -0.59126  -0.58863
 Alpha  occ. eigenvalues --   -0.58265  -0.57885  -0.57674  -0.55672  -0.55040
 Alpha  occ. eigenvalues --   -0.54653  -0.54407  -0.54001  -0.53806  -0.53682
 Alpha  occ. eigenvalues --   -0.53582  -0.53091  -0.52978  -0.52720  -0.52473
 Alpha  occ. eigenvalues --   -0.52212  -0.52171  -0.51853  -0.51664  -0.51344
 Alpha  occ. eigenvalues --   -0.50417  -0.50407  -0.50238  -0.50000  -0.49860
 Alpha  occ. eigenvalues --   -0.49770  -0.49524  -0.49397  -0.49009  -0.48767
 Alpha  occ. eigenvalues --   -0.48268  -0.47935  -0.47798  -0.47679  -0.47449
 Alpha  occ. eigenvalues --   -0.47186  -0.46893  -0.46453  -0.46120  -0.45889
 Alpha  occ. eigenvalues --   -0.45398  -0.44541  -0.44403  -0.43914  -0.43331
 Alpha  occ. eigenvalues --   -0.42989  -0.42492  -0.42111  -0.41139  -0.40949
 Alpha  occ. eigenvalues --   -0.39999  -0.39400  -0.38842  -0.38688  -0.36920
 Alpha  occ. eigenvalues --   -0.36688  -0.34667  -0.33330  -0.32747  -0.31924
 Alpha  occ. eigenvalues --   -0.31460  -0.29127  -0.28282
 Alpha virt. eigenvalues --   -0.18986  -0.16956  -0.16915  -0.14226  -0.11237
 Alpha virt. eigenvalues --   -0.09004  -0.07677  -0.06429  -0.04936  -0.04101
 Alpha virt. eigenvalues --   -0.03440  -0.01679  -0.01352  -0.00574   0.01050
 Alpha virt. eigenvalues --    0.01342   0.02018   0.02821   0.03287   0.03549
 Alpha virt. eigenvalues --    0.04084   0.04477   0.04631   0.04961   0.05126
 Alpha virt. eigenvalues --    0.05359   0.05805   0.05937   0.06386   0.06647
 Alpha virt. eigenvalues --    0.06765   0.07290   0.07698   0.08064   0.08218
 Alpha virt. eigenvalues --    0.08335   0.08714   0.08774   0.09256   0.09434
 Alpha virt. eigenvalues --    0.09455   0.09718   0.10064   0.10294   0.10463
 Alpha virt. eigenvalues --    0.10758   0.11356   0.11997   0.12064   0.12500
 Alpha virt. eigenvalues --    0.12692   0.12901   0.13153   0.13476   0.13865
 Alpha virt. eigenvalues --    0.14374   0.15239   0.15385   0.16006   0.16344
 Alpha virt. eigenvalues --    0.16634   0.16966   0.17257   0.17346   0.18235
 Alpha virt. eigenvalues --    0.18286   0.19764   0.20062   0.20642   0.21257
 Alpha virt. eigenvalues --    0.21670   0.22267   0.23517   0.23670   0.23861
 Alpha virt. eigenvalues --    0.25283   0.25981   0.26238   0.26506   0.27283
 Alpha virt. eigenvalues --    0.27491   0.28911   0.29482   0.30700   0.31153
 Alpha virt. eigenvalues --    0.31977   0.32862   0.33526   0.34168   0.34393
 Alpha virt. eigenvalues --    0.35046   0.36383   0.37964   0.38473   0.38609
 Alpha virt. eigenvalues --    0.39027   0.39579   0.40007   0.40466   0.40919
 Alpha virt. eigenvalues --    0.41180   0.41556   0.42185   0.42370   0.43000
 Alpha virt. eigenvalues --    0.43140   0.43545   0.43736   0.44167   0.44278
 Alpha virt. eigenvalues --    0.45049   0.45295   0.45507   0.46340   0.46484
 Alpha virt. eigenvalues --    0.46865   0.47377   0.47708   0.48172   0.48696
 Alpha virt. eigenvalues --    0.48976   0.49574   0.50143   0.50510   0.50710
 Alpha virt. eigenvalues --    0.51014   0.51343   0.51943   0.52599   0.52963
 Alpha virt. eigenvalues --    0.53160   0.53954   0.54329   0.54653   0.55052
 Alpha virt. eigenvalues --    0.55398   0.55653   0.55946   0.56252   0.56517
 Alpha virt. eigenvalues --    0.57103   0.57128   0.57643   0.57850   0.57962
 Alpha virt. eigenvalues --    0.58269   0.58828   0.59977   0.60185   0.60613
 Alpha virt. eigenvalues --    0.61264   0.61679   0.62102   0.62840   0.63234
 Alpha virt. eigenvalues --    0.63404   0.63666   0.64475   0.65247   0.65406
 Alpha virt. eigenvalues --    0.66328   0.66751   0.66963   0.67384   0.67880
 Alpha virt. eigenvalues --    0.68308   0.68450   0.68611   0.68935   0.69255
 Alpha virt. eigenvalues --    0.69661   0.70000   0.70124   0.70780   0.70844
 Alpha virt. eigenvalues --    0.71657   0.72202   0.72824   0.73710   0.73821
 Alpha virt. eigenvalues --    0.74464   0.74832   0.76305   0.76533   0.76817
 Alpha virt. eigenvalues --    0.77296   0.77767   0.78284   0.78506   0.78589
 Alpha virt. eigenvalues --    0.79167   0.79284   0.79597   0.80214   0.80779
 Alpha virt. eigenvalues --    0.81423   0.81595   0.81877   0.82050   0.82865
 Alpha virt. eigenvalues --    0.83159   0.83358   0.83590   0.83755   0.84428
 Alpha virt. eigenvalues --    0.84438   0.84928   0.85254   0.85709   0.86036
 Alpha virt. eigenvalues --    0.86625   0.87060   0.87216   0.87847   0.88063
 Alpha virt. eigenvalues --    0.88448   0.88952   0.89321   0.89953   0.90166
 Alpha virt. eigenvalues --    0.90669   0.90917   0.91392   0.91560   0.92040
 Alpha virt. eigenvalues --    0.92304   0.92366   0.93188   0.93782   0.94225
 Alpha virt. eigenvalues --    0.94777   0.94976   0.95125   0.96369   0.97222
 Alpha virt. eigenvalues --    0.97553   0.98101   0.98729   0.99330   0.99539
 Alpha virt. eigenvalues --    1.00709   1.01596   1.02746   1.03513   1.04392
 Alpha virt. eigenvalues --    1.04903   1.05703   1.06021   1.07339   1.07522
 Alpha virt. eigenvalues --    1.07810   1.08340   1.09181   1.09544   1.10420
 Alpha virt. eigenvalues --    1.10484   1.10702   1.11037   1.11730   1.11834
 Alpha virt. eigenvalues --    1.12529   1.13710   1.14229   1.14875   1.15476
 Alpha virt. eigenvalues --    1.15587   1.17337   1.17512   1.18277   1.19812
 Alpha virt. eigenvalues --    1.20143   1.20597   1.20668   1.21892   1.22379
 Alpha virt. eigenvalues --    1.23056   1.23663   1.24019   1.24710   1.26239
 Alpha virt. eigenvalues --    1.26463   1.27160   1.27393   1.27819   1.28442
 Alpha virt. eigenvalues --    1.28637   1.28901   1.28957   1.29973   1.30285
 Alpha virt. eigenvalues --    1.31733   1.32936   1.33478   1.34064   1.34467
 Alpha virt. eigenvalues --    1.34925   1.36077   1.36893   1.37484   1.38272
 Alpha virt. eigenvalues --    1.38583   1.39203   1.40395   1.40841   1.42080
 Alpha virt. eigenvalues --    1.42437   1.43645   1.44281   1.44650   1.45113
 Alpha virt. eigenvalues --    1.45279   1.46422   1.47226   1.49040   1.49443
 Alpha virt. eigenvalues --    1.50376   1.52001   1.52807   1.52891   1.54518
 Alpha virt. eigenvalues --    1.54999   1.55661   1.57136   1.57245   1.58450
 Alpha virt. eigenvalues --    1.59545   1.60103   1.60875   1.61699   1.62457
 Alpha virt. eigenvalues --    1.63517   1.64677   1.65630   1.69176   1.69579
 Alpha virt. eigenvalues --    1.70271   1.70703   1.70976   1.71349   1.72057
 Alpha virt. eigenvalues --    1.72443   1.72987   1.73121   1.73895   1.74183
 Alpha virt. eigenvalues --    1.74764   1.75452   1.75828   1.76142   1.76983
 Alpha virt. eigenvalues --    1.77406   1.77690   1.78496   1.79333   1.80166
 Alpha virt. eigenvalues --    1.80540   1.81606   1.81725   1.82919   1.83847
 Alpha virt. eigenvalues --    1.84053   1.84810   1.85114   1.85857   1.86288
 Alpha virt. eigenvalues --    1.86697   1.87774   1.88406   1.88803   1.89550
 Alpha virt. eigenvalues --    1.90711   1.91053   1.91176   1.92335   1.92490
 Alpha virt. eigenvalues --    1.93901   1.95003   1.95532   1.95768   1.96055
 Alpha virt. eigenvalues --    1.96528   1.97055   1.97820   1.98102   1.98332
 Alpha virt. eigenvalues --    1.99893   2.00668   2.01057   2.02181   2.02951
 Alpha virt. eigenvalues --    2.03724   2.04307   2.05087   2.05773   2.06634
 Alpha virt. eigenvalues --    2.07106   2.07473   2.08373   2.09566   2.09864
 Alpha virt. eigenvalues --    2.11414   2.11622   2.11833   2.13481   2.13832
 Alpha virt. eigenvalues --    2.14059   2.14929   2.15529   2.16362   2.16863
 Alpha virt. eigenvalues --    2.17077   2.17500   2.17712   2.18555   2.19034
 Alpha virt. eigenvalues --    2.19274   2.19873   2.20487   2.21041   2.21172
 Alpha virt. eigenvalues --    2.21983   2.22143   2.22546   2.23915   2.24814
 Alpha virt. eigenvalues --    2.25255   2.25502   2.25689   2.26854   2.27264
 Alpha virt. eigenvalues --    2.27846   2.28205   2.28353   2.29035   2.29335
 Alpha virt. eigenvalues --    2.29980   2.30998   2.31489   2.32647   2.32801
 Alpha virt. eigenvalues --    2.33218   2.33937   2.34411   2.34984   2.35251
 Alpha virt. eigenvalues --    2.35993   2.36614   2.38260   2.38506   2.40541
 Alpha virt. eigenvalues --    2.41344   2.42806   2.43628   2.43706   2.44030
 Alpha virt. eigenvalues --    2.44437   2.44652   2.46336   2.46460   2.47184
 Alpha virt. eigenvalues --    2.47318   2.47582   2.49186   2.50275   2.50714
 Alpha virt. eigenvalues --    2.51416   2.53168   2.54553   2.56170   2.56790
 Alpha virt. eigenvalues --    2.58347   2.59195   2.59515   2.60382   2.61118
 Alpha virt. eigenvalues --    2.62704   2.64867   2.65143   2.66561   2.68704
 Alpha virt. eigenvalues --    2.69468   2.70333   2.71049   2.72332   2.77338
 Alpha virt. eigenvalues --    2.77968   2.78532   2.79449   2.81570   2.82932
 Alpha virt. eigenvalues --    2.83237   2.86075   2.87184   2.87641   2.88988
 Alpha virt. eigenvalues --    2.89973   2.90607   2.91141   2.92883   2.95193
 Alpha virt. eigenvalues --    2.95953   2.97528   3.02825   3.04352   3.04967
 Alpha virt. eigenvalues --    3.11042   3.13684   3.15480   3.20661   3.20691
 Alpha virt. eigenvalues --    3.28992   3.29733   3.30750   3.36761   3.37004
 Alpha virt. eigenvalues --    3.48040   3.54580   3.73949   3.77848   4.04930
 Alpha virt. eigenvalues --    4.15102
  Beta  occ. eigenvalues -- -256.38103 -30.22877 -26.07357 -26.07114 -26.06095
  Beta  occ. eigenvalues --  -19.30505 -14.54250 -14.51261 -14.47281 -14.47155
  Beta  occ. eigenvalues --  -14.46924 -14.46770 -10.38376 -10.35488 -10.33191
  Beta  occ. eigenvalues --  -10.33159 -10.33137 -10.33055 -10.32982 -10.32973
  Beta  occ. eigenvalues --  -10.32893 -10.32871 -10.32823 -10.30581 -10.30298
  Beta  occ. eigenvalues --  -10.30099 -10.30041 -10.30002 -10.29967 -10.29967
  Beta  occ. eigenvalues --  -10.29963 -10.29948 -10.29816 -10.29756 -10.29677
  Beta  occ. eigenvalues --  -10.29622 -10.29253 -10.29063 -10.28122 -10.28104
  Beta  occ. eigenvalues --  -10.28068 -10.28022 -10.27969 -10.27944 -10.27702
  Beta  occ. eigenvalues --  -10.27675  -3.58431  -2.34717  -2.34162  -2.33489
  Beta  occ. eigenvalues --   -1.17121  -1.16644  -1.08633  -1.07742  -1.07517
  Beta  occ. eigenvalues --   -1.06661  -1.02969  -0.93147  -0.91902  -0.91538
  Beta  occ. eigenvalues --   -0.91032  -0.90826  -0.90636  -0.90401  -0.90294
  Beta  occ. eigenvalues --   -0.86425  -0.85178  -0.84898  -0.83988  -0.82649
  Beta  occ. eigenvalues --   -0.82313  -0.80906  -0.79925  -0.78266  -0.78071
  Beta  occ. eigenvalues --   -0.77816  -0.76147  -0.74789  -0.74738  -0.72483
  Beta  occ. eigenvalues --   -0.72307  -0.70375  -0.69719  -0.68355  -0.67855
  Beta  occ. eigenvalues --   -0.67019  -0.64766  -0.64055  -0.63285  -0.62941
  Beta  occ. eigenvalues --   -0.61522  -0.61415  -0.61055  -0.59104  -0.58833
  Beta  occ. eigenvalues --   -0.58206  -0.57895  -0.57660  -0.55672  -0.55006
  Beta  occ. eigenvalues --   -0.54576  -0.54352  -0.53901  -0.53812  -0.53588
  Beta  occ. eigenvalues --   -0.53497  -0.53086  -0.52982  -0.52727  -0.52399
  Beta  occ. eigenvalues --   -0.52154  -0.52112  -0.51841  -0.51654  -0.51361
  Beta  occ. eigenvalues --   -0.50392  -0.50262  -0.50095  -0.49887  -0.49851
  Beta  occ. eigenvalues --   -0.49577  -0.49385  -0.49330  -0.49010  -0.48734
  Beta  occ. eigenvalues --   -0.48239  -0.47907  -0.47639  -0.47626  -0.47384
  Beta  occ. eigenvalues --   -0.47032  -0.46777  -0.46272  -0.45854  -0.45372
  Beta  occ. eigenvalues --   -0.44737  -0.44483  -0.43854  -0.43537  -0.43212
  Beta  occ. eigenvalues --   -0.42498  -0.42016  -0.41182  -0.40893  -0.39422
  Beta  occ. eigenvalues --   -0.38766  -0.38201  -0.37161  -0.36956  -0.36432
  Beta  occ. eigenvalues --   -0.34619  -0.33568  -0.32814  -0.31945  -0.31325
  Beta  occ. eigenvalues --   -0.29159  -0.28201
  Beta virt. eigenvalues --   -0.20326  -0.16998  -0.16675  -0.16009  -0.11249
  Beta virt. eigenvalues --   -0.11193  -0.08812  -0.07594  -0.06405  -0.04849
  Beta virt. eigenvalues --   -0.04079  -0.03380  -0.01640  -0.01196  -0.00457
  Beta virt. eigenvalues --    0.01085   0.01385   0.02019   0.02820   0.03289
  Beta virt. eigenvalues --    0.03558   0.04087   0.04513   0.04669   0.04972
  Beta virt. eigenvalues --    0.05157   0.05417   0.05825   0.05939   0.06432
  Beta virt. eigenvalues --    0.06652   0.06780   0.07295   0.07705   0.08070
  Beta virt. eigenvalues --    0.08218   0.08338   0.08730   0.08783   0.09280
  Beta virt. eigenvalues --    0.09440   0.09459   0.09727   0.10089   0.10311
  Beta virt. eigenvalues --    0.10468   0.10775   0.11375   0.12011   0.12076
  Beta virt. eigenvalues --    0.12510   0.12701   0.12914   0.13183   0.13497
  Beta virt. eigenvalues --    0.13895   0.14419   0.15257   0.15413   0.16017
  Beta virt. eigenvalues --    0.16399   0.16656   0.16968   0.17292   0.17357
  Beta virt. eigenvalues --    0.18254   0.18299   0.19931   0.20319   0.20854
  Beta virt. eigenvalues --    0.21283   0.21809   0.22322   0.23581   0.23733
  Beta virt. eigenvalues --    0.23935   0.25318   0.26021   0.26262   0.26532
  Beta virt. eigenvalues --    0.27297   0.27497   0.28938   0.29682   0.30736
  Beta virt. eigenvalues --    0.31250   0.32032   0.33036   0.33529   0.34179
  Beta virt. eigenvalues --    0.34403   0.35088   0.36550   0.38023   0.38555
  Beta virt. eigenvalues --    0.38632   0.39076   0.39672   0.40065   0.40522
  Beta virt. eigenvalues --    0.40928   0.41210   0.41731   0.42209   0.42390
  Beta virt. eigenvalues --    0.43019   0.43131   0.43574   0.43753   0.44183
  Beta virt. eigenvalues --    0.44299   0.45066   0.45395   0.45537   0.46418
  Beta virt. eigenvalues --    0.46537   0.47017   0.47397   0.47738   0.48187
  Beta virt. eigenvalues --    0.48716   0.48979   0.49600   0.50220   0.50539
  Beta virt. eigenvalues --    0.50734   0.51030   0.51380   0.51986   0.52631
  Beta virt. eigenvalues --    0.52974   0.53163   0.53989   0.54406   0.54689
  Beta virt. eigenvalues --    0.55208   0.55434   0.55701   0.56102   0.56318
  Beta virt. eigenvalues --    0.56531   0.57110   0.57173   0.57742   0.57858
  Beta virt. eigenvalues --    0.58017   0.58291   0.58846   0.59992   0.60269
  Beta virt. eigenvalues --    0.60666   0.61318   0.61809   0.62160   0.62897
  Beta virt. eigenvalues --    0.63263   0.63475   0.63797   0.64489   0.65295
  Beta virt. eigenvalues --    0.65444   0.66338   0.66791   0.66985   0.67438
  Beta virt. eigenvalues --    0.67908   0.68343   0.68475   0.68657   0.69068
  Beta virt. eigenvalues --    0.69293   0.69720   0.70102   0.70325   0.70800
  Beta virt. eigenvalues --    0.70910   0.71678   0.72336   0.72864   0.73745
  Beta virt. eigenvalues --    0.73844   0.74475   0.74856   0.76330   0.76545
  Beta virt. eigenvalues --    0.76849   0.77299   0.77781   0.78289   0.78526
  Beta virt. eigenvalues --    0.78614   0.79218   0.79308   0.79611   0.80233
  Beta virt. eigenvalues --    0.80813   0.81437   0.81604   0.81901   0.82113
  Beta virt. eigenvalues --    0.82890   0.83172   0.83371   0.83605   0.83771
  Beta virt. eigenvalues --    0.84443   0.84641   0.84965   0.85289   0.85774
  Beta virt. eigenvalues --    0.86331   0.86784   0.87098   0.87248   0.87928
  Beta virt. eigenvalues --    0.88085   0.88481   0.88974   0.89404   0.90015
  Beta virt. eigenvalues --    0.90192   0.90716   0.90941   0.91447   0.91575
  Beta virt. eigenvalues --    0.92065   0.92311   0.92389   0.93200   0.93820
  Beta virt. eigenvalues --    0.94249   0.94836   0.95090   0.95139   0.96385
  Beta virt. eigenvalues --    0.97269   0.97575   0.98140   0.98754   0.99382
  Beta virt. eigenvalues --    0.99636   1.00770   1.01632   1.02762   1.03669
  Beta virt. eigenvalues --    1.04455   1.04944   1.05737   1.06067   1.07406
  Beta virt. eigenvalues --    1.07629   1.07944   1.08383   1.09229   1.09582
  Beta virt. eigenvalues --    1.10441   1.10533   1.10743   1.11083   1.11749
  Beta virt. eigenvalues --    1.11901   1.12536   1.13719   1.14278   1.15076
  Beta virt. eigenvalues --    1.15586   1.15672   1.17370   1.17527   1.18315
  Beta virt. eigenvalues --    1.19819   1.20180   1.20646   1.20699   1.21920
  Beta virt. eigenvalues --    1.22393   1.23084   1.23697   1.24047   1.24764
  Beta virt. eigenvalues --    1.26273   1.26484   1.27194   1.27425   1.27841
  Beta virt. eigenvalues --    1.28454   1.28658   1.28911   1.28995   1.30051
  Beta virt. eigenvalues --    1.30363   1.31748   1.32973   1.33536   1.34066
  Beta virt. eigenvalues --    1.34479   1.34956   1.36078   1.36925   1.37480
  Beta virt. eigenvalues --    1.38283   1.38625   1.39212   1.40460   1.40910
  Beta virt. eigenvalues --    1.42115   1.42418   1.43641   1.44288   1.44663
  Beta virt. eigenvalues --    1.45148   1.45298   1.46429   1.47277   1.49092
  Beta virt. eigenvalues --    1.49496   1.50390   1.52080   1.52833   1.52949
  Beta virt. eigenvalues --    1.54624   1.55033   1.55706   1.57163   1.57268
  Beta virt. eigenvalues --    1.58540   1.59554   1.60210   1.60879   1.61769
  Beta virt. eigenvalues --    1.62499   1.63698   1.64721   1.65648   1.69195
  Beta virt. eigenvalues --    1.69586   1.70276   1.70714   1.70980   1.71407
  Beta virt. eigenvalues --    1.72067   1.72465   1.72998   1.73130   1.73905
  Beta virt. eigenvalues --    1.74209   1.74783   1.75479   1.75826   1.76153
  Beta virt. eigenvalues --    1.76988   1.77393   1.77685   1.78508   1.79335
  Beta virt. eigenvalues --    1.80192   1.80569   1.81627   1.81758   1.82989
  Beta virt. eigenvalues --    1.83896   1.84132   1.84872   1.85167   1.85921
  Beta virt. eigenvalues --    1.86395   1.86771   1.87809   1.88784   1.88884
  Beta virt. eigenvalues --    1.89722   1.90746   1.91134   1.91260   1.92383
  Beta virt. eigenvalues --    1.92542   1.93942   1.95032   1.95563   1.95853
  Beta virt. eigenvalues --    1.96081   1.96607   1.97144   1.97884   1.98150
  Beta virt. eigenvalues --    1.98356   2.00156   2.00756   2.01085   2.02205
  Beta virt. eigenvalues --    2.03022   2.03785   2.04404   2.05139   2.05824
  Beta virt. eigenvalues --    2.06637   2.07129   2.07497   2.08649   2.09660
  Beta virt. eigenvalues --    2.09941   2.11450   2.11709   2.11865   2.13520
  Beta virt. eigenvalues --    2.13862   2.14075   2.15005   2.15621   2.16378
  Beta virt. eigenvalues --    2.16874   2.17090   2.17555   2.17741   2.18571
  Beta virt. eigenvalues --    2.19076   2.19304   2.19919   2.20517   2.21047
  Beta virt. eigenvalues --    2.21464   2.22011   2.22245   2.22854   2.23934
  Beta virt. eigenvalues --    2.25103   2.25396   2.25547   2.25734   2.26891
  Beta virt. eigenvalues --    2.27320   2.27878   2.28218   2.28469   2.29053
  Beta virt. eigenvalues --    2.29449   2.30100   2.31015   2.31508   2.32675
  Beta virt. eigenvalues --    2.32822   2.33243   2.33993   2.34489   2.35046
  Beta virt. eigenvalues --    2.35377   2.36054   2.36863   2.38308   2.38524
  Beta virt. eigenvalues --    2.40820   2.41492   2.42838   2.43645   2.43776
  Beta virt. eigenvalues --    2.44130   2.44546   2.44848   2.46350   2.46542
  Beta virt. eigenvalues --    2.47224   2.47335   2.47615   2.49202   2.50367
  Beta virt. eigenvalues --    2.50741   2.51468   2.53195   2.54563   2.56180
  Beta virt. eigenvalues --    2.56802   2.58359   2.59255   2.59523   2.60425
  Beta virt. eigenvalues --    2.61120   2.62695   2.64871   2.65191   2.66581
  Beta virt. eigenvalues --    2.68703   2.69502   2.70343   2.71057   2.72329
  Beta virt. eigenvalues --    2.77322   2.77986   2.78532   2.79458   2.81585
  Beta virt. eigenvalues --    2.82934   2.83265   2.86085   2.87174   2.87632
  Beta virt. eigenvalues --    2.88978   2.89974   2.90626   2.91163   2.92923
  Beta virt. eigenvalues --    2.95181   2.95951   2.97610   3.02818   3.04378
  Beta virt. eigenvalues --    3.04969   3.11031   3.13708   3.15568   3.20664
  Beta virt. eigenvalues --    3.20701   3.28975   3.29731   3.30827   3.36767
  Beta virt. eigenvalues --    3.36987   3.53428   3.58639   3.76195   3.79543
  Beta virt. eigenvalues --    4.06192   4.16891
          Condensed to atoms (all electrons):
          Atomic-Atomic Spin Densities.
 Mulliken charges and spin densities:
               1          2
     1  Fe   0.897637   1.063200
     2  N   -0.661832  -0.029578
     3  N   -0.672986  -0.023867
     4  N   -0.655215  -0.026255
     5  N   -0.674607  -0.023226
     6  C    0.319052   0.006103
     7  C    0.036684  -0.002095
     8  C    0.038785   0.000897
     9  C    0.298166   0.003803
    10  C    0.307692   0.004698
    11  C    0.043352   0.013201
    12  C    0.006024   0.012321
    13  C    0.323376   0.004234
    14  C    0.289337   0.003510
    15  C    0.044258  -0.001749
    16  C    0.004587  -0.000828
    17  C    0.291451   0.004474
    18  C    0.313672   0.004739
    19  C    0.041729   0.014854
    20  C    0.040853   0.011643
    21  C    0.328340   0.006088
    22  C   -0.303113  -0.008572
    23  H    0.189905   0.000402
    24  C   -0.316612  -0.006097
    25  H    0.189913   0.000286
    26  C   -0.293653  -0.003471
    27  H    0.191625   0.000175
    28  C   -0.305865  -0.005734
    29  H    0.190421   0.000266
    30  C   -0.610146  -0.000221
    31  H    0.203791  -0.000117
    32  H    0.205361   0.000111
    33  H    0.195104   0.000105
    34  C   -0.611094  -0.000064
    35  H    0.200665  -0.000002
    36  H    0.204104   0.000006
    37  H    0.202287  -0.000131
    38  C   -0.613462  -0.001324
    39  H    0.190047   0.000547
    40  H    0.209159   0.000947
    41  H    0.211364   0.000097
    42  C   -0.155213  -0.005193
    43  H    0.179382   0.000460
    44  C   -0.389534   0.008049
    45  H    0.189301  -0.000401
    46  H    0.193762  -0.000358
    47  C   -0.613061  -0.000056
    48  H    0.194708  -0.000004
    49  H    0.204810   0.000021
    50  H    0.211740  -0.000147
    51  C   -0.152394   0.000058
    52  H    0.176774   0.000006
    53  C   -0.391714  -0.000035
    54  H    0.187144   0.000005
    55  H    0.192251  -0.000008
    56  C   -0.612054  -0.001464
    57  H    0.201145   0.000869
    58  H    0.207307   0.000935
    59  H    0.204256  -0.000068
    60  C   -0.611823  -0.001372
    61  H    0.203541   0.000832
    62  H    0.203587  -0.000109
    63  H    0.205224   0.000804
    64  O   -0.806631  -0.001805
    65  H    0.481766   0.000431
    66  H    0.469118  -0.000453
    67  C   -0.602722  -0.000205
    68  H    0.214838   0.000066
    69  H    0.222672  -0.000027
    70  H    0.215163  -0.000136
    71  N   -0.630888   0.001361
    72  H    0.389027  -0.000138
    73  C    0.281730  -0.001225
    74  C    0.264112   0.009887
    75  H    0.236569  -0.000591
    76  N   -0.434809  -0.033855
    77  C   -0.035121   0.000666
    78  H    0.215880  -0.000180
 Sum of Mulliken charges =   1.00000   1.00000
 Mulliken charges and spin densities with hydrogens summed into heavy atoms:
               1          2
     1  Fe   0.897637   1.063200
     2  N   -0.661832  -0.029578
     3  N   -0.672986  -0.023867
     4  N   -0.655215  -0.026255
     5  N   -0.674607  -0.023226
     6  C    0.319052   0.006103
     7  C    0.036684  -0.002095
     8  C    0.038785   0.000897
     9  C    0.298166   0.003803
    10  C    0.307692   0.004698
    11  C    0.043352   0.013201
    12  C    0.006024   0.012321
    13  C    0.323376   0.004234
    14  C    0.289337   0.003510
    15  C    0.044258  -0.001749
    16  C    0.004587  -0.000828
    17  C    0.291451   0.004474
    18  C    0.313672   0.004739
    19  C    0.041729   0.014854
    20  C    0.040853   0.011643
    21  C    0.328340   0.006088
    22  C   -0.113208  -0.008169
    24  C   -0.126699  -0.005811
    26  C   -0.102028  -0.003296
    28  C   -0.115443  -0.005467
    30  C   -0.005890  -0.000121
    34  C   -0.004038  -0.000191
    38  C   -0.002893   0.000268
    42  C    0.024168  -0.004733
    44  C   -0.006470   0.007290
    47  C   -0.001803  -0.000186
    51  C    0.024380   0.000064
    53  C   -0.012318  -0.000038
    56  C    0.000654   0.000272
    60  C    0.000528   0.000155
    64  O    0.144252  -0.001827
    67  C    0.049951  -0.000301
    71  N   -0.241861   0.001223
    73  C    0.281730  -0.001225
    74  C    0.500681   0.009296
    76  N   -0.434809  -0.033855
    77  C    0.180759   0.000486
 Electronic spatial extent (au):  <R**2>=          19924.5538
 Charge=              1.0000 electrons
 Dipole moment (field-independent basis, Debye):
    X=             -0.9050    Y=             -1.3637    Z=              3.1419  Tot=              3.5427
 Quadrupole moment (field-independent basis, Debye-Ang):
   XX=           -183.7095   YY=           -190.2396   ZZ=           -199.0548
   XY=              0.4738   XZ=             -5.2376   YZ=             -4.0646
 Traceless Quadrupole moment (field-independent basis, Debye-Ang):
   XX=              7.2918   YY=              0.7617   ZZ=             -8.0535
   XY=              0.4738   XZ=             -5.2376   YZ=             -4.0646
 Octapole moment (field-independent basis, Debye-Ang**2):
  XXX=              3.2869  YYY=             -8.1815  ZZZ=            138.6408  XYY=             -7.9568
  XXY=              3.3260  XXZ=            -19.8289  XZZ=            -17.7727  YZZ=            -27.3129
  YYZ=            -48.2655  XYZ=              0.3592
 Hexadecapole moment (field-independent basis, Debye-Ang**3):
 XXXX=         -10295.4061 YYYY=         -10131.4634 ZZZZ=          -2318.5539 XXXY=            -48.6367
 XXXZ=             25.3994 YYYX=            -49.1385 YYYZ=             18.0796 ZZZX=            -77.6726
 ZZZY=           -102.5365 XXYY=          -3218.4550 XXZZ=          -2471.9552 YYZZ=          -2509.8262
 XXYZ=            -81.0980 YYXZ=            -65.5788 ZZXY=             44.1777
 N-N= 5.965461945415D+03 E-N=-1.890552412213D+04  KE= 2.971969411354D+03
                          Isotropic Fermi Contact Couplings
        Atom                 a.u.       MegaHertz       Gauss      10(-4) cm-1
     1  Fe(57)             0.11801      17.11614       6.10746       5.70933
     2  N(14)             -0.02506      -8.09824      -2.88965      -2.70128
     3  N(14)             -0.01938      -6.26199      -2.23443      -2.08878
     4  N(14)             -0.02149      -6.94283      -2.47738      -2.31588
     5  N(14)             -0.02084      -6.73319      -2.40257      -2.24595
     6  C(13)             -0.00011      -0.12355      -0.04409      -0.04121
     7  C(13)             -0.00108      -1.21299      -0.43282      -0.40461
     8  C(13)             -0.00052      -0.57956      -0.20680      -0.19332
     9  C(13)             -0.00028      -0.31678      -0.11304      -0.10567
    10  C(13)              0.00030       0.33426       0.11927       0.11150
    11  C(13)              0.00124       1.38963       0.49586       0.46353
    12  C(13)              0.00092       1.03555       0.36951       0.34542
    13  C(13)             -0.00070      -0.79179      -0.28253      -0.26411
    14  C(13)             -0.00040      -0.44985      -0.16052      -0.15005
    15  C(13)             -0.00083      -0.93436      -0.33340      -0.31167
    16  C(13)             -0.00073      -0.81967      -0.29248      -0.27341
    17  C(13)             -0.00009      -0.10318      -0.03682      -0.03442
    18  C(13)              0.00038       0.42935       0.15320       0.14322
    19  C(13)              0.00143       1.60324       0.57208       0.53478
    20  C(13)              0.00070       0.79134       0.28237       0.26396
    21  C(13)             -0.00066      -0.74314      -0.26517      -0.24789
    22  C(13)             -0.00137      -1.54410      -0.55097      -0.51506
    23  H(1)               0.00015       0.65134       0.23242       0.21726
    24  C(13)             -0.00108      -1.21931      -0.43508      -0.40672
    25  H(1)               0.00011       0.48174       0.17190       0.16069
    26  C(13)             -0.00063      -0.70704      -0.25229      -0.23584
    27  H(1)               0.00007       0.30743       0.10970       0.10255
    28  C(13)             -0.00107      -1.20481      -0.42991      -0.40188
    29  H(1)               0.00010       0.44204       0.15773       0.14745
    30  C(13)             -0.00010      -0.11273      -0.04022      -0.03760
    31  H(1)              -0.00005      -0.22287      -0.07952      -0.07434
    32  H(1)               0.00007       0.32117       0.11460       0.10713
    33  H(1)               0.00006       0.27366       0.09765       0.09128
    34  C(13)             -0.00006      -0.07121      -0.02541      -0.02375
    35  H(1)               0.00001       0.04915       0.01754       0.01640
    36  H(1)               0.00002       0.07828       0.02793       0.02611
    37  H(1)              -0.00006      -0.25017      -0.08927      -0.08345
    38  C(13)             -0.00049      -0.55039      -0.19639      -0.18359
    39  H(1)               0.00023       1.03436       0.36909       0.34503
    40  H(1)               0.00048       2.14875       0.76673       0.71674
    41  H(1)               0.00003       0.14381       0.05131       0.04797
    42  C(13)             -0.00108      -1.21388      -0.43314      -0.40491
    43  H(1)               0.00016       0.73131       0.26095       0.24394
    44  C(13)              0.00124       1.38844       0.49543       0.46313
    45  H(1)              -0.00012      -0.53679      -0.19154      -0.17905
    46  H(1)              -0.00012      -0.51611      -0.18416      -0.17216
    47  C(13)             -0.00005      -0.05097      -0.01819      -0.01700
    48  H(1)              -0.00000      -0.01883      -0.00672      -0.00628
    49  H(1)               0.00000       0.01948       0.00695       0.00650
    50  H(1)              -0.00006      -0.24934      -0.08897      -0.08317
    51  C(13)             -0.00004      -0.05044      -0.01800      -0.01683
    52  H(1)               0.00000       0.02170       0.00774       0.00724
    53  C(13)             -0.00001      -0.01374      -0.00490      -0.00458
    54  H(1)               0.00000       0.00808       0.00288       0.00270
    55  H(1)              -0.00001      -0.02440      -0.00871      -0.00814
    56  C(13)             -0.00057      -0.63818      -0.22772      -0.21287
    57  H(1)               0.00040       1.80140       0.64278       0.60088
    58  H(1)               0.00045       2.01291       0.71826       0.67143
    59  H(1)              -0.00003      -0.14357      -0.05123      -0.04789
    60  C(13)             -0.00058      -0.65178      -0.23257      -0.21741
    61  H(1)               0.00039       1.74132       0.62135       0.58084
    62  H(1)              -0.00005      -0.22821      -0.08143      -0.07612
    63  H(1)               0.00038       1.68409       0.60093       0.56175
    64  O(17)             -0.00122       0.73822       0.26341       0.24624
    65  H(1)               0.00009       0.38540       0.13752       0.12855
    66  H(1)              -0.00041      -1.83121      -0.65342      -0.61083
    67  C(13)             -0.00013      -0.14491      -0.05171      -0.04834
    68  H(1)               0.00005       0.21140       0.07543       0.07051
    69  H(1)              -0.00002      -0.08480      -0.03026      -0.02829
    70  H(1)              -0.00006      -0.25057      -0.08941      -0.08358
    71  N(14)             -0.00086      -0.27834      -0.09932      -0.09285
    72  H(1)              -0.00006      -0.27782      -0.09913      -0.09267
    73  C(13)             -0.00125      -1.40305      -0.50064      -0.46801
    74  C(13)              0.00186       2.09375       0.74710       0.69840
    75  H(1)              -0.00027      -1.21401      -0.43319      -0.40495
    76  N(14)             -0.03265     -10.54923      -3.76423      -3.51885
    77  C(13)             -0.00092      -1.03342      -0.36875      -0.34471
    78  H(1)              -0.00013      -0.57776      -0.20616      -0.19272
 --------------------------------------------------------
       Center         ----  Spin Dipole Couplings  ----
                      3XX-RR        3YY-RR        3ZZ-RR
 --------------------------------------------------------
     1   Atom       -0.441133     -0.923336      1.364469
     2   Atom        0.003178     -0.004756      0.001578
     3   Atom       -0.003925     -0.010950      0.014875
     4   Atom        0.007184      0.001623     -0.008807
     5   Atom       -0.007595     -0.012555      0.020151
     6   Atom       -0.005778      0.002751      0.003027
     7   Atom       -0.001343      0.002316     -0.000973
     8   Atom        0.000141     -0.001554      0.001413
     9   Atom        0.001466     -0.001272     -0.000193
    10   Atom        0.005426     -0.006918      0.001492
    11   Atom       -0.005954     -0.009327      0.015281
    12   Atom       -0.008735     -0.005862      0.014597
    13   Atom       -0.003212      0.000418      0.002794
    14   Atom       -0.004263      0.003895      0.000367
    15   Atom       -0.001097      0.002304     -0.001206
    16   Atom        0.000857     -0.000508     -0.000348
    17   Atom        0.000925     -0.001346      0.000421
    18   Atom        0.005428     -0.007300      0.001872
    19   Atom       -0.006693     -0.010319      0.017012
    20   Atom       -0.008826     -0.005910      0.014735
    21   Atom       -0.003899     -0.000863      0.004762
    22   Atom        0.000162      0.010648     -0.010810
    23   Atom       -0.000955      0.002567     -0.001612
    24   Atom        0.009336     -0.000740     -0.008595
    25   Atom        0.002557     -0.000946     -0.001611
    26   Atom       -0.002239      0.008117     -0.005878
    27   Atom       -0.001243      0.002806     -0.001562
    28   Atom        0.008956     -0.000797     -0.008159
    29   Atom        0.002577     -0.000958     -0.001619
    30   Atom        0.000520      0.000054     -0.000575
    31   Atom        0.000267      0.000249     -0.000517
    32   Atom        0.000769     -0.000150     -0.000619
    33   Atom        0.000794     -0.000114     -0.000680
    34   Atom       -0.000414      0.000988     -0.000575
    35   Atom       -0.000574      0.001259     -0.000685
    36   Atom       -0.000553      0.001159     -0.000607
    37   Atom       -0.000235      0.000744     -0.000509
    38   Atom        0.001419     -0.000809     -0.000610
    39   Atom        0.001558     -0.000692     -0.000866
    40   Atom        0.001299     -0.000660     -0.000639
    41   Atom        0.001129     -0.000373     -0.000756
    42   Atom        0.000137      0.002409     -0.002547
    43   Atom       -0.000332      0.001174     -0.000841
    44   Atom        0.001092     -0.003074      0.001981
    45   Atom        0.000435      0.000060     -0.000495
    46   Atom       -0.000299      0.000874     -0.000574
    47   Atom       -0.000361      0.000993     -0.000632
    48   Atom       -0.000596      0.001268     -0.000672
    49   Atom       -0.000459      0.001059     -0.000601
    50   Atom       -0.000217      0.000723     -0.000507
    51   Atom        0.000428      0.000147     -0.000575
    52   Atom        0.000873     -0.000171     -0.000702
    53   Atom        0.000231      0.000476     -0.000707
    54   Atom        0.000068      0.000343     -0.000411
    55   Atom        0.000245      0.000071     -0.000316
    56   Atom        0.001453     -0.000879     -0.000574
    57   Atom        0.001489     -0.000719     -0.000769
    58   Atom        0.001458     -0.000710     -0.000747
    59   Atom        0.001187     -0.000462     -0.000725
    60   Atom       -0.000306      0.000821     -0.000514
    61   Atom       -0.000349      0.001155     -0.000806
    62   Atom        0.000133      0.000566     -0.000700
    63   Atom       -0.000356      0.001027     -0.000671
    64   Atom        0.008440     -0.008392     -0.000048
    65   Atom       -0.005491     -0.002795      0.008286
    66   Atom       -0.005837     -0.006513      0.012350
    67   Atom       -0.000526     -0.000526      0.001052
    68   Atom       -0.000533     -0.000600      0.001133
    69   Atom       -0.000440     -0.000717      0.001157
    70   Atom       -0.000506     -0.000618      0.001124
    71   Atom       -0.003640      0.004029     -0.000389
    72   Atom       -0.000874     -0.001080      0.001954
    73   Atom       -0.000927     -0.001438      0.002365
    74   Atom       -0.007786      0.004637      0.003149
    75   Atom        0.001807     -0.003683      0.001876
    76   Atom        0.010082      0.001750     -0.011832
    77   Atom       -0.005475     -0.002642      0.008117
    78   Atom        0.000122     -0.004349      0.004228
 --------------------------------------------------------
                        XY            XZ            YZ
 --------------------------------------------------------
     1   Atom       -2.142066      0.374890      0.626814
     2   Atom       -0.008787     -0.000111     -0.001928
     3   Atom       -0.000457     -0.009384      0.010321
     4   Atom       -0.004613      0.007200      0.012472
     5   Atom       -0.000175      0.012537     -0.007163
     6   Atom        0.004755      0.000473      0.000340
     7   Atom        0.000827     -0.000465     -0.000405
     8   Atom        0.001876     -0.000383     -0.001060
     9   Atom        0.006259      0.000091      0.000305
    10   Atom       -0.003678     -0.000425     -0.000951
    11   Atom       -0.001148     -0.000140     -0.001910
    12   Atom       -0.001787      0.001087     -0.003436
    13   Atom       -0.005898     -0.000208     -0.003022
    14   Atom        0.004553      0.000544      0.000837
    15   Atom        0.000909     -0.000470     -0.000568
    16   Atom        0.001750     -0.000303     -0.000560
    17   Atom        0.006157      0.000433      0.000430
    18   Atom       -0.003355     -0.000827     -0.000609
    19   Atom       -0.000998     -0.000605     -0.001556
    20   Atom       -0.001770      0.001071     -0.002856
    21   Atom       -0.006290     -0.000041     -0.002528
    22   Atom       -0.001330      0.000243      0.001440
    23   Atom       -0.000400     -0.000012      0.000274
    24   Atom        0.002000      0.000375      0.000630
    25   Atom        0.000788      0.000185      0.000075
    26   Atom       -0.001208      0.000205      0.001066
    27   Atom       -0.000470     -0.000022      0.000230
    28   Atom        0.002095      0.000336      0.000459
    29   Atom        0.000743      0.000016      0.000021
    30   Atom        0.000996      0.000033      0.000034
    31   Atom        0.000816      0.000052      0.000057
    32   Atom        0.000867      0.000327      0.000201
    33   Atom        0.000921     -0.000171     -0.000100
    34   Atom        0.000659      0.000039      0.000087
    35   Atom        0.000474     -0.000051     -0.000162
    36   Atom        0.000454      0.000106      0.000373
    37   Atom        0.000631      0.000035      0.000066
    38   Atom       -0.000477      0.000014     -0.000079
    39   Atom       -0.000135     -0.000271     -0.000018
    40   Atom       -0.000402      0.000499     -0.000036
    41   Atom       -0.000717     -0.000205      0.000020
    42   Atom       -0.001842      0.002430      0.000702
    43   Atom       -0.000969     -0.000105      0.000276
    44   Atom        0.000256     -0.005650     -0.001133
    45   Atom       -0.000396      0.000355     -0.000001
    46   Atom       -0.000611     -0.000229      0.000037
    47   Atom        0.000652      0.000026     -0.000067
    48   Atom        0.000441      0.000078      0.000251
    49   Atom        0.000515     -0.000093     -0.000235
    50   Atom        0.000628      0.000028      0.000073
    51   Atom        0.001039     -0.000063      0.000038
    52   Atom        0.000882      0.000080      0.000056
    53   Atom        0.000734      0.000045      0.000027
    54   Atom        0.000617     -0.000156     -0.000196
    55   Atom        0.000456     -0.000094     -0.000069
    56   Atom       -0.000427     -0.000186     -0.000032
    57   Atom       -0.000226      0.000428      0.000037
    58   Atom       -0.000195     -0.000464     -0.000043
    59   Atom       -0.000770     -0.000054      0.000010
    60   Atom       -0.000935     -0.000042      0.000027
    61   Atom       -0.000825      0.000029     -0.000225
    62   Atom       -0.001086     -0.000108      0.000120
    63   Atom       -0.000821     -0.000189      0.000584
    64   Atom       -0.012976     -0.002029     -0.002066
    65   Atom        0.002247     -0.004732     -0.008361
    66   Atom       -0.000514      0.000633      0.002039
    67   Atom        0.000004      0.000361      0.000174
    68   Atom        0.000032      0.000249      0.000209
    69   Atom        0.000008      0.000750      0.000088
    70   Atom       -0.000081      0.000323     -0.000274
    71   Atom       -0.001844     -0.001386      0.000809
    72   Atom        0.000061     -0.001145     -0.000351
    73   Atom       -0.001017      0.001048      0.001837
    74   Atom       -0.000716     -0.005846     -0.003429
    75   Atom        0.001450     -0.005578     -0.001856
    76   Atom       -0.001969     -0.003091     -0.009398
    77   Atom        0.001865      0.002242      0.003556
    78   Atom        0.000589      0.006615      0.001093
 --------------------------------------------------------


 ---------------------------------------------------------------------------------
              Anisotropic Spin Dipole Couplings in Principal Axis System
 ---------------------------------------------------------------------------------

       Atom             a.u.   MegaHertz   Gauss  10(-4) cm-1        Axes

              Baa    -2.9570   -51.194   -18.267   -17.076  0.6536  0.7389 -0.1639
     1 Fe(57) Bbb     1.3421    23.235     8.291     7.750  0.6150 -0.3923  0.6840
              Bcc     1.6149    27.958     9.976     9.326 -0.4411  0.5478  0.7108
 
              Baa    -0.0107    -0.411    -0.147    -0.137  0.5318  0.8358  0.1365
     2 N(14)  Bbb     0.0017     0.065     0.023     0.022 -0.1835 -0.0436  0.9821
              Bcc     0.0090     0.346     0.124     0.115  0.8268 -0.5473  0.1301
 
              Baa    -0.0154    -0.592    -0.211    -0.198 -0.2828  0.8775 -0.3873
     3 N(14)  Bbb    -0.0063    -0.244    -0.087    -0.081  0.8992  0.3831  0.2114
              Bcc     0.0217     0.836     0.298     0.279 -0.3340  0.2885  0.8974
 
              Baa    -0.0198    -0.764    -0.273    -0.255 -0.3019 -0.5271  0.7944
     4 N(14)  Bbb     0.0098     0.377     0.134     0.126  0.7135 -0.6776 -0.1784
              Bcc     0.0101     0.388     0.138     0.129  0.6323  0.5129  0.5806
 
              Baa    -0.0155    -0.599    -0.214    -0.200 -0.5187  0.7846  0.3397
     5 N(14)  Bbb    -0.0106    -0.409    -0.146    -0.137  0.7828  0.5956 -0.1803
              Bcc     0.0262     1.009     0.360     0.337  0.3438 -0.1724  0.9231
 
              Baa    -0.0079    -1.061    -0.379    -0.354  0.9132 -0.4066 -0.0269
     6 C(13)  Bbb     0.0029     0.390     0.139     0.130 -0.0770 -0.2370  0.9684
              Bcc     0.0050     0.671     0.240     0.224  0.4001  0.8823  0.2478
 
              Baa    -0.0017    -0.231    -0.082    -0.077  0.8719 -0.1314  0.4718
     7 C(13)  Bbb    -0.0008    -0.113    -0.040    -0.038 -0.4371  0.2259  0.8706
              Bcc     0.0026     0.344     0.123     0.115  0.2210  0.9652 -0.1396
 
              Baa    -0.0029    -0.386    -0.138    -0.129 -0.5055  0.8471  0.1641
     8 C(13)  Bbb     0.0006     0.074     0.026     0.025  0.6943  0.2865  0.6602
              Bcc     0.0023     0.312     0.111     0.104 -0.5122 -0.4477  0.7330
 
              Baa    -0.0063    -0.847    -0.302    -0.283 -0.6263  0.7790 -0.0295
     9 C(13)  Bbb    -0.0002    -0.027    -0.009    -0.009 -0.0489 -0.0015  0.9988
              Bcc     0.0065     0.874     0.312     0.292  0.7781  0.6270  0.0390
 
              Baa    -0.0080    -1.079    -0.385    -0.360  0.2651  0.9582  0.1074
    10 C(13)  Bbb     0.0016     0.214     0.077     0.072  0.0026 -0.1121  0.9937
              Bcc     0.0064     0.865     0.309     0.288  0.9642 -0.2631 -0.0322
 
              Baa    -0.0098    -1.318    -0.470    -0.440  0.2863  0.9552  0.0743
    11 C(13)  Bbb    -0.0056    -0.753    -0.269    -0.251  0.9581 -0.2857 -0.0197
              Bcc     0.0154     2.070     0.739     0.691 -0.0024 -0.0768  0.9970
 
              Baa    -0.0096    -1.289    -0.460    -0.430  0.8935  0.4484  0.0235
    12 C(13)  Bbb    -0.0056    -0.756    -0.270    -0.252 -0.4454  0.8784  0.1731
              Bcc     0.0152     2.045     0.730     0.682  0.0569 -0.1652  0.9846
 
              Baa    -0.0079    -1.066    -0.380    -0.355  0.7696  0.6105  0.1868
    13 C(13)  Bbb     0.0016     0.209     0.075     0.070 -0.4797  0.3598  0.8003
              Bcc     0.0064     0.856     0.306     0.286 -0.4214  0.7055 -0.5698
 
              Baa    -0.0063    -0.845    -0.302    -0.282  0.9136 -0.4060 -0.0236
    14 C(13)  Bbb     0.0002     0.027     0.010     0.009 -0.0477 -0.1645  0.9852
              Bcc     0.0061     0.818     0.292     0.273  0.4039  0.8989  0.1697
 
              Baa    -0.0016    -0.220    -0.078    -0.073  0.7156 -0.0649  0.6955
    15 C(13)  Bbb    -0.0010    -0.136    -0.048    -0.045 -0.6512  0.2983  0.6978
              Bcc     0.0026     0.355     0.127     0.118  0.2528  0.9523 -0.1713
 
              Baa    -0.0018    -0.237    -0.085    -0.079 -0.5249  0.8241  0.2129
    16 C(13)  Bbb    -0.0004    -0.055    -0.020    -0.018  0.3017 -0.0538  0.9519
              Bcc     0.0022     0.293     0.104     0.098  0.7959  0.5639 -0.2204
 
              Baa    -0.0065    -0.868    -0.310    -0.290 -0.6395  0.7688 -0.0078
    17 C(13)  Bbb     0.0004     0.048     0.017     0.016 -0.0866 -0.0619  0.9943
              Bcc     0.0061     0.821     0.293     0.274  0.7639  0.6365  0.1061
 
              Baa    -0.0082    -1.099    -0.392    -0.367  0.2429  0.9669  0.0785
    18 C(13)  Bbb     0.0018     0.247     0.088     0.082  0.1234 -0.1111  0.9861
              Bcc     0.0064     0.853     0.304     0.284  0.9622 -0.2298 -0.1463
 
              Baa    -0.0107    -1.432    -0.511    -0.478  0.2513  0.9661  0.0598
    19 C(13)  Bbb    -0.0064    -0.864    -0.308    -0.288  0.9676 -0.2522  0.0082
              Bcc     0.0171     2.296     0.819     0.766 -0.0230 -0.0558  0.9982
 
              Baa    -0.0097    -1.297    -0.463    -0.433  0.9012  0.4334  0.0112
    20 C(13)  Bbb    -0.0055    -0.742    -0.265    -0.248 -0.4301  0.8905  0.1482
              Bcc     0.0152     2.039     0.728     0.680  0.0543 -0.1384  0.9889
 
              Baa    -0.0090    -1.213    -0.433    -0.405  0.7693  0.6280  0.1173
    21 C(13)  Bbb     0.0025     0.339     0.121     0.113 -0.5503  0.5581  0.6210
              Bcc     0.0065     0.874     0.312     0.292  0.3246 -0.5423  0.7750
 
              Baa    -0.0109    -1.465    -0.523    -0.489 -0.0301 -0.0684  0.9972
    22 C(13)  Bbb     0.0000     0.002     0.001     0.001  0.9922  0.1189  0.0381
              Bcc     0.0109     1.463     0.522     0.488 -0.1212  0.9905  0.0643
 
              Baa    -0.0016    -0.870    -0.310    -0.290 -0.0225 -0.0672  0.9975
    23 H(1)   Bbb    -0.0010    -0.533    -0.190    -0.178  0.9936  0.1092  0.0297
              Bcc     0.0026     1.403     0.501     0.468 -0.1110  0.9917  0.0643
 
              Baa    -0.0086    -1.160    -0.414    -0.387 -0.0123 -0.0763  0.9970
    24 C(13)  Bbb    -0.0011    -0.145    -0.052    -0.048 -0.1906  0.9790  0.0726
              Bcc     0.0097     1.306     0.466     0.436  0.9816  0.1891  0.0266
 
              Baa    -0.0016    -0.865    -0.309    -0.289 -0.0299 -0.0751  0.9967
    25 H(1)   Bbb    -0.0011    -0.594    -0.212    -0.198 -0.2128  0.9748  0.0671
              Bcc     0.0027     1.459     0.521     0.487  0.9766  0.2101  0.0451
 
              Baa    -0.0060    -0.803    -0.286    -0.268 -0.0808 -0.0821  0.9933
    26 C(13)  Bbb    -0.0023    -0.315    -0.112    -0.105  0.9904  0.1053  0.0893
              Bcc     0.0083     1.118     0.399     0.373 -0.1119  0.9911  0.0728
 
              Baa    -0.0016    -0.840    -0.300    -0.280 -0.0105 -0.0535  0.9985
    27 H(1)   Bbb    -0.0013    -0.692    -0.247    -0.231  0.9935  0.1128  0.0165
              Bcc     0.0029     1.532     0.547     0.511 -0.1135  0.9922  0.0519
 
              Baa    -0.0082    -1.099    -0.392    -0.367 -0.0124 -0.0584  0.9982
    28 C(13)  Bbb    -0.0012    -0.162    -0.058    -0.054 -0.2033  0.9776  0.0547
              Bcc     0.0094     1.261     0.450     0.421  0.9790  0.2023  0.0240
 
              Baa    -0.0016    -0.864    -0.308    -0.288  0.0021 -0.0333  0.9994
    29 H(1)   Bbb    -0.0011    -0.591    -0.211    -0.197 -0.1977  0.9797  0.0330
              Bcc     0.0027     1.455     0.519     0.485  0.9803  0.1977  0.0046
 
              Baa    -0.0007    -0.099    -0.035    -0.033 -0.6202  0.7835 -0.0377
    30 C(13)  Bbb    -0.0006    -0.077    -0.028    -0.026 -0.0429  0.0141  0.9990
              Bcc     0.0013     0.176     0.063     0.059  0.7832  0.6212  0.0249
 
              Baa    -0.0006    -0.298    -0.106    -0.099 -0.6951  0.7102 -0.1119
    31 H(1)   Bbb    -0.0005    -0.277    -0.099    -0.093 -0.1130  0.0458  0.9925
              Bcc     0.0011     0.575     0.205     0.192  0.7100  0.7025  0.0484
 
              Baa    -0.0007    -0.370    -0.132    -0.123 -0.0812 -0.2287  0.9701
    32 H(1)   Bbb    -0.0007    -0.358    -0.128    -0.119 -0.5347  0.8314  0.1513
              Bcc     0.0014     0.728     0.260     0.243  0.8411  0.5064  0.1898
 
              Baa    -0.0007    -0.374    -0.133    -0.125  0.2604 -0.2497  0.9327
    33 H(1)   Bbb    -0.0007    -0.366    -0.130    -0.122 -0.4665  0.8132  0.3479
              Bcc     0.0014     0.739     0.264     0.247  0.8453  0.5257 -0.0953
 
              Baa    -0.0007    -0.091    -0.032    -0.030  0.9295 -0.3656 -0.0481
    34 C(13)  Bbb    -0.0006    -0.078    -0.028    -0.026  0.0257 -0.0659  0.9975
              Bcc     0.0013     0.168     0.060     0.056  0.3678  0.9284  0.0519
 
              Baa    -0.0007    -0.377    -0.135    -0.126  0.5416 -0.0616  0.8384
    35 H(1)   Bbb    -0.0007    -0.364    -0.130    -0.121  0.8068 -0.2421 -0.5390
              Bcc     0.0014     0.741     0.264     0.247  0.2361  0.9683 -0.0814
 
              Baa    -0.0007    -0.368    -0.131    -0.123 -0.4831 -0.0576  0.8737
    36 H(1)   Bbb    -0.0007    -0.352    -0.125    -0.117  0.8426 -0.3017  0.4460
              Bcc     0.0013     0.720     0.257     0.240  0.2379  0.9517  0.1942
 
              Baa    -0.0005    -0.290    -0.104    -0.097  0.8971 -0.4354 -0.0746
    37 H(1)   Bbb    -0.0005    -0.273    -0.098    -0.091  0.0461 -0.0757  0.9961
              Bcc     0.0011     0.564     0.201     0.188  0.4394  0.8970  0.0479
 
              Baa    -0.0009    -0.124    -0.044    -0.041  0.1929  0.9537  0.2306
    38 C(13)  Bbb    -0.0006    -0.080    -0.028    -0.027 -0.0598 -0.2231  0.9729
              Bcc     0.0015     0.204     0.073     0.068  0.9794 -0.2015  0.0140
 
              Baa    -0.0009    -0.481    -0.172    -0.160  0.1170  0.1622  0.9798
    39 H(1)   Bbb    -0.0007    -0.371    -0.132    -0.124  0.0390  0.9851 -0.1678
              Bcc     0.0016     0.851     0.304     0.284  0.9924 -0.0578 -0.1089
 
              Baa    -0.0008    -0.431    -0.154    -0.144 -0.2912 -0.6155  0.7323
    40 H(1)   Bbb    -0.0007    -0.366    -0.131    -0.122 -0.0060  0.7667  0.6420
              Bcc     0.0015     0.797     0.284     0.266  0.9566 -0.1826  0.2270
 
              Baa    -0.0008    -0.426    -0.152    -0.142  0.2204  0.3291  0.9182
    41 H(1)   Bbb    -0.0006    -0.340    -0.121    -0.113  0.3085  0.8695 -0.3857
              Bcc     0.0014     0.765     0.273     0.255  0.9253 -0.3683 -0.0901
 
              Baa    -0.0043    -0.583    -0.208    -0.195 -0.5352 -0.2305  0.8127
    42 C(13)  Bbb     0.0008     0.113     0.040     0.038  0.6480  0.5051  0.5700
              Bcc     0.0035     0.471     0.168     0.157 -0.5419  0.8317 -0.1210
 
              Baa    -0.0009    -0.472    -0.168    -0.157 -0.2449 -0.2410  0.9391
    43 H(1)   Bbb    -0.0008    -0.425    -0.152    -0.142  0.8663  0.3806  0.3236
              Bcc     0.0017     0.897     0.320     0.299 -0.4355  0.8928  0.1156
 
              Baa    -0.0044    -0.591    -0.211    -0.197  0.6397  0.4236  0.6414
    44 C(13)  Bbb    -0.0029    -0.389    -0.139    -0.130 -0.3731  0.9007 -0.2228
              Bcc     0.0073     0.980     0.350     0.327 -0.6720 -0.0968  0.7342
 
              Baa    -0.0006    -0.343    -0.122    -0.114 -0.3745 -0.2099  0.9032
    45 H(1)   Bbb    -0.0001    -0.063    -0.022    -0.021  0.3818  0.8528  0.3564
              Bcc     0.0008     0.406     0.145     0.135  0.8450 -0.4783  0.2392
 
              Baa    -0.0008    -0.410    -0.146    -0.137  0.6497  0.2258  0.7259
    46 H(1)   Bbb    -0.0004    -0.200    -0.072    -0.067 -0.6471 -0.3368  0.6839
              Bcc     0.0011     0.610     0.218     0.203 -0.3990  0.9141  0.0727
 
              Baa    -0.0007    -0.091    -0.032    -0.030 -0.6133  0.2689  0.7427
    47 C(13)  Bbb    -0.0006    -0.078    -0.028    -0.026  0.6962 -0.2601  0.6691
              Bcc     0.0013     0.169     0.060     0.056  0.3731  0.9274 -0.0277
 
              Baa    -0.0007    -0.385    -0.138    -0.129 -0.6289  0.0416  0.7764
    48 H(1)   Bbb    -0.0007    -0.362    -0.129    -0.121  0.7461 -0.2486  0.6177
              Bcc     0.0014     0.747     0.267     0.249  0.2187  0.9677  0.1253
 
              Baa    -0.0006    -0.345    -0.123    -0.115  0.5476 -0.0502  0.8352
    49 H(1)   Bbb    -0.0006    -0.323    -0.115    -0.108  0.7840 -0.3181 -0.5331
              Bcc     0.0013     0.668     0.238     0.223  0.2925  0.9467 -0.1348
 
              Baa    -0.0005    -0.285    -0.102    -0.095  0.8448 -0.4400  0.3045
    50 H(1)   Bbb    -0.0005    -0.271    -0.097    -0.090 -0.2939  0.0938  0.9512
              Bcc     0.0010     0.556     0.198     0.185  0.4471  0.8931  0.0500
 
              Baa    -0.0008    -0.105    -0.038    -0.035 -0.6261  0.7115 -0.3190
    51 C(13)  Bbb    -0.0006    -0.074    -0.026    -0.025 -0.2016  0.2475  0.9477
              Bcc     0.0013     0.179     0.064     0.060  0.7532  0.6577 -0.0115
 
              Baa    -0.0007    -0.378    -0.135    -0.126  0.0846 -0.2392  0.9673
    52 H(1)   Bbb    -0.0007    -0.358    -0.128    -0.120 -0.4898  0.8354  0.2494
              Bcc     0.0014     0.737     0.263     0.246  0.8677  0.4949  0.0465
 
              Baa    -0.0007    -0.095    -0.034    -0.032 -0.0575  0.0130  0.9983
    53 C(13)  Bbb    -0.0004    -0.052    -0.019    -0.017  0.7609 -0.6468  0.0523
              Bcc     0.0011     0.148     0.053     0.049  0.6463  0.7626  0.0273
 
              Baa    -0.0005    -0.245    -0.087    -0.082  0.0971  0.1646  0.9816
    54 H(1)   Bbb    -0.0004    -0.228    -0.081    -0.076  0.7831 -0.6213  0.0267
              Bcc     0.0009     0.473     0.169     0.158  0.6142  0.7661 -0.1892
 
              Baa    -0.0003    -0.177    -0.063    -0.059  0.2401 -0.1051  0.9650
    55 H(1)   Bbb    -0.0003    -0.162    -0.058    -0.054 -0.5967  0.7681  0.2321
              Bcc     0.0006     0.339     0.121     0.113  0.7657  0.6316 -0.1217
 
              Baa    -0.0010    -0.130    -0.046    -0.043  0.1840  0.9689  0.1656
    56 C(13)  Bbb    -0.0006    -0.078    -0.028    -0.026  0.0526 -0.1779  0.9826
              Bcc     0.0015     0.207     0.074     0.069  0.9815 -0.1721 -0.0837
 
              Baa    -0.0009    -0.473    -0.169    -0.158 -0.1995 -0.4583  0.8661
    57 H(1)   Bbb    -0.0007    -0.373    -0.133    -0.125 -0.0002  0.8839  0.4677
              Bcc     0.0016     0.847     0.302     0.282  0.9799 -0.0931  0.1765
 
              Baa    -0.0009    -0.471    -0.168    -0.157  0.2094  0.4545  0.8658
    58 H(1)   Bbb    -0.0007    -0.365    -0.130    -0.122 -0.0192  0.8872 -0.4610
              Bcc     0.0016     0.835     0.298     0.279  0.9776 -0.0799 -0.1946
 
              Baa    -0.0008    -0.410    -0.146    -0.137  0.3604  0.8978  0.2530
    59 H(1)   Bbb    -0.0007    -0.386    -0.138    -0.129 -0.0709 -0.2441  0.9672
              Bcc     0.0015     0.796     0.284     0.265  0.9301 -0.3665 -0.0243
 
              Baa    -0.0008    -0.112    -0.040    -0.037  0.8691  0.4894  0.0716
    60 C(13)  Bbb    -0.0005    -0.069    -0.025    -0.023 -0.0508 -0.0556  0.9972
              Bcc     0.0013     0.181     0.065     0.060 -0.4920  0.8703  0.0235
 
              Baa    -0.0009    -0.457    -0.163    -0.152  0.3437  0.2426  0.9072
    61 H(1)   Bbb    -0.0007    -0.365    -0.130    -0.122  0.8498  0.3308 -0.4105
              Bcc     0.0015     0.821     0.293     0.274 -0.3997  0.9120 -0.0925
 
              Baa    -0.0008    -0.405    -0.144    -0.135  0.7712  0.6185  0.1507
    62 H(1)   Bbb    -0.0007    -0.379    -0.135    -0.126 -0.0702 -0.1526  0.9858
              Bcc     0.0015     0.784     0.280     0.261 -0.6327  0.7708  0.0742
 
              Baa    -0.0009    -0.467    -0.167    -0.156 -0.3259 -0.4033  0.8551
    63 H(1)   Bbb    -0.0007    -0.373    -0.133    -0.125  0.8570  0.2558  0.4473
              Bcc     0.0016     0.840     0.300     0.280 -0.3991  0.8786  0.2623
 
              Baa    -0.0159     1.153     0.411     0.385  0.4741  0.8634  0.1728
    64 O(17)  Bbb     0.0004    -0.029    -0.010    -0.010 -0.0369 -0.1766  0.9836
              Bcc     0.0155    -1.124    -0.401    -0.375  0.8797 -0.4727 -0.0519
 
              Baa    -0.0074    -3.951    -1.410    -1.318  0.4186  0.7430  0.5222
    65 H(1)   Bbb    -0.0068    -3.609    -1.288    -1.204  0.8710 -0.4914  0.0009
              Bcc     0.0142     7.560     2.698     2.522 -0.2572 -0.4544  0.8528
 
              Baa    -0.0070    -3.745    -1.336    -1.249  0.4450  0.8890 -0.1081
    66 H(1)   Bbb    -0.0056    -2.971    -1.060    -0.991  0.8950 -0.4457  0.0191
              Bcc     0.0126     6.715     2.396     2.240  0.0312  0.1053  0.9940
 
              Baa    -0.0006    -0.083    -0.030    -0.028  0.8847  0.4037 -0.2332
    67 C(13)  Bbb    -0.0005    -0.071    -0.025    -0.024 -0.4163  0.9092 -0.0052
              Bcc     0.0011     0.154     0.055     0.051  0.2099  0.1017  0.9724
 
              Baa    -0.0006    -0.333    -0.119    -0.111 -0.0336  0.9930 -0.1135
    68 H(1)   Bbb    -0.0006    -0.304    -0.108    -0.101  0.9890  0.0167 -0.1468
              Bcc     0.0012     0.637     0.227     0.213  0.1439  0.1172  0.9826
 
              Baa    -0.0008    -0.403    -0.144    -0.134  0.7440  0.5872 -0.3188
    69 H(1)   Bbb    -0.0007    -0.375    -0.134    -0.125 -0.5580  0.8085  0.1868
              Bcc     0.0015     0.778     0.278     0.259  0.3674  0.0389  0.9292
 
              Baa    -0.0007    -0.357    -0.127    -0.119  0.2860  0.9536  0.0942
    70 H(1)   Bbb    -0.0006    -0.299    -0.107    -0.100  0.9397 -0.2599 -0.2224
              Bcc     0.0012     0.656     0.234     0.219  0.1876 -0.1521  0.9704
 
              Baa    -0.0044    -0.170    -0.061    -0.057  0.9409  0.1779  0.2883
    71 N(14)  Bbb    -0.0003    -0.011    -0.004    -0.004 -0.2337 -0.2752  0.9326
              Bcc     0.0047     0.181     0.065     0.060 -0.2452  0.9448  0.2173
 
              Baa    -0.0013    -0.693    -0.247    -0.231  0.8868  0.3071  0.3453
    72 H(1)   Bbb    -0.0011    -0.585    -0.209    -0.195 -0.3228  0.9464 -0.0125
              Bcc     0.0024     1.278     0.456     0.426 -0.3306 -0.1004  0.9384
 
              Baa    -0.0030    -0.409    -0.146    -0.136  0.5430  0.7576 -0.3623
    73 C(13)  Bbb    -0.0002    -0.021    -0.007    -0.007  0.8256 -0.5605  0.0653
              Bcc     0.0032     0.429     0.153     0.143  0.1536  0.3346  0.9298
 
              Baa    -0.0106    -1.422    -0.508    -0.474  0.8991  0.1359  0.4162
    74 C(13)  Bbb     0.0024     0.327     0.117     0.109 -0.3696  0.7452  0.5551
              Bcc     0.0082     1.095     0.391     0.365 -0.2347 -0.6529  0.7202
 
              Baa    -0.0043    -2.290    -0.817    -0.764  0.1913  0.8787  0.4374
    75 H(1)   Bbb    -0.0036    -1.921    -0.686    -0.641  0.7005 -0.4344  0.5663
              Bcc     0.0079     4.211     1.503     1.405 -0.6876 -0.1981  0.6986
 
              Baa    -0.0171    -0.660    -0.236    -0.220  0.1329  0.4528  0.8816
    76 N(14)  Bbb     0.0065     0.252     0.090     0.084  0.0836  0.8812 -0.4652
              Bcc     0.0106     0.409     0.146     0.136  0.9876 -0.1355 -0.0793
 
              Baa    -0.0064    -0.861    -0.307    -0.287  0.9101 -0.4125 -0.0395
    77 C(13)  Bbb    -0.0032    -0.436    -0.155    -0.145  0.3753  0.8609 -0.3434
              Bcc     0.0097     1.297     0.463     0.433  0.1756  0.2977  0.9384
 
              Baa    -0.0048    -2.578    -0.920    -0.860  0.7077  0.4209 -0.5675
    78 H(1)   Bbb    -0.0044    -2.337    -0.834    -0.780 -0.3890  0.9026  0.1843
              Bcc     0.0092     4.915     1.754     1.640  0.5898  0.0903  0.8025
 

 ---------------------------------------------------------------------------------

 Unable to Open any file for archive entry.
 1\1\GINC-BGN1038\SP\UAPFD\Gen\C34H36Fe1N6O1(1+,2)\BEBJONES\26-Oct-2024
 \0\\# apfd/gen scf=maxcycle=999 geom=check\\1co9_III_D\\1,2\Fe,0,35.26
 17239628,4.0217792159,10.2108455857\N,0,37.1676456805,3.7690236227,9.6
 998637579\N,0,35.0169581715,5.3273821765,8.705980578\N,0,33.3462865535
 ,4.3519448183,10.7771629548\N,0,35.501904212,2.8001212012,11.774032713
 4\C,0,38.0669264981,2.9436434561,10.2951426365\C,0,39.3066654675,2.915
 434877,9.5502085294\C,0,39.1448028806,3.7728352741,8.5069943825\C,0,37
 .8033585959,4.3022308465,8.6225756327\C,0,35.9475243407,5.667876582,7.
 7723525503\C,0,35.396752564,6.5848598211,6.8068638106\C,0,34.089711307
 6,6.7802241277,7.1656804316\C,0,33.8808259105,5.9860588184,8.361462113
 2\C,0,32.4754855588,5.2464275575,10.2307399922\C,0,31.2836287274,5.362
 1779845,11.0279696574\C,0,31.4766447468,4.5621340549,12.1241801667\C,0
 ,32.772879248,3.940060145,11.9393162106\C,0,34.5881070845,2.494852132,
 12.7314530419\C,0,35.1567768158,1.6023036057,13.7188727318\C,0,36.4468
 643296,1.3951528806,13.3449128266\C,0,36.6387504749,2.1400531943,12.11
 88067653\C,0,37.8403077281,2.2023811216,11.4404752361\H,0,38.660398330
 4,1.6138644896,11.8228636084\C,0,37.2509515663,5.2010322775,7.73129476
 36\H,0,37.8840906938,5.5601721233,6.9339551953\C,0,32.6936314265,5.961
 0249483,9.0653911615\H,0,31.892197194,6.592084476,8.7127390416\C,0,33.
 3087742577,3.0095351631,12.811993639\H,0,32.7132949479,2.7215250462,13
 .6647632095\C,0,40.1030079684,4.1364024226,7.4243117098\H,0,41.0477770
 797,3.6138182346,7.5524234546\H,0,40.300833889,5.2084691398,7.43227708
 91\H,0,39.6973853906,3.8758191072,6.4460276762\C,0,40.4922659057,2.091
 7316284,9.920669455\H,0,40.2296761643,1.0340759297,9.950162354\H,0,40.
 8626999368,2.3748733,10.906261524\H,0,41.2971257199,2.225291409,9.2018
 697657\C,0,36.1177882214,7.1186135276,5.617981496\H,0,36.773769019,6.3
 620814547,5.1895139883\H,0,36.7303243921,7.9799742197,5.8893646306\H,0
 ,35.4041857828,7.4310944787,4.858182244\C,0,33.0743471615,7.5851628989
 ,6.52335827\H,0,32.0638899816,7.1969135811,6.5830464665\C,0,33.2853874
 995,8.7348107754,5.8904545482\H,0,34.2582096348,9.1919973271,5.8419178
 733\H,0,32.4804737134,9.2754508194,5.420462255\C,0,30.0899463458,6.178
 550228,10.6741447765\H,0,29.8910668669,6.1240670114,9.6048383901\H,0,3
 0.2404336026,7.2275338685,10.9353864186\H,0,29.216268333,5.8129117549,
 11.2098874978\C,0,30.5968970584,4.3245747936,13.2469841924\H,0,30.6377
 899251,3.3293801398,13.6745324311\C,0,29.773565407,5.2189938579,13.784
 5665353\H,0,29.7240020491,6.2358540605,13.4362123228\H,0,29.134986115,
 4.9685494109,14.6154721771\C,0,34.4190574978,1.0781796497,14.903136592
 7\H,0,33.5254973049,0.5377536937,14.5901219242\H,0,34.1084773485,1.895
 5266466,15.5549254953\H,0,35.0443963685,0.4007670085,15.4795335752\C,0
 ,37.5022574667,0.5758584354,14.005329898\H,0,37.8587797503,-0.20500237
 31,13.3331416135\H,0,37.1186753007,0.1036795194,14.9065117646\H,0,38.3
 535889232,1.1987536742,14.2808942838\O,0,35.769,5.771,11.569\H,0,34.93
 6,6.16,11.836\H,0,36.578,6.027,11.835\C,0,32.7780990023,-0.4880608317,
 8.1019126823\H,0,32.1028850739,-0.3498665804,7.2574027219\H,0,32.18671
 14881,-0.6600096937,8.9958800189\H,0,33.3867936761,-1.3720483164,7.910
 4653441\N,0,34.4718883393,1.1811444239,7.3182330122\H,0,34.5891040758,
 0.7821588583,6.4014157627\C,0,33.6335034369,0.7102396207,8.2947297036\
 C,0,35.1005544047,2.2733932673,7.8096007155\H,0,35.8169145608,2.850544
 8997,7.2618447814\N,0,34.7117914248,2.5213273537,9.0369011301\C,0,33.7
 997759462,1.5570844427,9.3526565589\H,0,33.3282040663,1.5407166457,10.
 3131055353\\Version=ES64L-G16RevC.02\State=2-A\HF=-2983.2089973\S2=0.8
 07608\S2-1=0.\S2A=0.750966\RMSD=5.368e-09\Dipole=0.1412241,-1.0693978,
 -0.8826837\Quadrupole=-2.190447,-2.2211746,4.4116216,-3.9690164,-4.737
 9124,-2.0982951\PG=C01 [X(C34H36Fe1N6O1)]\\@
 The archive entry for this job was punched.


 I DON'T PRETEND TO UNDERSTAND THE UNIVERSE --
 IT'S A GREAT DEAL BIGGER THAN I AM.
       -- ATTR. TO WILLIAM ALLINGHAM (1828-89)
 Job cpu time:       0 days  5 hours 32 minutes 19.4 seconds.
 Elapsed time:       0 days  0 hours  5 minutes 39.3 seconds.
 File lengths (MBytes):  RWF=    430 Int=      0 D2E=      0 Chk=    155 Scr=      1
 Normal termination of Gaussian 16 at Sat Oct 26 15:02:48 2024.
