 Entering Gaussian System, Link 0=g16
 Input=1cpt12.com
 Output=1cpt12.log
 Initial command:
 /sw/chem/gaussian/g16_C02/a100/g16/l1.exe "/local/bebjones_7797073/Gau-489556.inp" -scrdir="/local/bebjones_7797073/"
 Entering Link 1 = /sw/chem/gaussian/g16_C02/a100/g16/l1.exe PID=    489557.
  
 Copyright (c) 1988-2021, Gaussian, Inc.  All Rights Reserved.
  
 This is part of the Gaussian(R) 16 program.  It is based on
 the Gaussian(R) 09 system (copyright 2009, Gaussian, Inc.),
 the Gaussian(R) 03 system (copyright 2003, Gaussian, Inc.),
 the Gaussian(R) 98 system (copyright 1998, Gaussian, Inc.),
 the Gaussian(R) 94 system (copyright 1995, Gaussian, Inc.),
 the Gaussian 92(TM) system (copyright 1992, Gaussian, Inc.),
 the Gaussian 90(TM) system (copyright 1990, Gaussian, Inc.),
 the Gaussian 88(TM) system (copyright 1988, Gaussian, Inc.),
 the Gaussian 86(TM) system (copyright 1986, Carnegie Mellon
 University), and the Gaussian 82(TM) system (copyright 1983,
 Carnegie Mellon University). Gaussian is a federally registered
 trademark of Gaussian, Inc.
  
 This software contains proprietary and confidential information,
 including trade secrets, belonging to Gaussian, Inc.
  
 This software is provided under written license and may be
 used, copied, transmitted, or stored only in accord with that
 written license.
  
 The following legend is applicable only to US Government
 contracts under FAR:
  
                    RESTRICTED RIGHTS LEGEND
  
 Use, reproduction and disclosure by the US Government is
 subject to restrictions as set forth in subparagraphs (a)
 and (c) of the Commercial Computer Software - Restricted
 Rights clause in FAR 52.227-19.
  
 Gaussian, Inc.
 340 Quinnipiac St., Bldg. 40, Wallingford CT 06492
  
  
 ---------------------------------------------------------------
 Warning -- This program may not be used in any manner that
 competes with the business of Gaussian, Inc. or will provide
 assistance to any competitor of Gaussian, Inc.  The licensee
 of this program is prohibited from giving any competitor of
 Gaussian, Inc. access to this program.  By using this program,
 the user acknowledges that Gaussian, Inc. is engaged in the
 business of creating and licensing software in the field of
 computational chemistry and represents and warrants to the
 licensee that it is not a competitor of Gaussian, Inc. and that
 it will not use this program in any manner prohibited above.
 ---------------------------------------------------------------
  

 Cite this work as:
 Gaussian 16, Revision C.02,
 M. J. Frisch, G. W. Trucks, H. B. Schlegel, G. E. Scuseria, 
 M. A. Robb, J. R. Cheeseman, G. Scalmani, V. Barone, 
 G. A. Petersson, H. Nakatsuji, X. Li, M. Caricato, A. V. Marenich, 
 J. Bloino, B. G. Janesko, R. Gomperts, B. Mennucci, H. P. Hratchian, 
 J. V. Ortiz, A. F. Izmaylov, J. L. Sonnenberg, D. Williams-Young, 
 F. Ding, F. Lipparini, F. Egidi, J. Goings, B. Peng, A. Petrone, 
 T. Henderson, D. Ranasinghe, V. G. Zakrzewski, J. Gao, N. Rega, 
 G. Zheng, W. Liang, M. Hada, M. Ehara, K. Toyota, R. Fukuda, 
 J. Hasegawa, M. Ishida, T. Nakajima, Y. Honda, O. Kitao, H. Nakai, 
 T. Vreven, K. Throssell, J. A. Montgomery, Jr., J. E. Peralta, 
 F. Ogliaro, M. J. Bearpark, J. J. Heyd, E. N. Brothers, K. N. Kudin, 
 V. N. Staroverov, T. A. Keith, R. Kobayashi, J. Normand, 
 K. Raghavachari, A. P. Rendell, J. C. Burant, S. S. Iyengar, 
 J. Tomasi, M. Cossi, J. M. Millam, M. Klene, C. Adamo, R. Cammi, 
 J. W. Ochterski, R. L. Martin, K. Morokuma, O. Farkas, 
 J. B. Foresman, and D. J. Fox, Gaussian, Inc., Wallingford CT, 2019.
 
 ******************************************
 Gaussian 16:  ES64L-G16RevC.02  7-Dec-2021
                30-Mar-2024 
 ******************************************
 %mem=16GB
 %CPU=0-71
 SetSPE:  set environment variable "OMP_PROC_BIND" = "true"
 SetSPE:  set environment variable "OMP_PLACES" = "{0},{1},{2},{3},{4},{5},{6},{7},{8},{9},{10},{11},{12},{13},{14},{15},{16},{17},{18},{19},{20},{21},{22},{23},{24},{25},{26},{27},{28},{29},{30},{31},{32},{33},{34},{35},{36},{37},{38},{39},{40},{41},{42},{43},{44},{45},{46},{47},{48},{49},{50},{51},{52},{53},{54},{55},{56},{57},{58},{59},{60},{61},{62},{63},{64},{65},{66},{67},{68},{69},{70},{71}"
 Will use up to   72 processors via shared memory.
 %gpucpu=0,1,2,3=0,1,2,3
 Will use    4 GPUs:
 Thread  CPU   GPU
      0    0     0
      1    1     1
      2    2     2
      3    3     3
      4    4    -1
      5    5    -1
      6    6    -1
      7    7    -1
      8    8    -1
      9    9    -1
     10   10    -1
     11   11    -1
     12   12    -1
     13   13    -1
     14   14    -1
     15   15    -1
     16   16    -1
     17   17    -1
     18   18    -1
     19   19    -1
     20   20    -1
     21   21    -1
     22   22    -1
     23   23    -1
     24   24    -1
     25   25    -1
     26   26    -1
     27   27    -1
     28   28    -1
     29   29    -1
     30   30    -1
     31   31    -1
     32   32    -1
     33   33    -1
     34   34    -1
     35   35    -1
     36   36    -1
     37   37    -1
     38   38    -1
     39   39    -1
     40   40    -1
     41   41    -1
     42   42    -1
     43   43    -1
     44   44    -1
     45   45    -1
     46   46    -1
     47   47    -1
     48   48    -1
     49   49    -1
     50   50    -1
     51   51    -1
     52   52    -1
     53   53    -1
     54   54    -1
     55   55    -1
     56   56    -1
     57   57    -1
     58   58    -1
     59   59    -1
     60   60    -1
     61   61    -1
     62   62    -1
     63   63    -1
     64   64    -1
     65   65    -1
     66   66    -1
     67   67    -1
     68   68    -1
     69   69    -1
     70   70    -1
     71   71    -1
 SetGPE:  set environment variable "OMP_PROC_BIND" = "true"
 SetGPE:  set environment variable "OMP_PLACES" = "{0},{1},{2},{3},{4},{5},{6},{7},{8},{9},{10},{11},{12},{13},{14},{15},{16},{17},{18},{19},{20},{21},{22},{23},{24},{25},{26},{27},{28},{29},{30},{31},{32},{33},{34},{35},{36},{37},{38},{39},{40},{41},{42},{43},{44},{45},{46},{47},{48},{49},{50},{51},{52},{53},{54},{55},{56},{57},{58},{59},{60},{61},{62},{63},{64},{65},{66},{67},{68},{69},{70},{71}"
 %oldchk=1cpt_II_S.chk
 %chk=1cpt_III_Dn.chk
 Properties for Device   0
 Minimum vector length:                              32
 Maximum vector length:                            1024
 Number of SMPs:                                    108
 Maximum number of threads per SMP:                2048
 Number of ASync Engines:                             5
 Memory:                                           9192980480
 Properties for Device   1
 Minimum vector length:                              32
 Maximum vector length:                            1024
 Number of SMPs:                                    108
 Maximum number of threads per SMP:                2048
 Number of ASync Engines:                             5
 Memory:                                           9192980480
 Properties for Device   2
 Minimum vector length:                              32
 Maximum vector length:                            1024
 Number of SMPs:                                    108
 Maximum number of threads per SMP:                2048
 Number of ASync Engines:                             5
 Memory:                                           9192980480
 Properties for Device   3
 Minimum vector length:                              32
 Maximum vector length:                            1024
 Number of SMPs:                                    108
 Maximum number of threads per SMP:                2048
 Number of ASync Engines:                             5
 Memory:                                           9192980480
   8273682432 words of memory will be used on each GPU.
 Copying data from "1cpt_II_S.chk" to current chk file "1cpt_III_Dn.chk"
 IOpt=  2 FromEx=T IUOpen= 4 IOptOp= 5 NList=   0 IFRang= 0 IUIn= 4 IUOut= 2.
 ---------------------------------------------------
 # apfd/def2TZVP scf=maxcycle=999 geom=check pop=nbo
 ---------------------------------------------------
 1/29=2,38=1,172=1/1;
 2/12=2,40=1/2;
 3/5=44,7=101,11=2,14=-4,25=1,30=1,74=-44/1,2,3;
 4//1;
 5/5=2,7=999,38=5/2;
 6/7=2,8=2,9=2,10=2,28=1,40=1/1,7;
 99/5=1,9=1/99;
 ----------
 1cpt_III_D
 ----------
 Structure from the checkpoint file:  "1cpt_III_Dn.chk"
 Charge =  1 Multiplicity = 2
 Z-Matrix found in chk file.
 Fe,0,36.6423505258,12.9319131961,86.9431684154
 N,0,34.6984832807,12.9856128212,87.440777613
 N,0,36.1938165873,13.7242294488,85.1570316289
 N,0,38.5795010368,12.9385548417,86.4570974307
 N,0,37.1013736667,12.3050862065,88.7806544037
 C,0,34.1619614972,12.6915231933,88.6560800936
 C,0,32.7304483427,12.8917652778,88.6433569184
 C,0,32.4141006067,13.3113250838,87.3883949947
 C,0,33.6601456058,13.390657822,86.6604557794
 C,0,34.9599312472,14.0568049951,84.6907003018
 C,0,35.0448141311,14.5715729118,83.3420769685
 C,0,36.3666981428,14.5899091655,83.0237187541
 C,0,37.0683841343,14.0577996689,84.1710307868
 C,0,39.1383399495,13.4036860835,85.311883608
 C,0,40.5664251323,13.1583838283,85.3013205776
 C,0,40.8484719012,12.5226780698,86.4812462821
 C,0,39.6002219044,12.4189916754,87.1926655976
 C,0,38.3210023004,11.9075986401,89.2209902202
 C,0,38.2506221878,11.469497383,90.6024194054
 C,0,36.9387402249,11.5939207236,90.9702475592
 C,0,36.2438308955,12.111600513,89.8177051122
 C,0,34.8739077273,12.2961808829,89.7709857699
 H,0,34.3124621512,12.0953144085,90.6701111174
 C,0,33.7748447834,13.9231804248,85.3895649172
 H,0,32.8674929222,14.2361395186,84.8969088284
 C,0,38.4422799331,13.9371614091,84.2425976974
 H,0,39.0127788239,14.2564958615,83.3843769941
 C,0,39.4841385453,11.9243680926,88.4789528629
 H,0,40.3762040536,11.5337749319,88.9430320759
 C,0,31.8380948552,12.6525212163,89.8121215943
 H,0,32.1132998401,13.3015431608,90.6439289809
 H,0,31.9175157589,11.6190907658,90.1497841639
 H,0,30.8008748599,12.8506571033,89.5535881036
 C,0,31.0843666334,13.6667932758,86.8177495935
 H,0,30.8895526063,13.0907566998,85.9131779621
 H,0,31.0472866277,14.7255155933,86.5585347907
 H,0,30.2905379624,13.4628220877,87.5319255061
 C,0,36.3213558129,11.3470914402,92.3019946953
 H,0,35.5771780481,12.108885792,92.5299786279
 H,0,37.0860686853,11.3637646002,93.0759682082
 H,0,35.827903484,10.3742488354,92.3269664346
 C,0,39.3817182462,11.0184692685,91.3831537184
 H,0,40.3273128388,11.4967111875,91.155612633
 C,0,39.3422304289,10.0845675259,92.3275701214
 H,0,38.4417974199,9.5437781848,92.5607050929
 H,0,40.2230128539,9.8072977292,92.8825867363
 C,0,42.1731545861,12.0914707178,87.0048409734
 H,0,42.3086637957,11.0166215484,86.8751684102
 H,0,42.260712458,12.3153121788,88.0668039179
 H,0,42.9708720975,12.6066257923,86.4738559259
 C,0,41.4582499524,13.5442722692,84.2297646598
 H,0,41.2061158173,14.4682196068,83.7218280898
 C,0,42.5264612467,12.8605823096,83.8332552665
 H,0,42.7945313412,11.9141174233,84.2693730484
 H,0,43.1571660694,13.2142827289,83.0346188926
 C,0,37.0297734454,15.0343562403,81.7660141209
 H,0,36.2937745863,15.3584609642,81.0343817334
 H,0,37.613367718,14.2226202474,81.3312454717
 H,0,37.7050224952,15.8670825582,81.9642520609
 C,0,33.8708484791,15.0047224791,82.5331676992
 H,0,34.1821549871,15.3251441498,81.5421272264
 H,0,33.3579471461,15.8366623677,83.0166571296
 H,0,33.1577657645,14.1875044997,82.4215057287
 O,0,36.73,15.02,87.729
 H,0,35.833,15.194,88.014
 H,0,37.419,15.578,87.791
 C,0,34.8813497139,10.5252032915,85.3026617161
 H,0,34.9034557454,9.6397385201,84.6750504472
 H,0,34.6565529151,11.4151829208,84.7253289622
 H,0,34.1486959715,10.4057650781,86.0936702273
 S,0,36.5038522484,10.7197417917,86.1209259235
 H,0,37.18876632,10.9029367851,84.9860351447
 Recover connectivity data from disk.
 Stoichiometry    C31H34FeN4OS(1+,2)
 Framework group  C1[X(C31H34FeN4OS)]
 Deg. of freedom   210
 Full point group                 C1      NOp   1
 Largest Abelian subgroup         C1      NOp   1
 Largest concise Abelian subgroup C1      NOp   1
                         Standard orientation:                         
 ---------------------------------------------------------------------
 Center     Atomic      Atomic             Coordinates (Angstroms)
 Number     Number       Type             X           Y           Z
 ---------------------------------------------------------------------
      1         26           0        0.140092   -0.020300   -0.106821
      2          7           0        1.724206   -1.252953   -0.090395
      3          7           0        1.380907    1.552472   -0.184266
      4          7           0       -1.427168    1.215341   -0.182631
      5          7           0       -1.087588   -1.589895   -0.202440
      6          6           0        1.698127   -2.611328   -0.164164
      7          6           0        3.040570   -3.147292   -0.173053
      8          6           0        3.879490   -2.078728   -0.099430
      9          6           0        3.038972   -0.903209   -0.077042
     10          6           0        2.741039    1.528338   -0.186347
     11          6           0        3.276071    2.871355   -0.218320
     12          6           0        2.205233    3.706573   -0.287456
     13          6           0        1.030274    2.863453   -0.266236
     14          6           0       -1.403946    2.567013   -0.294906
     15          6           0       -2.746112    3.109962   -0.235663
     16          6           0       -3.580790    2.035548   -0.078042
     17          6           0       -2.738393    0.867076   -0.071835
     18          6           0       -2.441643   -1.566167   -0.129256
     19          6           0       -2.982504   -2.911511   -0.181693
     20          6           0       -1.903049   -3.748087   -0.263724
     21          6           0       -0.735887   -2.901368   -0.270530
     22          6           0        0.559447   -3.386092   -0.260724
     23          1           0        0.692338   -4.455584   -0.310944
     24          6           0        3.523680    0.389380   -0.155609
     25          1           0        4.594538    0.519747   -0.170032
     26          6           0       -0.261708    3.345018   -0.344603
     27          1           0       -0.388074    4.413827   -0.419869
     28          6           0       -3.217990   -0.429533   -0.033678
     29          1           0       -4.284072   -0.561830    0.064714
     30          6           0        3.365002   -4.599853   -0.239018
     31          1           0        2.979673   -5.037402   -1.160400
     32          1           0        2.916346   -5.131292    0.600376
     33          1           0        4.440282   -4.757537   -0.210190
     34          6           0        5.368979   -2.046317   -0.075785
     35          1           0        5.726151   -1.492691    0.792516
     36          1           0        5.757650   -1.558704   -0.970564
     37          1           0        5.776592   -3.053172   -0.032075
     38          6           0       -1.886428   -5.229158   -0.411346
     39          1           0       -1.109787   -5.539148   -1.109086
     40          1           0       -2.848193   -5.577331   -0.782672
     41          1           0       -1.692331   -5.712807    0.547273
     42          6           0       -4.392287   -3.234829   -0.163546
     43          1           0       -5.043135   -2.515487   -0.646850
     44          6           0       -4.926980   -4.317422    0.391205
     45          1           0       -4.334277   -5.039124    0.925466
     46          1           0       -5.987461   -4.503765    0.354368
     47          6           0       -5.067615    2.022050   -0.014446
     48          1           0       -5.409327    1.909501    1.015624
     49          1           0       -5.471991    1.194264   -0.594780
     50          1           0       -5.467362    2.952933   -0.411109
     51          6           0       -3.068617    4.516274   -0.339438
     52          1           0       -2.430559    5.094671   -0.997913
     53          6           0       -4.057050    5.128978    0.303462
     54          1           0       -4.689259    4.613782    1.005417
     55          1           0       -4.250462    6.180223    0.168595
     56          6           0        2.169886    5.194267   -0.354842
     57          1           0        3.175044    5.607075   -0.319203
     58          1           0        1.599581    5.603659    0.479228
     59          1           0        1.697382    5.523252   -1.280694
     60          6           0        4.730114    3.196519   -0.205020
     61          1           0        4.884929    4.272519   -0.204733
     62          1           0        5.224324    2.779683   -1.083062
     63          1           0        5.209444    2.780495    0.681528
     64          8           0        0.296570   -0.118836   -2.331934
     65          1           0        1.044660   -0.696632   -2.482342
     66          1           0       -0.207489    0.262257   -2.956931
     67          6           0        1.717244    0.036766    2.908801
     68          1           0        1.703168    0.359285    3.945245
     69          1           0        2.347184    0.678028    2.302278
     70          1           0        2.063178   -0.989078    2.840143
     71         16           0        0.011698    0.056032    2.252555
     72          1           0       -0.152092    1.377557    2.384425
 ---------------------------------------------------------------------
 Rotational constants (GHZ):           0.1080170           0.1078435           0.0595238
 Standard basis: def2TZVP (5D, 7F)
 There are  1594 symmetry adapted cartesian basis functions of A   symmetry.
 There are  1402 symmetry adapted basis functions of A   symmetry.
  1402 basis functions,  2279 primitive gaussians,  1594 cartesian basis functions
   149 alpha electrons      148 beta electrons
       nuclear repulsion energy      5410.0579497815 Hartrees.
 NAtoms=   72 NActive=   72 NUniq=   72 SFac= 1.00D+00 NAtFMM=   60 NAOKFM=T Big=T
 Integral buffers will be    131072 words long.
 Raffenetti 2 integral format.
 Two-electron integral symmetry is turned on.
 R6APFD:  NTU= -4 IXU= 1 FactS= 1.050
 Nuclear repulsion after empirical dispersion term =     5409.9057920216 Hartrees.
 One-electron integrals computed using PRISM.
   1 Symmetry operations used in ECPInt.
 ECPInt:  NShTT=  157080 NPrTT=  488567 LenC2=  124624 LenP2D=  258509.
 LDataN:  DoStor=T MaxTD1= 6 Len=  172
 Number of processors reduced to  25 by ecpmxn.
 NBasis=  1402 RedAO= T EigKep=  3.57D-06  NBF=  1402
 NBsUse=  1402 1.00D-06 EigRej= -1.00D+00 NBFU=  1402
 ExpMin= 4.20D-02 ExpMax= 3.01D+05 ExpMxC= 2.91D+03 IAcc=3 IRadAn=         5 AccDes= 0.00D+00
 Harris functional with IExCor= 3731 and IRadAn=       5 diagonalized for initial guess.
 HarFok:  IExCor= 3731 AccDes= 0.00D+00 IRadAn=         5 IDoV= 1 UseB2=F ITyADJ=14
 ICtDFT=  3500011 ScaDFX=  1.000000  1.000000  1.000000  1.000000
 FoFCou: FMM=F IPFlag=           0 FMFlag=      100000 FMFlg1=        2001
         NFxFlg=           0 DoJE=T BraDBF=F KetDBF=T FulRan=T
         wScrn=  0.000000 ICntrl=       500 IOpCl=  0 I1Cent=   200000004 NGrid=           0
         NMat0=    1 NMatS0=      1 NMatT0=    0 NMatD0=    1 NMtDS0=    0 NMtDT0=    0
 Petite list used in FoFCou.
 Initial guess <Sx>= 0.0000 <Sy>= 0.0000 <Sz>= 0.5000 <S**2>= 0.7500 S= 0.5000
 Requested convergence on RMS density matrix=1.00D-08 within 999 cycles.
 Requested convergence on MAX density matrix=1.00D-06.
 Requested convergence on             energy=1.00D-06.
 No special actions if energy rises.
 EnCoef did     3 forward-backward iterations
 EnCoef did   100 forward-backward iterations
 EnCoef did   100 forward-backward iterations
 EnCoef did   100 forward-backward iterations
 EnCoef did     1 forward-backward iterations
 EnCoef did     3 forward-backward iterations
 Rare condition: small coef for last iteration:  0.000D+00
 Restarting incremental Fock formation.
 Rare condition: small coef for last iteration:  0.000D+00
 Restarting incremental Fock formation.
 Restarting incremental Fock formation.
 Restarting incremental Fock formation.
 Restarting incremental Fock formation.
 SCF Done:  E(UAPFD) =  -3156.99160337     A.U. after  114 cycles
            NFock=114  Conv=0.22D-08     -V/T= 2.0031
 <Sx>= 0.0000 <Sy>= 0.0000 <Sz>= 0.5000 <S**2>= 0.8158 S= 0.5324
 <L.S>=  0.00000000000    
 Annihilation of the first spin contaminant:
 S**2 before annihilation     0.8158,   after     0.7512

 **********************************************************************

            Population analysis using the SCF Density.

 **********************************************************************

 Orbital symmetries:
 Alpha Orbitals:
       Occupied  (A) (A) (A) (A) (A) (A) (A) (A) (A) (A) (A) (A)
                 (A) (A) (A) (A) (A) (A) (A) (A) (A) (A) (A) (A)
                 (A) (A) (A) (A) (A) (A) (A) (A) (A) (A) (A) (A)
                 (A) (A) (A) (A) (A) (A) (A) (A) (A) (A) (A) (A)
                 (A) (A) (A) (A) (A) (A) (A) (A) (A) (A) (A) (A)
                 (A) (A) (A) (A) (A) (A) (A) (A) (A) (A) (A) (A)
                 (A) (A) (A) (A) (A) (A) (A) (A) (A) (A) (A) (A)
                 (A) (A) (A) (A) (A) (A) (A) (A) (A) (A) (A) (A)
                 (A) (A) (A) (A) (A) (A) (A) (A) (A) (A) (A) (A)
                 (A) (A) (A) (A) (A) (A) (A) (A) (A) (A) (A) (A)
                 (A) (A) (A) (A) (A) (A) (A) (A) (A) (A) (A) (A)
                 (A) (A) (A) (A) (A) (A) (A) (A) (A) (A) (A) (A)
                 (A) (A) (A) (A) (A)
       Virtual   (A) (A) (A) (A) (A) (A) (A) (A) (A) (A) (A) (A)
                 (A) (A) (A) (A) (A) (A) (A) (A) (A) (A) (A) (A)
                 (A) (A) (A) (A) (A) (A) (A) (A) (A) (A) (A) (A)
                 (A) (A) (A) (A) (A) (A) (A) (A) (A) (A) (A) (A)
                 (A) (A) (A) (A) (A) (A) (A) (A) (A) (A) (A) (A)
                 (A) (A) (A) (A) (A) (A) (A) (A) (A) (A) (A) (A)
                 (A) (A) (A) (A) (A) (A) (A) (A) (A) (A) (A) (A)
                 (A) (A) (A) (A) (A) (A) (A) (A) (A) (A) (A) (A)
                 (A) (A) (A) (A) (A) (A) (A) (A) (A) (A) (A) (A)
                 (A) (A) (A) (A) (A) (A) (A) (A) (A) (A) (A) (A)
                 (A) (A) (A) (A) (A) (A) (A) (A) (A) (A) (A) (A)
                 (A) (A) (A) (A) (A) (A) (A) (A) (A) (A) (A) (A)
                 (A) (A) (A) (A) (A) (A) (A) (A) (A) (A) (A) (A)
                 (A) (A) (A) (A) (A) (A) (A) (A) (A) (A) (A) (A)
                 (A) (A) (A) (A) (A) (A) (A) (A) (A) (A) (A) (A)
                 (A) (A) (A) (A) (A) (A) (A) (A) (A) (A) (A) (A)
                 (A) (A) (A) (A) (A) (A) (A) (A) (A) (A) (A) (A)
                 (A) (A) (A) (A) (A) (A) (A) (A) (A) (A) (A) (A)
                 (A) (A) (A) (A) (A) (A) (A) (A) (A) (A) (A) (A)
                 (A) (A) (A) (A) (A) (A) (A) (A) (A) (A) (A) (A)
                 (A) (A) (A) (A) (A) (A) (A) (A) (A) (A) (A) (A)
                 (A) (A) (A) (A) (A) (A) (A) (A) (A) (A) (A) (A)
                 (A) (A) (A) (A) (A) (A) (A) (A) (A) (A) (A) (A)
                 (A) (A) (A) (A) (A) (A) (A) (A) (A) (A) (A) (A)
                 (A) (A) (A) (A) (A) (A) (A) (A) (A) (A) (A) (A)
                 (A) (A) (A) (A) (A) (A) (A) (A) (A) (A) (A) (A)
                 (A) (A) (A) (A) (A) (A) (A) (A) (A) (A) (A) (A)
                 (A) (A) (A) (A) (A) (A) (A) (A) (A) (A) (A) (A)
                 (A) (A) (A) (A) (A) (A) (A) (A) (A) (A) (A) (A)
                 (A) (A) (A) (A) (A) (A) (A) (A) (A) (A) (A) (A)
                 (A) (A) (A) (A) (A) (A) (A) (A) (A) (A) (A) (A)
                 (A) (A) (A) (A) (A) (A) (A) (A) (A) (A) (A) (A)
                 (A) (A) (A) (A) (A) (A) (A) (A) (A) (A) (A) (A)
                 (A) (A) (A) (A) (A) (A) (A) (A) (A) (A) (A) (A)
                 (A) (A) (A) (A) (A) (A) (A) (A) (A) (A) (A) (A)
                 (A) (A) (A) (A) (A) (A) (A) (A) (A) (A) (A) (A)
                 (A) (A) (A) (A) (A) (A) (A) (A) (A) (A) (A) (A)
                 (A) (A) (A) (A) (A) (A) (A) (A) (A) (A) (A) (A)
                 (A) (A) (A) (A) (A) (A) (A) (A) (A) (A) (A) (A)
                 (A) (A) (A) (A) (A) (A) (A) (A) (A) (A) (A) (A)
                 (A) (A) (A) (A) (A) (A) (A) (A) (A) (A) (A) (A)
                 (A) (A) (A) (A) (A) (A) (A) (A) (A) (A) (A) (A)
                 (A) (A) (A) (A) (A) (A) (A) (A) (A) (A) (A) (A)
                 (A) (A) (A) (A) (A) (A) (A) (A) (A) (A) (A) (A)
                 (A) (A) (A) (A) (A) (A) (A) (A) (A) (A) (A) (A)
                 (A) (A) (A) (A) (A) (A) (A) (A) (A) (A) (A) (A)
                 (A) (A) (A) (A) (A) (A) (A) (A) (A) (A) (A) (A)
                 (A) (A) (A) (A) (A) (A) (A) (A) (A) (A) (A) (A)
                 (A) (A) (A) (A) (A) (A) (A) (A) (A) (A) (A) (A)
                 (A) (A) (A) (A) (A) (A) (A) (A) (A) (A) (A) (A)
                 (A) (A) (A) (A) (A) (A) (A) (A) (A) (A) (A) (A)
                 (A) (A) (A) (A) (A) (A) (A) (A) (A) (A) (A) (A)
                 (A) (A) (A) (A) (A) (A) (A) (A) (A) (A) (A) (A)
                 (A) (A) (A) (A) (A) (A) (A) (A) (A) (A) (A) (A)
                 (A) (A) (A) (A) (A) (A) (A) (A) (A) (A) (A) (A)
                 (A) (A) (A) (A) (A) (A) (A) (A) (A) (A) (A) (A)
                 (A) (A) (A) (A) (A) (A) (A) (A) (A) (A) (A) (A)
                 (A) (A) (A) (A) (A) (A) (A) (A) (A) (A) (A) (A)
                 (A) (A) (A) (A) (A) (A) (A) (A) (A) (A) (A) (A)
                 (A) (A) (A) (A) (A) (A) (A) (A) (A) (A) (A) (A)
                 (A) (A) (A) (A) (A) (A) (A) (A) (A) (A) (A) (A)
                 (A) (A) (A) (A) (A) (A) (A) (A) (A) (A) (A) (A)
                 (A) (A) (A) (A) (A) (A) (A) (A) (A) (A) (A) (A)
                 (A) (A) (A) (A) (A) (A) (A) (A) (A) (A) (A) (A)
                 (A) (A) (A) (A) (A) (A) (A) (A) (A) (A) (A) (A)
                 (A) (A) (A) (A) (A) (A) (A) (A) (A) (A) (A) (A)
                 (A) (A) (A) (A) (A) (A) (A) (A) (A) (A) (A) (A)
                 (A) (A) (A) (A) (A) (A) (A) (A) (A) (A) (A) (A)
                 (A) (A) (A) (A) (A) (A) (A) (A) (A) (A) (A) (A)
                 (A) (A) (A) (A) (A) (A) (A) (A) (A) (A) (A) (A)
                 (A) (A) (A) (A) (A) (A) (A) (A) (A) (A) (A) (A)
                 (A) (A) (A) (A) (A) (A) (A) (A) (A) (A) (A) (A)
                 (A) (A) (A) (A) (A) (A) (A) (A) (A) (A) (A) (A)
                 (A) (A) (A) (A) (A) (A) (A) (A) (A) (A) (A) (A)
                 (A) (A) (A) (A) (A) (A) (A) (A) (A) (A) (A) (A)
                 (A) (A) (A) (A) (A) (A) (A) (A) (A) (A) (A) (A)
                 (A) (A) (A) (A) (A) (A) (A) (A) (A) (A) (A) (A)
                 (A) (A) (A) (A) (A) (A) (A) (A) (A) (A) (A) (A)
                 (A) (A) (A) (A) (A) (A) (A) (A) (A) (A) (A) (A)
                 (A) (A) (A) (A) (A) (A) (A) (A) (A) (A) (A) (A)
                 (A) (A) (A) (A) (A) (A) (A) (A) (A) (A) (A) (A)
                 (A) (A) (A) (A) (A) (A) (A) (A) (A) (A) (A) (A)
                 (A) (A) (A) (A) (A) (A) (A) (A) (A) (A) (A) (A)
                 (A) (A) (A) (A) (A) (A) (A) (A) (A) (A) (A) (A)
                 (A) (A) (A) (A) (A) (A) (A) (A) (A) (A) (A) (A)
                 (A) (A) (A) (A) (A) (A) (A) (A) (A) (A) (A) (A)
                 (A) (A) (A) (A) (A) (A) (A) (A) (A) (A) (A) (A)
                 (A) (A) (A) (A) (A) (A) (A) (A) (A) (A) (A) (A)
                 (A) (A) (A) (A) (A) (A) (A) (A) (A) (A) (A) (A)
                 (A) (A) (A) (A) (A) (A) (A) (A) (A) (A) (A) (A)
                 (A) (A) (A) (A) (A) (A) (A) (A) (A) (A) (A) (A)
                 (A) (A) (A) (A) (A) (A) (A) (A) (A) (A) (A) (A)
                 (A) (A) (A) (A) (A) (A) (A) (A) (A) (A) (A) (A)
                 (A) (A) (A) (A) (A) (A) (A) (A) (A) (A) (A) (A)
                 (A) (A) (A) (A) (A) (A) (A) (A) (A) (A) (A) (A)
                 (A) (A) (A) (A) (A) (A) (A) (A) (A) (A) (A) (A)
                 (A) (A) (A) (A) (A) (A) (A) (A) (A) (A) (A) (A)
                 (A) (A) (A) (A) (A) (A) (A) (A) (A) (A) (A) (A)
                 (A) (A) (A) (A) (A) (A) (A) (A) (A) (A) (A) (A)
                 (A) (A) (A) (A) (A) (A) (A) (A) (A) (A) (A) (A)
                 (A) (A) (A) (A) (A) (A) (A) (A) (A) (A) (A) (A)
                 (A) (A) (A) (A) (A) (A) (A) (A) (A) (A) (A) (A)
                 (A) (A) (A) (A) (A) (A) (A) (A) (A) (A) (A) (A)
                 (A) (A) (A) (A) (A) (A) (A) (A) (A) (A) (A) (A)
                 (A) (A) (A) (A) (A)
 Beta  Orbitals:
       Occupied  (A) (A) (A) (A) (A) (A) (A) (A) (A) (A) (A) (A)
                 (A) (A) (A) (A) (A) (A) (A) (A) (A) (A) (A) (A)
                 (A) (A) (A) (A) (A) (A) (A) (A) (A) (A) (A) (A)
                 (A) (A) (A) (A) (A) (A) (A) (A) (A) (A) (A) (A)
                 (A) (A) (A) (A) (A) (A) (A) (A) (A) (A) (A) (A)
                 (A) (A) (A) (A) (A) (A) (A) (A) (A) (A) (A) (A)
                 (A) (A) (A) (A) (A) (A) (A) (A) (A) (A) (A) (A)
                 (A) (A) (A) (A) (A) (A) (A) (A) (A) (A) (A) (A)
                 (A) (A) (A) (A) (A) (A) (A) (A) (A) (A) (A) (A)
                 (A) (A) (A) (A) (A) (A) (A) (A) (A) (A) (A) (A)
                 (A) (A) (A) (A) (A) (A) (A) (A) (A) (A) (A) (A)
                 (A) (A) (A) (A) (A) (A) (A) (A) (A) (A) (A) (A)
                 (A) (A) (A) (A)
       Virtual   (A) (A) (A) (A) (A) (A) (A) (A) (A) (A) (A) (A)
                 (A) (A) (A) (A) (A) (A) (A) (A) (A) (A) (A) (A)
                 (A) (A) (A) (A) (A) (A) (A) (A) (A) (A) (A) (A)
                 (A) (A) (A) (A) (A) (A) (A) (A) (A) (A) (A) (A)
                 (A) (A) (A) (A) (A) (A) (A) (A) (A) (A) (A) (A)
                 (A) (A) (A) (A) (A) (A) (A) (A) (A) (A) (A) (A)
                 (A) (A) (A) (A) (A) (A) (A) (A) (A) (A) (A) (A)
                 (A) (A) (A) (A) (A) (A) (A) (A) (A) (A) (A) (A)
                 (A) (A) (A) (A) (A) (A) (A) (A) (A) (A) (A) (A)
                 (A) (A) (A) (A) (A) (A) (A) (A) (A) (A) (A) (A)
                 (A) (A) (A) (A) (A) (A) (A) (A) (A) (A) (A) (A)
                 (A) (A) (A) (A) (A) (A) (A) (A) (A) (A) (A) (A)
                 (A) (A) (A) (A) (A) (A) (A) (A) (A) (A) (A) (A)
                 (A) (A) (A) (A) (A) (A) (A) (A) (A) (A) (A) (A)
                 (A) (A) (A) (A) (A) (A) (A) (A) (A) (A) (A) (A)
                 (A) (A) (A) (A) (A) (A) (A) (A) (A) (A) (A) (A)
                 (A) (A) (A) (A) (A) (A) (A) (A) (A) (A) (A) (A)
                 (A) (A) (A) (A) (A) (A) (A) (A) (A) (A) (A) (A)
                 (A) (A) (A) (A) (A) (A) (A) (A) (A) (A) (A) (A)
                 (A) (A) (A) (A) (A) (A) (A) (A) (A) (A) (A) (A)
                 (A) (A) (A) (A) (A) (A) (A) (A) (A) (A) (A) (A)
                 (A) (A) (A) (A) (A) (A) (A) (A) (A) (A) (A) (A)
                 (A) (A) (A) (A) (A) (A) (A) (A) (A) (A) (A) (A)
                 (A) (A) (A) (A) (A) (A) (A) (A) (A) (A) (A) (A)
                 (A) (A) (A) (A) (A) (A) (A) (A) (A) (A) (A) (A)
                 (A) (A) (A) (A) (A) (A) (A) (A) (A) (A) (A) (A)
                 (A) (A) (A) (A) (A) (A) (A) (A) (A) (A) (A) (A)
                 (A) (A) (A) (A) (A) (A) (A) (A) (A) (A) (A) (A)
                 (A) (A) (A) (A) (A) (A) (A) (A) (A) (A) (A) (A)
                 (A) (A) (A) (A) (A) (A) (A) (A) (A) (A) (A) (A)
                 (A) (A) (A) (A) (A) (A) (A) (A) (A) (A) (A) (A)
                 (A) (A) (A) (A) (A) (A) (A) (A) (A) (A) (A) (A)
                 (A) (A) (A) (A) (A) (A) (A) (A) (A) (A) (A) (A)
                 (A) (A) (A) (A) (A) (A) (A) (A) (A) (A) (A) (A)
                 (A) (A) (A) (A) (A) (A) (A) (A) (A) (A) (A) (A)
                 (A) (A) (A) (A) (A) (A) (A) (A) (A) (A) (A) (A)
                 (A) (A) (A) (A) (A) (A) (A) (A) (A) (A) (A) (A)
                 (A) (A) (A) (A) (A) (A) (A) (A) (A) (A) (A) (A)
                 (A) (A) (A) (A) (A) (A) (A) (A) (A) (A) (A) (A)
                 (A) (A) (A) (A) (A) (A) (A) (A) (A) (A) (A) (A)
                 (A) (A) (A) (A) (A) (A) (A) (A) (A) (A) (A) (A)
                 (A) (A) (A) (A) (A) (A) (A) (A) (A) (A) (A) (A)
                 (A) (A) (A) (A) (A) (A) (A) (A) (A) (A) (A) (A)
                 (A) (A) (A) (A) (A) (A) (A) (A) (A) (A) (A) (A)
                 (A) (A) (A) (A) (A) (A) (A) (A) (A) (A) (A) (A)
                 (A) (A) (A) (A) (A) (A) (A) (A) (A) (A) (A) (A)
                 (A) (A) (A) (A) (A) (A) (A) (A) (A) (A) (A) (A)
                 (A) (A) (A) (A) (A) (A) (A) (A) (A) (A) (A) (A)
                 (A) (A) (A) (A) (A) (A) (A) (A) (A) (A) (A) (A)
                 (A) (A) (A) (A) (A) (A) (A) (A) (A) (A) (A) (A)
                 (A) (A) (A) (A) (A) (A) (A) (A) (A) (A) (A) (A)
                 (A) (A) (A) (A) (A) (A) (A) (A) (A) (A) (A) (A)
                 (A) (A) (A) (A) (A) (A) (A) (A) (A) (A) (A) (A)
                 (A) (A) (A) (A) (A) (A) (A) (A) (A) (A) (A) (A)
                 (A) (A) (A) (A) (A) (A) (A) (A) (A) (A) (A) (A)
                 (A) (A) (A) (A) (A) (A) (A) (A) (A) (A) (A) (A)
                 (A) (A) (A) (A) (A) (A) (A) (A) (A) (A) (A) (A)
                 (A) (A) (A) (A) (A) (A) (A) (A) (A) (A) (A) (A)
                 (A) (A) (A) (A) (A) (A) (A) (A) (A) (A) (A) (A)
                 (A) (A) (A) (A) (A) (A) (A) (A) (A) (A) (A) (A)
                 (A) (A) (A) (A) (A) (A) (A) (A) (A) (A) (A) (A)
                 (A) (A) (A) (A) (A) (A) (A) (A) (A) (A) (A) (A)
                 (A) (A) (A) (A) (A) (A) (A) (A) (A) (A) (A) (A)
                 (A) (A) (A) (A) (A) (A) (A) (A) (A) (A) (A) (A)
                 (A) (A) (A) (A) (A) (A) (A) (A) (A) (A) (A) (A)
                 (A) (A) (A) (A) (A) (A) (A) (A) (A) (A) (A) (A)
                 (A) (A) (A) (A) (A) (A) (A) (A) (A) (A) (A) (A)
                 (A) (A) (A) (A) (A) (A) (A) (A) (A) (A) (A) (A)
                 (A) (A) (A) (A) (A) (A) (A) (A) (A) (A) (A) (A)
                 (A) (A) (A) (A) (A) (A) (A) (A) (A) (A) (A) (A)
                 (A) (A) (A) (A) (A) (A) (A) (A) (A) (A) (A) (A)
                 (A) (A) (A) (A) (A) (A) (A) (A) (A) (A) (A) (A)
                 (A) (A) (A) (A) (A) (A) (A) (A) (A) (A) (A) (A)
                 (A) (A) (A) (A) (A) (A) (A) (A) (A) (A) (A) (A)
                 (A) (A) (A) (A) (A) (A) (A) (A) (A) (A) (A) (A)
                 (A) (A) (A) (A) (A) (A) (A) (A) (A) (A) (A) (A)
                 (A) (A) (A) (A) (A) (A) (A) (A) (A) (A) (A) (A)
                 (A) (A) (A) (A) (A) (A) (A) (A) (A) (A) (A) (A)
                 (A) (A) (A) (A) (A) (A) (A) (A) (A) (A) (A) (A)
                 (A) (A) (A) (A) (A) (A) (A) (A) (A) (A) (A) (A)
                 (A) (A) (A) (A) (A) (A) (A) (A) (A) (A) (A) (A)
                 (A) (A) (A) (A) (A) (A) (A) (A) (A) (A) (A) (A)
                 (A) (A) (A) (A) (A) (A) (A) (A) (A) (A) (A) (A)
                 (A) (A) (A) (A) (A) (A) (A) (A) (A) (A) (A) (A)
                 (A) (A) (A) (A) (A) (A) (A) (A) (A) (A) (A) (A)
                 (A) (A) (A) (A) (A) (A) (A) (A) (A) (A) (A) (A)
                 (A) (A) (A) (A) (A) (A) (A) (A) (A) (A) (A) (A)
                 (A) (A) (A) (A) (A) (A) (A) (A) (A) (A) (A) (A)
                 (A) (A) (A) (A) (A) (A) (A) (A) (A) (A) (A) (A)
                 (A) (A) (A) (A) (A) (A) (A) (A) (A) (A) (A) (A)
                 (A) (A) (A) (A) (A) (A) (A) (A) (A) (A) (A) (A)
                 (A) (A) (A) (A) (A) (A) (A) (A) (A) (A) (A) (A)
                 (A) (A) (A) (A) (A) (A) (A) (A) (A) (A) (A) (A)
                 (A) (A) (A) (A) (A) (A) (A) (A) (A) (A) (A) (A)
                 (A) (A) (A) (A) (A) (A) (A) (A) (A) (A) (A) (A)
                 (A) (A) (A) (A) (A) (A) (A) (A) (A) (A) (A) (A)
                 (A) (A) (A) (A) (A) (A) (A) (A) (A) (A) (A) (A)
                 (A) (A) (A) (A) (A) (A) (A) (A) (A) (A) (A) (A)
                 (A) (A) (A) (A) (A) (A) (A) (A) (A) (A) (A) (A)
                 (A) (A) (A) (A) (A) (A) (A) (A) (A) (A) (A) (A)
                 (A) (A) (A) (A) (A) (A) (A) (A) (A) (A) (A) (A)
                 (A) (A) (A) (A) (A) (A) (A) (A) (A) (A) (A) (A)
                 (A) (A) (A) (A) (A) (A) (A) (A) (A) (A) (A) (A)
                 (A) (A) (A) (A) (A) (A) (A) (A) (A) (A) (A) (A)
                 (A) (A) (A) (A) (A) (A)
 The electronic state is 2-A.
 Alpha  occ. eigenvalues -- -256.39914 -89.11310 -30.26606 -26.11176 -26.11038
 Alpha  occ. eigenvalues --  -26.08524 -19.30643 -14.47101 -14.47057 -14.46916
 Alpha  occ. eigenvalues --  -14.46766 -10.34475 -10.33568 -10.33514 -10.33505
 Alpha  occ. eigenvalues --  -10.33465 -10.33457 -10.33439 -10.33385 -10.33238
 Alpha  occ. eigenvalues --  -10.30573 -10.30491 -10.30444 -10.30416 -10.30360
 Alpha  occ. eigenvalues --  -10.30353 -10.30289 -10.30269 -10.30268 -10.30241
 Alpha  occ. eigenvalues --  -10.30214 -10.29940 -10.29239 -10.29169 -10.28619
 Alpha  occ. eigenvalues --  -10.28550 -10.28501 -10.28469 -10.28183 -10.27951
 Alpha  occ. eigenvalues --  -10.27943 -10.27803  -8.14003  -6.08510  -6.08256
 Alpha  occ. eigenvalues --   -6.07864  -3.65259  -2.43438  -2.42945  -2.37583
 Alpha  occ. eigenvalues --   -1.18261  -1.09892  -1.08957  -1.08802  -1.07895
 Alpha  occ. eigenvalues --   -0.94401  -0.94007  -0.92891  -0.92562  -0.92209
 Alpha  occ. eigenvalues --   -0.91893  -0.91558  -0.91516  -0.87406  -0.86114
 Alpha  occ. eigenvalues --   -0.86082  -0.85026  -0.83694  -0.81867  -0.80798
 Alpha  occ. eigenvalues --   -0.79547  -0.79198  -0.79086  -0.78894  -0.75959
 Alpha  occ. eigenvalues --   -0.75943  -0.73717  -0.71313  -0.70681  -0.69682
 Alpha  occ. eigenvalues --   -0.69101  -0.66038  -0.65281  -0.64295  -0.64179
 Alpha  occ. eigenvalues --   -0.62705  -0.62644  -0.62250  -0.60090  -0.59850
 Alpha  occ. eigenvalues --   -0.59030  -0.58892  -0.57913  -0.56942  -0.56156
 Alpha  occ. eigenvalues --   -0.55471  -0.55303  -0.55127  -0.54753  -0.54558
 Alpha  occ. eigenvalues --   -0.54196  -0.54110  -0.53804  -0.53725  -0.53088
 Alpha  occ. eigenvalues --   -0.52722  -0.52647  -0.51675  -0.51383  -0.51318
 Alpha  occ. eigenvalues --   -0.51227  -0.51043  -0.51035  -0.50709  -0.50338
 Alpha  occ. eigenvalues --   -0.50145  -0.49872  -0.49488  -0.49374  -0.48972
 Alpha  occ. eigenvalues --   -0.48941  -0.48689  -0.48443  -0.48126  -0.47757
 Alpha  occ. eigenvalues --   -0.47250  -0.46995  -0.46512  -0.45973  -0.45689
 Alpha  occ. eigenvalues --   -0.45128  -0.44220  -0.44119  -0.43485  -0.43268
 Alpha  occ. eigenvalues --   -0.42842  -0.42458  -0.41878  -0.40884  -0.40256
 Alpha  occ. eigenvalues --   -0.40000  -0.38375  -0.38079  -0.34880  -0.34455
 Alpha  occ. eigenvalues --   -0.33165  -0.32774  -0.30772  -0.29787
 Alpha virt. eigenvalues --   -0.22180  -0.18608  -0.18553  -0.15992  -0.12820
 Alpha virt. eigenvalues --   -0.11300  -0.09491  -0.08528  -0.08161  -0.07020
 Alpha virt. eigenvalues --   -0.06420  -0.04782  -0.04328  -0.03515  -0.03360
 Alpha virt. eigenvalues --   -0.03070  -0.02766  -0.02188  -0.01788  -0.01203
 Alpha virt. eigenvalues --   -0.00878  -0.00569  -0.00385   0.00080   0.00172
 Alpha virt. eigenvalues --    0.01057   0.01392   0.01501   0.02081   0.02152
 Alpha virt. eigenvalues --    0.02289   0.02483   0.02753   0.02877   0.03010
 Alpha virt. eigenvalues --    0.03282   0.03672   0.03942   0.04050   0.04296
 Alpha virt. eigenvalues --    0.04925   0.04952   0.05198   0.05494   0.05793
 Alpha virt. eigenvalues --    0.05867   0.06193   0.06241   0.06738   0.06791
 Alpha virt. eigenvalues --    0.06940   0.07216   0.07464   0.07602   0.07851
 Alpha virt. eigenvalues --    0.08113   0.08240   0.08587   0.08706   0.08915
 Alpha virt. eigenvalues --    0.09610   0.10119   0.10186   0.10197   0.10723
 Alpha virt. eigenvalues --    0.10799   0.11032   0.11482   0.11807   0.11891
 Alpha virt. eigenvalues --    0.12194   0.12403   0.12616   0.13014   0.13084
 Alpha virt. eigenvalues --    0.13473   0.13894   0.14044   0.14409   0.15121
 Alpha virt. eigenvalues --    0.15510   0.15841   0.16117   0.16271   0.16632
 Alpha virt. eigenvalues --    0.16711   0.16865   0.17105   0.17247   0.17460
 Alpha virt. eigenvalues --    0.17757   0.18188   0.18493   0.18682   0.19077
 Alpha virt. eigenvalues --    0.19575   0.19694   0.20295   0.20453   0.20549
 Alpha virt. eigenvalues --    0.20702   0.20929   0.21220   0.21356   0.21713
 Alpha virt. eigenvalues --    0.22070   0.22168   0.22670   0.23132   0.23365
 Alpha virt. eigenvalues --    0.23672   0.23732   0.23963   0.24485   0.24866
 Alpha virt. eigenvalues --    0.25108   0.25375   0.25814   0.26125   0.26526
 Alpha virt. eigenvalues --    0.26767   0.26946   0.27553   0.27669   0.28133
 Alpha virt. eigenvalues --    0.28326   0.28450   0.28732   0.29132   0.29384
 Alpha virt. eigenvalues --    0.29794   0.29943   0.30219   0.30387   0.30424
 Alpha virt. eigenvalues --    0.30601   0.30732   0.31127   0.31275   0.31528
 Alpha virt. eigenvalues --    0.32059   0.32086   0.32147   0.32574   0.32765
 Alpha virt. eigenvalues --    0.32899   0.33389   0.33595   0.33849   0.34050
 Alpha virt. eigenvalues --    0.34344   0.34689   0.34727   0.35017   0.35500
 Alpha virt. eigenvalues --    0.35662   0.36167   0.36600   0.36803   0.36975
 Alpha virt. eigenvalues --    0.37314   0.37464   0.37721   0.37891   0.38194
 Alpha virt. eigenvalues --    0.38365   0.38447   0.39079   0.39256   0.39499
 Alpha virt. eigenvalues --    0.39591   0.40085   0.40317   0.40556   0.40704
 Alpha virt. eigenvalues --    0.41095   0.41363   0.41580   0.41686   0.41723
 Alpha virt. eigenvalues --    0.41925   0.42080   0.42346   0.42600   0.42749
 Alpha virt. eigenvalues --    0.42962   0.43134   0.43331   0.43508   0.43905
 Alpha virt. eigenvalues --    0.43944   0.44193   0.44734   0.45134   0.45248
 Alpha virt. eigenvalues --    0.45531   0.45869   0.45922   0.46214   0.46531
 Alpha virt. eigenvalues --    0.47028   0.47371   0.47399   0.47724   0.48505
 Alpha virt. eigenvalues --    0.48741   0.49078   0.49345   0.50071   0.50178
 Alpha virt. eigenvalues --    0.50471   0.50840   0.51000   0.51239   0.51613
 Alpha virt. eigenvalues --    0.51875   0.52240   0.52603   0.53007   0.53083
 Alpha virt. eigenvalues --    0.53388   0.53741   0.53832   0.54200   0.54335
 Alpha virt. eigenvalues --    0.55025   0.55265   0.55515   0.55915   0.56013
 Alpha virt. eigenvalues --    0.56425   0.56610   0.57108   0.57470   0.57674
 Alpha virt. eigenvalues --    0.58101   0.58201   0.58391   0.58850   0.59485
 Alpha virt. eigenvalues --    0.60098   0.60258   0.60503   0.60726   0.61048
 Alpha virt. eigenvalues --    0.61219   0.62076   0.62147   0.62627   0.62689
 Alpha virt. eigenvalues --    0.63041   0.63379   0.63517   0.63635   0.63926
 Alpha virt. eigenvalues --    0.64612   0.65305   0.65366   0.65700   0.66099
 Alpha virt. eigenvalues --    0.66313   0.66701   0.67386   0.67757   0.68043
 Alpha virt. eigenvalues --    0.68476   0.68646   0.68854   0.69142   0.69784
 Alpha virt. eigenvalues --    0.69918   0.70993   0.71165   0.71685   0.72014
 Alpha virt. eigenvalues --    0.72523   0.72989   0.73438   0.73962   0.74198
 Alpha virt. eigenvalues --    0.74434   0.74942   0.75347   0.75691   0.75985
 Alpha virt. eigenvalues --    0.76256   0.76585   0.77010   0.77361   0.77897
 Alpha virt. eigenvalues --    0.78543   0.78744   0.79344   0.79699   0.80564
 Alpha virt. eigenvalues --    0.80893   0.81355   0.81897   0.82188   0.82715
 Alpha virt. eigenvalues --    0.83187   0.83370   0.83620   0.84191   0.84368
 Alpha virt. eigenvalues --    0.84802   0.85108   0.85661   0.85837   0.86580
 Alpha virt. eigenvalues --    0.86832   0.86864   0.87492   0.88115   0.88228
 Alpha virt. eigenvalues --    0.88529   0.88969   0.89721   0.89888   0.89963
 Alpha virt. eigenvalues --    0.90333   0.90659   0.90731   0.91200   0.91404
 Alpha virt. eigenvalues --    0.91643   0.91904   0.92273   0.92707   0.92873
 Alpha virt. eigenvalues --    0.93468   0.93517   0.93949   0.94354   0.94578
 Alpha virt. eigenvalues --    0.95304   0.95379   0.96083   0.96296   0.96440
 Alpha virt. eigenvalues --    0.97182   0.97911   0.98121   0.98482   0.98904
 Alpha virt. eigenvalues --    0.99212   0.99808   1.00269   1.00542   1.01658
 Alpha virt. eigenvalues --    1.02312   1.02651   1.03771   1.04344   1.04575
 Alpha virt. eigenvalues --    1.05562   1.05882   1.06122   1.06682   1.06921
 Alpha virt. eigenvalues --    1.07712   1.08123   1.08412   1.08797   1.09353
 Alpha virt. eigenvalues --    1.09650   1.10161   1.10308   1.10867   1.11143
 Alpha virt. eigenvalues --    1.11397   1.11695   1.12360   1.12983   1.13287
 Alpha virt. eigenvalues --    1.14028   1.14748   1.15134   1.15548   1.16180
 Alpha virt. eigenvalues --    1.16327   1.16907   1.17164   1.17362   1.17599
 Alpha virt. eigenvalues --    1.17838   1.18251   1.18466   1.18867   1.19189
 Alpha virt. eigenvalues --    1.19564   1.19881   1.20286   1.20736   1.21443
 Alpha virt. eigenvalues --    1.21908   1.23288   1.24133   1.24411   1.25073
 Alpha virt. eigenvalues --    1.26183   1.26757   1.27299   1.27379   1.27570
 Alpha virt. eigenvalues --    1.28718   1.29336   1.30300   1.31082   1.31495
 Alpha virt. eigenvalues --    1.31726   1.32427   1.32475   1.33776   1.34035
 Alpha virt. eigenvalues --    1.34284   1.34916   1.35400   1.35601   1.36163
 Alpha virt. eigenvalues --    1.36837   1.37056   1.37439   1.37602   1.37864
 Alpha virt. eigenvalues --    1.38268   1.38650   1.39458   1.39800   1.40172
 Alpha virt. eigenvalues --    1.40285   1.40922   1.41146   1.41239   1.41785
 Alpha virt. eigenvalues --    1.41967   1.42101   1.42516   1.42991   1.43091
 Alpha virt. eigenvalues --    1.43227   1.43803   1.43964   1.44366   1.44628
 Alpha virt. eigenvalues --    1.44833   1.44932   1.45349   1.45454   1.45621
 Alpha virt. eigenvalues --    1.46044   1.46501   1.46755   1.47253   1.47546
 Alpha virt. eigenvalues --    1.47890   1.48221   1.48341   1.48924   1.49125
 Alpha virt. eigenvalues --    1.49463   1.49669   1.49931   1.50375   1.50502
 Alpha virt. eigenvalues --    1.50680   1.51012   1.51119   1.51630   1.52214
 Alpha virt. eigenvalues --    1.52381   1.52727   1.53184   1.53544   1.53725
 Alpha virt. eigenvalues --    1.53996   1.54597   1.55066   1.55302   1.55362
 Alpha virt. eigenvalues --    1.55460   1.55920   1.56216   1.57001   1.57377
 Alpha virt. eigenvalues --    1.57770   1.57813   1.58310   1.58448   1.59086
 Alpha virt. eigenvalues --    1.59488   1.59671   1.60067   1.60483   1.60734
 Alpha virt. eigenvalues --    1.60814   1.61647   1.61920   1.62100   1.62748
 Alpha virt. eigenvalues --    1.63096   1.63311   1.63601   1.64028   1.65075
 Alpha virt. eigenvalues --    1.65420   1.65933   1.66613   1.67143   1.67285
 Alpha virt. eigenvalues --    1.67859   1.68176   1.68716   1.69696   1.70767
 Alpha virt. eigenvalues --    1.70999   1.71605   1.72319   1.72414   1.73165
 Alpha virt. eigenvalues --    1.73628   1.74242   1.74605   1.74895   1.75368
 Alpha virt. eigenvalues --    1.75931   1.76643   1.77062   1.77258   1.77626
 Alpha virt. eigenvalues --    1.77904   1.78115   1.78808   1.78928   1.79228
 Alpha virt. eigenvalues --    1.79425   1.80298   1.80488   1.80762   1.81478
 Alpha virt. eigenvalues --    1.81683   1.82223   1.82912   1.83305   1.84199
 Alpha virt. eigenvalues --    1.84906   1.85031   1.85866   1.86209   1.87182
 Alpha virt. eigenvalues --    1.87432   1.88320   1.88649   1.88998   1.89432
 Alpha virt. eigenvalues --    1.89619   1.90129   1.90383   1.91063   1.91265
 Alpha virt. eigenvalues --    1.91655   1.91961   1.92322   1.92978   1.94155
 Alpha virt. eigenvalues --    1.94577   1.95019   1.96051   1.96593   1.96751
 Alpha virt. eigenvalues --    1.97600   1.97839   1.97881   1.98595   1.99230
 Alpha virt. eigenvalues --    1.99529   2.00548   2.00912   2.01123   2.01933
 Alpha virt. eigenvalues --    2.02488   2.03082   2.03337   2.03977   2.04337
 Alpha virt. eigenvalues --    2.04872   2.05529   2.06109   2.06659   2.07316
 Alpha virt. eigenvalues --    2.07432   2.07725   2.08341   2.08999   2.09701
 Alpha virt. eigenvalues --    2.09870   2.10397   2.10587   2.11159   2.12040
 Alpha virt. eigenvalues --    2.12795   2.14041   2.14227   2.14365   2.15330
 Alpha virt. eigenvalues --    2.15596   2.16203   2.16401   2.16550   2.17059
 Alpha virt. eigenvalues --    2.17437   2.17833   2.17910   2.18685   2.19197
 Alpha virt. eigenvalues --    2.19754   2.20206   2.20556   2.20999   2.21460
 Alpha virt. eigenvalues --    2.21946   2.22542   2.22943   2.23384   2.24372
 Alpha virt. eigenvalues --    2.25205   2.25391   2.25562   2.25911   2.26456
 Alpha virt. eigenvalues --    2.27250   2.27439   2.27655   2.28269   2.28439
 Alpha virt. eigenvalues --    2.28739   2.29069   2.29659   2.30021   2.30396
 Alpha virt. eigenvalues --    2.30636   2.31182   2.31472   2.32063   2.32862
 Alpha virt. eigenvalues --    2.33786   2.34163   2.34453   2.35316   2.35356
 Alpha virt. eigenvalues --    2.35786   2.35949   2.36281   2.36656   2.37212
 Alpha virt. eigenvalues --    2.37481   2.37993   2.38192   2.38875   2.39841
 Alpha virt. eigenvalues --    2.40478   2.41609   2.42310   2.42617   2.43375
 Alpha virt. eigenvalues --    2.43505   2.43635   2.44387   2.45142   2.45394
 Alpha virt. eigenvalues --    2.45647   2.46092   2.46266   2.46354   2.46644
 Alpha virt. eigenvalues --    2.47120   2.47248   2.47859   2.47902   2.48384
 Alpha virt. eigenvalues --    2.48650   2.49083   2.49428   2.49638   2.50202
 Alpha virt. eigenvalues --    2.50830   2.51145   2.51572   2.51724   2.52360
 Alpha virt. eigenvalues --    2.52576   2.53194   2.54123   2.54350   2.54589
 Alpha virt. eigenvalues --    2.55266   2.55637   2.56099   2.56351   2.56561
 Alpha virt. eigenvalues --    2.57301   2.57709   2.58003   2.58461   2.59058
 Alpha virt. eigenvalues --    2.59303   2.60229   2.60461   2.60682   2.60970
 Alpha virt. eigenvalues --    2.61399   2.61719   2.62380   2.63003   2.63683
 Alpha virt. eigenvalues --    2.64037   2.64564   2.64634   2.64890   2.65469
 Alpha virt. eigenvalues --    2.66154   2.66541   2.66663   2.67412   2.68091
 Alpha virt. eigenvalues --    2.68638   2.68747   2.69272   2.69457   2.70391
 Alpha virt. eigenvalues --    2.70740   2.71728   2.72049   2.72461   2.72484
 Alpha virt. eigenvalues --    2.72879   2.73031   2.73497   2.74024   2.74772
 Alpha virt. eigenvalues --    2.75500   2.75981   2.76322   2.76800   2.77112
 Alpha virt. eigenvalues --    2.77503   2.77724   2.77980   2.78399   2.79122
 Alpha virt. eigenvalues --    2.79357   2.80149   2.80568   2.80832   2.81116
 Alpha virt. eigenvalues --    2.81385   2.81707   2.82371   2.83137   2.83478
 Alpha virt. eigenvalues --    2.83740   2.83952   2.84783   2.85148   2.85455
 Alpha virt. eigenvalues --    2.85756   2.86203   2.86395   2.87118   2.87507
 Alpha virt. eigenvalues --    2.87996   2.88631   2.88826   2.88923   2.89715
 Alpha virt. eigenvalues --    2.89974   2.90648   2.90858   2.91418   2.92144
 Alpha virt. eigenvalues --    2.92388   2.92827   2.93138   2.94027   2.94563
 Alpha virt. eigenvalues --    2.95166   2.95321   2.95991   2.96198   2.96571
 Alpha virt. eigenvalues --    2.97213   2.97324   2.97574   2.97784   2.98728
 Alpha virt. eigenvalues --    2.98849   2.99225   2.99583   2.99781   3.00312
 Alpha virt. eigenvalues --    3.00771   3.01244   3.01609   3.01828   3.02368
 Alpha virt. eigenvalues --    3.02638   3.02918   3.03287   3.03727   3.04271
 Alpha virt. eigenvalues --    3.04703   3.04969   3.05450   3.05826   3.06101
 Alpha virt. eigenvalues --    3.06605   3.07055   3.07471   3.07839   3.07977
 Alpha virt. eigenvalues --    3.08362   3.08857   3.09270   3.09401   3.09700
 Alpha virt. eigenvalues --    3.09948   3.10312   3.10673   3.10848   3.11410
 Alpha virt. eigenvalues --    3.11877   3.12500   3.12858   3.13089   3.13282
 Alpha virt. eigenvalues --    3.13985   3.14190   3.14480   3.14866   3.15170
 Alpha virt. eigenvalues --    3.15258   3.15605   3.15868   3.16199   3.16619
 Alpha virt. eigenvalues --    3.16772   3.17266   3.17720   3.17886   3.18172
 Alpha virt. eigenvalues --    3.18633   3.18790   3.19077   3.19276   3.19502
 Alpha virt. eigenvalues --    3.20427   3.20708   3.20796   3.20891   3.21052
 Alpha virt. eigenvalues --    3.21624   3.22314   3.22502   3.22692   3.22889
 Alpha virt. eigenvalues --    3.23206   3.23679   3.23906   3.24136   3.24392
 Alpha virt. eigenvalues --    3.24720   3.24883   3.25063   3.25668   3.25883
 Alpha virt. eigenvalues --    3.26153   3.26598   3.26788   3.26926   3.27295
 Alpha virt. eigenvalues --    3.27495   3.27944   3.28043   3.28160   3.28845
 Alpha virt. eigenvalues --    3.29048   3.29385   3.29742   3.29908   3.30267
 Alpha virt. eigenvalues --    3.30887   3.31651   3.31780   3.32060   3.32877
 Alpha virt. eigenvalues --    3.33357   3.33599   3.33827   3.34343   3.34570
 Alpha virt. eigenvalues --    3.35198   3.35318   3.36016   3.36260   3.36798
 Alpha virt. eigenvalues --    3.37109   3.37652   3.38364   3.39112   3.39535
 Alpha virt. eigenvalues --    3.40274   3.40610   3.41187   3.41988   3.42496
 Alpha virt. eigenvalues --    3.42878   3.43083   3.43880   3.44655   3.45109
 Alpha virt. eigenvalues --    3.45180   3.46245   3.46655   3.47250   3.47418
 Alpha virt. eigenvalues --    3.47781   3.48012   3.48487   3.49448   3.50006
 Alpha virt. eigenvalues --    3.50362   3.50659   3.51296   3.51724   3.52122
 Alpha virt. eigenvalues --    3.53172   3.53571   3.53829   3.54702   3.55124
 Alpha virt. eigenvalues --    3.55651   3.56266   3.56815   3.56984   3.57735
 Alpha virt. eigenvalues --    3.58302   3.59442   3.59789   3.60246   3.60642
 Alpha virt. eigenvalues --    3.60871   3.61155   3.62043   3.62160   3.62456
 Alpha virt. eigenvalues --    3.62717   3.63134   3.63559   3.63599   3.64163
 Alpha virt. eigenvalues --    3.64423   3.64605   3.65517   3.65873   3.66719
 Alpha virt. eigenvalues --    3.67714   3.68060   3.68776   3.69620   3.70032
 Alpha virt. eigenvalues --    3.70938   3.71611   3.72274   3.72789   3.73365
 Alpha virt. eigenvalues --    3.74424   3.75095   3.75273   3.76291   3.76507
 Alpha virt. eigenvalues --    3.76652   3.77330   3.78362   3.78402   3.79551
 Alpha virt. eigenvalues --    3.79922   3.81008   3.81144   3.81860   3.82265
 Alpha virt. eigenvalues --    3.83014   3.85249   3.86443   3.86539   3.86937
 Alpha virt. eigenvalues --    3.87830   3.88457   3.88706   3.89371   3.89607
 Alpha virt. eigenvalues --    3.89767   3.90323   3.91347   3.91967   3.92378
 Alpha virt. eigenvalues --    3.92789   3.93518   3.94262   3.94808   3.95117
 Alpha virt. eigenvalues --    3.96066   3.96605   3.97827   3.98121   3.99017
 Alpha virt. eigenvalues --    3.99659   4.00119   4.00577   4.01011   4.01973
 Alpha virt. eigenvalues --    4.02410   4.02873   4.03576   4.04412   4.04628
 Alpha virt. eigenvalues --    4.05304   4.05954   4.07080   4.07687   4.08109
 Alpha virt. eigenvalues --    4.08702   4.08818   4.10052   4.10292   4.10999
 Alpha virt. eigenvalues --    4.11592   4.12420   4.12664   4.13289   4.13513
 Alpha virt. eigenvalues --    4.14115   4.15137   4.15498   4.16278   4.17747
 Alpha virt. eigenvalues --    4.18380   4.18620   4.19171   4.19671   4.19895
 Alpha virt. eigenvalues --    4.21360   4.21777   4.22338   4.22945   4.23376
 Alpha virt. eigenvalues --    4.23730   4.24257   4.24567   4.25901   4.26544
 Alpha virt. eigenvalues --    4.27470   4.28720   4.29566   4.30111   4.30522
 Alpha virt. eigenvalues --    4.31141   4.31862   4.32120   4.32423   4.33247
 Alpha virt. eigenvalues --    4.33582   4.34442   4.34693   4.34869   4.35656
 Alpha virt. eigenvalues --    4.36562   4.37681   4.38191   4.38706   4.39966
 Alpha virt. eigenvalues --    4.40817   4.41362   4.41954   4.42601   4.43454
 Alpha virt. eigenvalues --    4.44484   4.45031   4.45949   4.46892   4.47342
 Alpha virt. eigenvalues --    4.48033   4.50836   4.52806   4.53468   4.54604
 Alpha virt. eigenvalues --    4.55094   4.56842   4.57158   4.57976   4.58136
 Alpha virt. eigenvalues --    4.58614   4.60436   4.61704   4.62832   4.63381
 Alpha virt. eigenvalues --    4.64342   4.65322   4.66377   4.67896   4.69505
 Alpha virt. eigenvalues --    4.70149   4.71336   4.71452   4.72335   4.73326
 Alpha virt. eigenvalues --    4.73366   4.74530   4.74861   4.75650   4.76335
 Alpha virt. eigenvalues --    4.76962   4.77974   4.80538   4.81189   4.81923
 Alpha virt. eigenvalues --    4.82495   4.82883   4.84022   4.85597   4.87585
 Alpha virt. eigenvalues --    4.88170   4.88645   4.89720   4.91027   4.91700
 Alpha virt. eigenvalues --    4.92870   4.93086   4.93754   4.95949   4.96981
 Alpha virt. eigenvalues --    4.97877   4.99077   5.02256   5.02397   5.03358
 Alpha virt. eigenvalues --    5.06005   5.06994   5.07564   5.09085   5.09370
 Alpha virt. eigenvalues --    5.11090   5.11549   5.12587   5.13100   5.14215
 Alpha virt. eigenvalues --    5.14595   5.16352   5.17140   5.23660   5.24325
 Alpha virt. eigenvalues --    5.25856   5.26189   5.26471   5.26814   5.27242
 Alpha virt. eigenvalues --    5.27809   5.28336   5.30165   5.35922   5.36405
 Alpha virt. eigenvalues --    5.37505   5.38220   5.39468   5.39631   5.40398
 Alpha virt. eigenvalues --    5.42719   5.48858   5.49099   5.50120   5.50886
 Alpha virt. eigenvalues --    5.51690   5.52619   5.55259   5.56051   5.56249
 Alpha virt. eigenvalues --    5.60632   5.64398   5.65128   5.65902   5.68489
 Alpha virt. eigenvalues --    5.75131   5.75728   5.77269   5.79917   5.88414
 Alpha virt. eigenvalues --    5.89346   5.89978   5.98543   5.99513   5.99771
 Alpha virt. eigenvalues --    6.00846   6.06344   6.10894   6.14380   6.21974
 Alpha virt. eigenvalues --    6.22330   6.29406   6.33558   6.39017   6.39320
 Alpha virt. eigenvalues --    6.51510   6.83230   7.14935   8.92318   9.08486
 Alpha virt. eigenvalues --    9.25469  19.48011  22.20566  22.26396  22.26718
 Alpha virt. eigenvalues --   22.36359  22.37112  22.43028  22.43878  22.52929
 Alpha virt. eigenvalues --   22.53059  22.74103  22.76763  22.80714  22.82779
 Alpha virt. eigenvalues --   22.83325  22.84563  22.85665  22.92176  22.92967
 Alpha virt. eigenvalues --   23.02743  23.16088  23.19554  23.20003  23.29021
 Alpha virt. eigenvalues --   23.30352  23.39214  23.39865  23.44720  23.62780
 Alpha virt. eigenvalues --   23.67272  23.68027  23.77166  32.76748  32.79137
 Alpha virt. eigenvalues --   32.79950  32.91411  43.78548
  Beta  occ. eigenvalues -- -256.39877 -89.11347 -30.24343 -26.08674 -26.08585
  Beta  occ. eigenvalues --  -26.07816 -19.30633 -14.47135 -14.47105 -14.46993
  Beta  occ. eigenvalues --  -14.46831 -10.34477 -10.33561 -10.33508 -10.33499
  Beta  occ. eigenvalues --  -10.33461 -10.33451 -10.33431 -10.33382 -10.33234
  Beta  occ. eigenvalues --  -10.30552 -10.30472 -10.30452 -10.30397 -10.30371
  Beta  occ. eigenvalues --  -10.30361 -10.30293 -10.30283 -10.30270 -10.30220
  Beta  occ. eigenvalues --  -10.30218 -10.29943 -10.29247 -10.29168 -10.28621
  Beta  occ. eigenvalues --  -10.28551 -10.28502 -10.28469 -10.28185 -10.27951
  Beta  occ. eigenvalues --  -10.27929 -10.27803  -8.14038  -6.08533  -6.08305
  Beta  occ. eigenvalues --   -6.07952  -3.59761  -2.36008  -2.35300  -2.35090
  Beta  occ. eigenvalues --   -1.18247  -1.09916  -1.08945  -1.08867  -1.07921
  Beta  occ. eigenvalues --   -0.94414  -0.94128  -0.92870  -0.92569  -0.92197
  Beta  occ. eigenvalues --   -0.91901  -0.91574  -0.91525  -0.87400  -0.86124
  Beta  occ. eigenvalues --   -0.86092  -0.85024  -0.83693  -0.81866  -0.80802
  Beta  occ. eigenvalues --   -0.79599  -0.79224  -0.79093  -0.78912  -0.75960
  Beta  occ. eigenvalues --   -0.75942  -0.73715  -0.71309  -0.70684  -0.69676
  Beta  occ. eigenvalues --   -0.69090  -0.66041  -0.65292  -0.64294  -0.64175
  Beta  occ. eigenvalues --   -0.62718  -0.62670  -0.62264  -0.60066  -0.59830
  Beta  occ. eigenvalues --   -0.59036  -0.58885  -0.57910  -0.56918  -0.56024
  Beta  occ. eigenvalues --   -0.55347  -0.55299  -0.55054  -0.54715  -0.54500
  Beta  occ. eigenvalues --   -0.54188  -0.54092  -0.53757  -0.53685  -0.53075
  Beta  occ. eigenvalues --   -0.52718  -0.52647  -0.51380  -0.51357  -0.51265
  Beta  occ. eigenvalues --   -0.51047  -0.50985  -0.50795  -0.50633  -0.50320
  Beta  occ. eigenvalues --   -0.50111  -0.49807  -0.49443  -0.49334  -0.48960
  Beta  occ. eigenvalues --   -0.48839  -0.48514  -0.48308  -0.47873  -0.47418
  Beta  occ. eigenvalues --   -0.47055  -0.46912  -0.46456  -0.45706  -0.45088
  Beta  occ. eigenvalues --   -0.44247  -0.43970  -0.43459  -0.43162  -0.42673
  Beta  occ. eigenvalues --   -0.42287  -0.41010  -0.40034  -0.39986  -0.38947
  Beta  occ. eigenvalues --   -0.38315  -0.37864  -0.34897  -0.34464  -0.33314
  Beta  occ. eigenvalues --   -0.32659  -0.30769  -0.29710
  Beta virt. eigenvalues --   -0.21760  -0.19392  -0.18543  -0.17661  -0.13010
  Beta virt. eigenvalues --   -0.12784  -0.11301  -0.09397  -0.08485  -0.08149
  Beta virt. eigenvalues --   -0.06995  -0.06390  -0.04770  -0.04318  -0.03352
  Beta virt. eigenvalues --   -0.03303  -0.03052  -0.02675  -0.02177  -0.01781
  Beta virt. eigenvalues --   -0.01168  -0.00833  -0.00570  -0.00379   0.00091
  Beta virt. eigenvalues --    0.00187   0.01061   0.01431   0.01517   0.02088
  Beta virt. eigenvalues --    0.02165   0.02312   0.02488   0.02803   0.02916
  Beta virt. eigenvalues --    0.03002   0.03336   0.03681   0.03949   0.04056
  Beta virt. eigenvalues --    0.04310   0.04932   0.04982   0.05210   0.05507
  Beta virt. eigenvalues --    0.05795   0.05890   0.06208   0.06275   0.06737
  Beta virt. eigenvalues --    0.06827   0.06951   0.07285   0.07479   0.07666
  Beta virt. eigenvalues --    0.07861   0.08138   0.08240   0.08598   0.08729
  Beta virt. eigenvalues --    0.08925   0.09622   0.10131   0.10193   0.10204
  Beta virt. eigenvalues --    0.10743   0.10832   0.11037   0.11507   0.11810
  Beta virt. eigenvalues --    0.11905   0.12289   0.12422   0.12630   0.13015
  Beta virt. eigenvalues --    0.13128   0.13481   0.13914   0.14083   0.14485
  Beta virt. eigenvalues --    0.15144   0.15613   0.15893   0.16156   0.16281
  Beta virt. eigenvalues --    0.16635   0.16726   0.16886   0.17118   0.17259
  Beta virt. eigenvalues --    0.17515   0.17772   0.18195   0.18503   0.18750
  Beta virt. eigenvalues --    0.19082   0.19586   0.19755   0.20302   0.20487
  Beta virt. eigenvalues --    0.20557   0.20711   0.20960   0.21240   0.21356
  Beta virt. eigenvalues --    0.21836   0.22130   0.22201   0.22684   0.23174
  Beta virt. eigenvalues --    0.23390   0.23708   0.23866   0.23978   0.24543
  Beta virt. eigenvalues --    0.24867   0.25125   0.25413   0.25821   0.26224
  Beta virt. eigenvalues --    0.26566   0.26797   0.26994   0.27575   0.27679
  Beta virt. eigenvalues --    0.28168   0.28360   0.28500   0.28770   0.29143
  Beta virt. eigenvalues --    0.29423   0.29819   0.29967   0.30246   0.30405
  Beta virt. eigenvalues --    0.30472   0.30625   0.30759   0.31148   0.31289
  Beta virt. eigenvalues --    0.31555   0.32066   0.32091   0.32192   0.32608
  Beta virt. eigenvalues --    0.32787   0.32929   0.33385   0.33600   0.33855
  Beta virt. eigenvalues --    0.34095   0.34364   0.34716   0.34738   0.35031
  Beta virt. eigenvalues --    0.35508   0.35676   0.36186   0.36614   0.36813
  Beta virt. eigenvalues --    0.36984   0.37322   0.37472   0.37727   0.37927
  Beta virt. eigenvalues --    0.38224   0.38373   0.38453   0.39106   0.39279
  Beta virt. eigenvalues --    0.39514   0.39632   0.40091   0.40321   0.40577
  Beta virt. eigenvalues --    0.40719   0.41102   0.41378   0.41583   0.41696
  Beta virt. eigenvalues --    0.41729   0.41938   0.42097   0.42371   0.42603
  Beta virt. eigenvalues --    0.42762   0.42982   0.43147   0.43334   0.43530
  Beta virt. eigenvalues --    0.43911   0.43959   0.44202   0.44778   0.45151
  Beta virt. eigenvalues --    0.45259   0.45572   0.45906   0.45934   0.46228
  Beta virt. eigenvalues --    0.46546   0.47065   0.47384   0.47422   0.47740
  Beta virt. eigenvalues --    0.48514   0.48748   0.49145   0.49361   0.50113
  Beta virt. eigenvalues --    0.50181   0.50508   0.50852   0.50996   0.51240
  Beta virt. eigenvalues --    0.51645   0.51906   0.52272   0.52633   0.53012
  Beta virt. eigenvalues --    0.53101   0.53405   0.53765   0.53851   0.54214
  Beta virt. eigenvalues --    0.54338   0.55025   0.55315   0.55538   0.55938
  Beta virt. eigenvalues --    0.56029   0.56448   0.56639   0.57113   0.57486
  Beta virt. eigenvalues --    0.57817   0.58119   0.58204   0.58406   0.58910
  Beta virt. eigenvalues --    0.59655   0.60124   0.60297   0.60525   0.60814
  Beta virt. eigenvalues --    0.61071   0.61297   0.62135   0.62176   0.62657
  Beta virt. eigenvalues --    0.62738   0.63056   0.63411   0.63581   0.63652
  Beta virt. eigenvalues --    0.63942   0.64649   0.65311   0.65407   0.65746
  Beta virt. eigenvalues --    0.66106   0.66342   0.66724   0.67386   0.67767
  Beta virt. eigenvalues --    0.68065   0.68484   0.68693   0.68891   0.69150
  Beta virt. eigenvalues --    0.69825   0.69967   0.71005   0.71249   0.71735
  Beta virt. eigenvalues --    0.72040   0.72557   0.73000   0.73452   0.73975
  Beta virt. eigenvalues --    0.74238   0.74454   0.75014   0.75364   0.75712
  Beta virt. eigenvalues --    0.76015   0.76299   0.76608   0.77019   0.77420
  Beta virt. eigenvalues --    0.77985   0.78555   0.78760   0.79361   0.79740
  Beta virt. eigenvalues --    0.80619   0.80908   0.81387   0.81945   0.82210
  Beta virt. eigenvalues --    0.82731   0.83215   0.83412   0.83656   0.84206
  Beta virt. eigenvalues --    0.84381   0.84821   0.85121   0.85701   0.85871
  Beta virt. eigenvalues --    0.86586   0.86857   0.86892   0.87571   0.88163
  Beta virt. eigenvalues --    0.88282   0.88571   0.89097   0.89764   0.89907
  Beta virt. eigenvalues --    0.90027   0.90386   0.90706   0.90748   0.91211
  Beta virt. eigenvalues --    0.91438   0.91651   0.91953   0.92371   0.92721
  Beta virt. eigenvalues --    0.92965   0.93469   0.93638   0.93978   0.94405
  Beta virt. eigenvalues --    0.94594   0.95390   0.95406   0.96101   0.96357
  Beta virt. eigenvalues --    0.96627   0.97238   0.98012   0.98202   0.98549
  Beta virt. eigenvalues --    0.98933   0.99261   0.99879   1.00356   1.00610
  Beta virt. eigenvalues --    1.01746   1.02326   1.02698   1.03870   1.04363
  Beta virt. eigenvalues --    1.04719   1.05598   1.05924   1.06190   1.06705
  Beta virt. eigenvalues --    1.06993   1.07734   1.08162   1.08468   1.08873
  Beta virt. eigenvalues --    1.09389   1.09662   1.10199   1.10347   1.10912
  Beta virt. eigenvalues --    1.11173   1.11453   1.11731   1.12447   1.13004
  Beta virt. eigenvalues --    1.13309   1.14097   1.14841   1.15269   1.15599
  Beta virt. eigenvalues --    1.16201   1.16392   1.16947   1.17200   1.17382
  Beta virt. eigenvalues --    1.17628   1.17864   1.18322   1.18481   1.18922
  Beta virt. eigenvalues --    1.19220   1.19640   1.19925   1.20319   1.20788
  Beta virt. eigenvalues --    1.21469   1.21925   1.23364   1.24157   1.24541
  Beta virt. eigenvalues --    1.25094   1.26209   1.26839   1.27322   1.27399
  Beta virt. eigenvalues --    1.27617   1.28776   1.29367   1.30317   1.31153
  Beta virt. eigenvalues --    1.31535   1.31777   1.32432   1.32485   1.33823
  Beta virt. eigenvalues --    1.34062   1.34307   1.34944   1.35491   1.35646
  Beta virt. eigenvalues --    1.36187   1.36860   1.37076   1.37516   1.37614
  Beta virt. eigenvalues --    1.37882   1.38296   1.38666   1.39476   1.39869
  Beta virt. eigenvalues --    1.40190   1.40319   1.40949   1.41202   1.41311
  Beta virt. eigenvalues --    1.41808   1.41993   1.42124   1.42534   1.43092
  Beta virt. eigenvalues --    1.43143   1.43264   1.43834   1.43965   1.44394
  Beta virt. eigenvalues --    1.44648   1.44844   1.44934   1.45360   1.45463
  Beta virt. eigenvalues --    1.45634   1.46050   1.46514   1.46758   1.47268
  Beta virt. eigenvalues --    1.47550   1.47901   1.48220   1.48348   1.48927
  Beta virt. eigenvalues --    1.49150   1.49459   1.49684   1.49928   1.50380
  Beta virt. eigenvalues --    1.50522   1.50679   1.51018   1.51121   1.51629
  Beta virt. eigenvalues --    1.52216   1.52385   1.52760   1.53196   1.53565
  Beta virt. eigenvalues --    1.53732   1.54010   1.54597   1.55070   1.55316
  Beta virt. eigenvalues --    1.55366   1.55463   1.55926   1.56230   1.56999
  Beta virt. eigenvalues --    1.57390   1.57772   1.57815   1.58321   1.58460
  Beta virt. eigenvalues --    1.59086   1.59513   1.59657   1.60064   1.60495
  Beta virt. eigenvalues --    1.60730   1.60815   1.61644   1.61943   1.62106
  Beta virt. eigenvalues --    1.62736   1.63092   1.63319   1.63620   1.64023
  Beta virt. eigenvalues --    1.65074   1.65427   1.65909   1.66623   1.67171
  Beta virt. eigenvalues --    1.67309   1.67858   1.68189   1.68788   1.69699
  Beta virt. eigenvalues --    1.70775   1.70996   1.71611   1.72344   1.72439
  Beta virt. eigenvalues --    1.73211   1.73633   1.74260   1.74616   1.74915
  Beta virt. eigenvalues --    1.75377   1.75933   1.76692   1.77094   1.77259
  Beta virt. eigenvalues --    1.77632   1.77917   1.78128   1.78812   1.78937
  Beta virt. eigenvalues --    1.79237   1.79441   1.80338   1.80515   1.80784
  Beta virt. eigenvalues --    1.81491   1.81714   1.82303   1.82961   1.83356
  Beta virt. eigenvalues --    1.84285   1.84924   1.85039   1.85865   1.86244
  Beta virt. eigenvalues --    1.87225   1.87491   1.88349   1.88671   1.88996
  Beta virt. eigenvalues --    1.89454   1.89669   1.90159   1.90413   1.91071
  Beta virt. eigenvalues --    1.91298   1.91686   1.91991   1.92420   1.93003
  Beta virt. eigenvalues --    1.94260   1.94621   1.95126   1.96081   1.96623
  Beta virt. eigenvalues --    1.96826   1.97621   1.97853   1.97907   1.98628
  Beta virt. eigenvalues --    1.99253   1.99561   2.00564   2.00975   2.01202
  Beta virt. eigenvalues --    2.01948   2.02529   2.03109   2.03355   2.04002
  Beta virt. eigenvalues --    2.04364   2.04884   2.05548   2.06113   2.06673
  Beta virt. eigenvalues --    2.07350   2.07477   2.07754   2.08357   2.09018
  Beta virt. eigenvalues --    2.09716   2.09884   2.10471   2.10643   2.11176
  Beta virt. eigenvalues --    2.12050   2.12811   2.14094   2.14288   2.14379
  Beta virt. eigenvalues --    2.15366   2.15648   2.16223   2.16419   2.16569
  Beta virt. eigenvalues --    2.17094   2.17453   2.17866   2.18044   2.18686
  Beta virt. eigenvalues --    2.19237   2.19775   2.20245   2.20617   2.21122
  Beta virt. eigenvalues --    2.21524   2.21975   2.22640   2.22952   2.23488
  Beta virt. eigenvalues --    2.24455   2.25223   2.25425   2.25735   2.25932
  Beta virt. eigenvalues --    2.26491   2.27316   2.27542   2.27662   2.28285
  Beta virt. eigenvalues --    2.28493   2.28853   2.29160   2.29786   2.30099
  Beta virt. eigenvalues --    2.30445   2.30731   2.31222   2.31535   2.32109
  Beta virt. eigenvalues --    2.32890   2.33887   2.34188   2.34528   2.35371
  Beta virt. eigenvalues --    2.35462   2.35822   2.35964   2.36302   2.36698
  Beta virt. eigenvalues --    2.37241   2.37504   2.38026   2.38305   2.38901
  Beta virt. eigenvalues --    2.39888   2.40495   2.41640   2.42335   2.42644
  Beta virt. eigenvalues --    2.43381   2.43547   2.43689   2.44404   2.45159
  Beta virt. eigenvalues --    2.45400   2.45663   2.46104   2.46274   2.46368
  Beta virt. eigenvalues --    2.46654   2.47143   2.47259   2.47885   2.47936
  Beta virt. eigenvalues --    2.48410   2.48669   2.49103   2.49476   2.49645
  Beta virt. eigenvalues --    2.50226   2.50849   2.51197   2.51573   2.51749
  Beta virt. eigenvalues --    2.52370   2.52592   2.53202   2.54139   2.54372
  Beta virt. eigenvalues --    2.54615   2.55282   2.55664   2.56122   2.56369
  Beta virt. eigenvalues --    2.56588   2.57324   2.57723   2.58015   2.58478
  Beta virt. eigenvalues --    2.59087   2.59321   2.60275   2.60477   2.60705
  Beta virt. eigenvalues --    2.61015   2.61428   2.61761   2.62415   2.63036
  Beta virt. eigenvalues --    2.63729   2.64049   2.64588   2.64684   2.64926
  Beta virt. eigenvalues --    2.65508   2.66186   2.66562   2.66689   2.67487
  Beta virt. eigenvalues --    2.68113   2.68665   2.68767   2.69288   2.69482
  Beta virt. eigenvalues --    2.70398   2.70806   2.71740   2.72115   2.72502
  Beta virt. eigenvalues --    2.72553   2.72892   2.73050   2.73547   2.74057
  Beta virt. eigenvalues --    2.74816   2.75556   2.76005   2.76337   2.76853
  Beta virt. eigenvalues --    2.77191   2.77530   2.77753   2.78021   2.78426
  Beta virt. eigenvalues --    2.79186   2.79494   2.80170   2.80625   2.80931
  Beta virt. eigenvalues --    2.81215   2.81433   2.81742   2.82380   2.83194
  Beta virt. eigenvalues --    2.83526   2.83792   2.84004   2.84805   2.85189
  Beta virt. eigenvalues --    2.85471   2.85806   2.86227   2.86452   2.87145
  Beta virt. eigenvalues --    2.87539   2.88046   2.88666   2.88838   2.88981
  Beta virt. eigenvalues --    2.89749   2.90044   2.90663   2.90887   2.91440
  Beta virt. eigenvalues --    2.92162   2.92428   2.92856   2.93160   2.94050
  Beta virt. eigenvalues --    2.94587   2.95180   2.95341   2.96010   2.96206
  Beta virt. eigenvalues --    2.96593   2.97231   2.97346   2.97595   2.97804
  Beta virt. eigenvalues --    2.98748   2.98872   2.99231   2.99593   2.99799
  Beta virt. eigenvalues --    3.00329   3.00790   3.01259   3.01623   3.01849
  Beta virt. eigenvalues --    3.02387   3.02656   3.02956   3.03309   3.03757
  Beta virt. eigenvalues --    3.04301   3.04726   3.04996   3.05466   3.05857
  Beta virt. eigenvalues --    3.06115   3.06628   3.07073   3.07500   3.07866
  Beta virt. eigenvalues --    3.07994   3.08374   3.08890   3.09308   3.09411
  Beta virt. eigenvalues --    3.09725   3.09963   3.10329   3.10689   3.10899
  Beta virt. eigenvalues --    3.11431   3.11890   3.12522   3.12873   3.13127
  Beta virt. eigenvalues --    3.13306   3.14001   3.14248   3.14496   3.14885
  Beta virt. eigenvalues --    3.15183   3.15267   3.15618   3.15888   3.16223
  Beta virt. eigenvalues --    3.16654   3.16798   3.17290   3.17735   3.17913
  Beta virt. eigenvalues --    3.18191   3.18664   3.18807   3.19096   3.19303
  Beta virt. eigenvalues --    3.19519   3.20449   3.20715   3.20809   3.20903
  Beta virt. eigenvalues --    3.21063   3.21640   3.22330   3.22518   3.22707
  Beta virt. eigenvalues --    3.22903   3.23231   3.23706   3.23927   3.24173
  Beta virt. eigenvalues --    3.24411   3.24738   3.24911   3.25146   3.25674
  Beta virt. eigenvalues --    3.25907   3.26172   3.26616   3.26797   3.26951
  Beta virt. eigenvalues --    3.27332   3.27515   3.27955   3.28057   3.28188
  Beta virt. eigenvalues --    3.28864   3.29062   3.29394   3.29759   3.29927
  Beta virt. eigenvalues --    3.30284   3.30934   3.31701   3.31795   3.32075
  Beta virt. eigenvalues --    3.32923   3.33399   3.33627   3.33856   3.34352
  Beta virt. eigenvalues --    3.34612   3.35239   3.35332   3.36035   3.36291
  Beta virt. eigenvalues --    3.36861   3.37140   3.37691   3.38394   3.39190
  Beta virt. eigenvalues --    3.39549   3.40324   3.40649   3.41219   3.42021
  Beta virt. eigenvalues --    3.42633   3.42899   3.43105   3.43896   3.44676
  Beta virt. eigenvalues --    3.45160   3.45230   3.46315   3.46692   3.47350
  Beta virt. eigenvalues --    3.47435   3.47822   3.48054   3.48521   3.49499
  Beta virt. eigenvalues --    3.50078   3.50431   3.50686   3.51355   3.51799
  Beta virt. eigenvalues --    3.52184   3.53190   3.53638   3.53907   3.54727
  Beta virt. eigenvalues --    3.55156   3.55731   3.56439   3.56889   3.57199
  Beta virt. eigenvalues --    3.57767   3.58387   3.59601   3.59879   3.60301
  Beta virt. eigenvalues --    3.60670   3.60920   3.61225   3.62098   3.62423
  Beta virt. eigenvalues --    3.62572   3.63147   3.63309   3.63627   3.63781
  Beta virt. eigenvalues --    3.64224   3.64484   3.64779   3.65568   3.65907
  Beta virt. eigenvalues --    3.66871   3.67892   3.68246   3.69263   3.69738
  Beta virt. eigenvalues --    3.70463   3.71562   3.71765   3.72329   3.73453
  Beta virt. eigenvalues --    3.73728   3.75011   3.75199   3.75525   3.76609
  Beta virt. eigenvalues --    3.76739   3.76995   3.77461   3.78406   3.78504
  Beta virt. eigenvalues --    3.79642   3.80061   3.81142   3.81285   3.82227
  Beta virt. eigenvalues --    3.82446   3.83379   3.85371   3.86512   3.86726
  Beta virt. eigenvalues --    3.87062   3.87966   3.88637   3.88889   3.89582
  Beta virt. eigenvalues --    3.89692   3.89851   3.90534   3.91690   3.92444
  Beta virt. eigenvalues --    3.92769   3.93462   3.93898   3.94928   3.95379
  Beta virt. eigenvalues --    3.95778   3.96534   3.97448   3.97960   3.98911
  Beta virt. eigenvalues --    3.99915   4.00511   4.00942   4.01364   4.02062
  Beta virt. eigenvalues --    4.02745   4.02819   4.03394   4.03904   4.04584
  Beta virt. eigenvalues --    4.05042   4.05447   4.06281   4.07284   4.07957
  Beta virt. eigenvalues --    4.08211   4.08791   4.08880   4.10135   4.10353
  Beta virt. eigenvalues --    4.11099   4.11872   4.12685   4.13129   4.13700
  Beta virt. eigenvalues --    4.14091   4.15401   4.15968   4.16523   4.16722
  Beta virt. eigenvalues --    4.17926   4.18605   4.18880   4.19736   4.19796
  Beta virt. eigenvalues --    4.20115   4.21404   4.22039   4.22706   4.23361
  Beta virt. eigenvalues --    4.23612   4.24417   4.24510   4.24938   4.26050
  Beta virt. eigenvalues --    4.26781   4.27535   4.28817   4.29675   4.30192
  Beta virt. eigenvalues --    4.30634   4.31348   4.32456   4.32589   4.32665
  Beta virt. eigenvalues --    4.33315   4.33795   4.34483   4.34863   4.34897
  Beta virt. eigenvalues --    4.35739   4.36605   4.37716   4.38232   4.38736
  Beta virt. eigenvalues --    4.40040   4.40864   4.41438   4.41982   4.42657
  Beta virt. eigenvalues --    4.43502   4.44509   4.45064   4.45991   4.46926
  Beta virt. eigenvalues --    4.47386   4.48066   4.50870   4.52891   4.53582
  Beta virt. eigenvalues --    4.54659   4.55195   4.56874   4.57193   4.57988
  Beta virt. eigenvalues --    4.58159   4.58634   4.60504   4.61746   4.62853
  Beta virt. eigenvalues --    4.63393   4.64373   4.65353   4.66381   4.67893
  Beta virt. eigenvalues --    4.69748   4.70173   4.71343   4.71468   4.72343
  Beta virt. eigenvalues --    4.73365   4.73417   4.74540   4.74870   4.75666
  Beta virt. eigenvalues --    4.76375   4.76959   4.78000   4.80522   4.81165
  Beta virt. eigenvalues --    4.81861   4.82453   4.82864   4.84024   4.85594
  Beta virt. eigenvalues --    4.87598   4.88186   4.88646   4.89689   4.91032
  Beta virt. eigenvalues --    4.91694   4.92875   4.93086   4.93802   4.95949
  Beta virt. eigenvalues --    4.97003   4.97878   4.99083   5.02264   5.02402
  Beta virt. eigenvalues --    5.03423   5.06009   5.06993   5.07563   5.09077
  Beta virt. eigenvalues --    5.09344   5.11080   5.11535   5.12672   5.13092
  Beta virt. eigenvalues --    5.14283   5.14629   5.16375   5.17158   5.23609
  Beta virt. eigenvalues --    5.24318   5.25814   5.26120   5.26490   5.26803
  Beta virt. eigenvalues --    5.27227   5.27816   5.28292   5.30188   5.35933
  Beta virt. eigenvalues --    5.36395   5.37433   5.38174   5.39432   5.39578
  Beta virt. eigenvalues --    5.40420   5.42705   5.48817   5.49072   5.50120
  Beta virt. eigenvalues --    5.50875   5.51681   5.52597   5.55241   5.56067
  Beta virt. eigenvalues --    5.56249   5.60590   5.64373   5.65094   5.65881
  Beta virt. eigenvalues --    5.68470   5.75153   5.75694   5.77255   5.79890
  Beta virt. eigenvalues --    5.88353   5.89273   5.89891   5.98537   5.99523
  Beta virt. eigenvalues --    5.99703   6.00815   6.06298   6.10910   6.14313
  Beta virt. eigenvalues --    6.21931   6.22283   6.29365   6.33601   6.39044
  Beta virt. eigenvalues --    6.39362   6.51568   6.83235   7.14930   8.92285
  Beta virt. eigenvalues --    9.08344   9.25410  19.47948  22.20564  22.26401
  Beta virt. eigenvalues --   22.26721  22.36359  22.37111  22.43028  22.43878
[...]
  1264. RY*(   1) H  68                  0.00023     1.30790   
  1265. RY*(   2) H  68                  0.00005     1.06329   
  1266. RY*(   3) H  68                  0.00003     2.03926   
  1267. RY*(   4) H  68                  0.00004     2.04280   
  1268. RY*(   5) H  68                  0.00000     2.80843   
  1269. RY*(   1) H  69                  0.00035     1.45261   
  1270. RY*(   2) H  69                  0.00010     1.90378   
  1271. RY*(   3) H  69                  0.00003     2.37500   
  1272. RY*(   4) H  69                  0.00004     2.52262   
  1273. RY*(   5) H  69                  0.00001     1.87056   
  1274. RY*(   1) H  70                  0.00023     1.54338   
  1275. RY*(   2) H  70                  0.00009     1.72873   
  1276. RY*(   3) H  70                  0.00003     2.14155   
  1277. RY*(   4) H  70                  0.00002     2.76445   
  1278. RY*(   5) H  70                  0.00002     1.41935   
  1279. RY*(   1) S  71                  0.00207     0.54427   
  1280. RY*(   2) S  71                  0.00161     0.56823   
  1281. RY*(   3) S  71                  0.00112     0.56016   
  1282. RY*(   4) S  71                  0.00073     0.78694   
  1283. RY*(   5) S  71                  0.00045     1.18267   
  1284. RY*(   6) S  71                  0.00024     1.07536   
  1285. RY*(   7) S  71                  0.00020     0.96183   
  1286. RY*(   8) S  71                  0.00009     2.49155   
  1287. RY*(   9) S  71                  0.00007     0.96351   
  1288. RY*(  10) S  71                  0.00005     2.30182   
  1289. RY*(  11) S  71                  0.00003     1.53642   
  1290. RY*(  12) S  71                  0.00003     1.86923   
  1291. RY*(  13) S  71                  0.00002     2.47320   
  1292. RY*(  14) S  71                  0.00001     2.02086   
  1293. RY*(  15) S  71                  0.00000    17.24382   
  1294. RY*(  16) S  71                  0.00000     8.04008   
  1295. RY*(  17) S  71                  0.00000     1.47849   
  1296. RY*(  18) S  71                  0.00000     8.44766   
  1297. RY*(  19) S  71                  0.00000     1.65333   
  1298. RY*(  20) S  71                  0.00000     2.19083   
  1299. RY*(  21) S  71                  0.00000     8.39400   
  1300. RY*(  22) S  71                  0.00001     2.18951   
  1301. RY*(  23) S  71                  0.00000     1.96012   
  1302. RY*(  24) S  71                  0.00000     1.96090   
  1303. RY*(  25) S  71                  0.00000     1.92814   
  1304. RY*(  26) S  71                  0.00000     1.76689   
  1305. RY*(  27) S  71                  0.00000     1.86990   
  1306. RY*(  28) S  71                  0.00000     2.09481   
  1307. RY*(   1) H  72                  0.00087     0.82919   
  1308. RY*(   2) H  72                  0.00014     1.71092   
  1309. RY*(   3) H  72                  0.00011     2.01129   
  1310. RY*(   4) H  72                  0.00006     1.86214   
  1311. RY*(   5) H  72                  0.00001     2.51787   
  1312. BD*(   1)Fe   1 - N   2          0.03051     0.25330   
  1313. BD*(   1)Fe   1 - N   3          0.03853     0.23355   
  1314. BD*(   1)Fe   1 - N   4          0.03061     0.25394   
  1315. BD*(   1)Fe   1 - N   5          0.04015     0.24452   
  1316. BD*(   1)Fe   1 - S  71          0.02793     0.10984   
  1317. BD*(   1) N   2 - C   6          0.01408     0.38708   
  1318. BD*(   2) N   2 - C   6          0.33039    -0.11484  1363(v),1331(v),1336(v)
                                                    284(g),178(g),146(v),698(v)
                                                    182(g),286(g)
  1319. BD*(   1) N   2 - C   9          0.01393     0.38661   
  1320. BD*(   1) N   3 - C  10          0.01393     0.38664   
  1321. BD*(   1) N   3 - C  13          0.01379     0.38899   
  1322. BD*(   1) N   4 - C  14          0.01335     0.39444   
  1323. BD*(   2) N   4 - C  14          0.31797    -0.11053  1345(v),1349(v),1354(v)
                                                    492(g),230(g),146(v),760(v)
  1324. BD*(   1) N   4 - C  17          0.01391     0.38826   
  1325. BD*(   1) N   5 - C  18          0.01350     0.39406   
  1326. BD*(   2) N   5 - C  18          0.32542    -0.10787  1354(v),1358(v),1363(v)
                                                    145(v),595(g),258(g),596(g)
                                                    146(v)
  1327. BD*(   1) N   5 - C  21          0.01381     0.38887   
  1328. BD*(   1) C   6 - C   7          0.01739     0.37687   
  1329. BD*(   1) C   6 - C  22          0.01028     0.46332   
  1330. BD*(   1) C   7 - C   8          0.01160     0.49716   
  1331. BD*(   2) C   7 - C   8          0.11963    -0.04048  1336(v),1318(v),1372(v)
                                                    1368(v),1369(v),1371(v)
  1332. BD*(   1) C   7 - C  30          0.00805     0.31382   
  1333. BD*(   1) C   8 - C   9          0.01753     0.37755   
  1334. BD*(   1) C   8 - C  34          0.00811     0.31279   
  1335. BD*(   1) C   9 - C  24          0.01045     0.45777   
  1336. BD*(   2) C   9 - C  24          0.20500    -0.07060  11(v),1331(v),1318(v),729(g)
                                                    1363(r),1345(r),364(g)
  1337. BD*(   1) C  10 - C  11          0.01745     0.37611   
  1338. BD*(   1) C  10 - C  24          0.01041     0.45813   
  1339. BD*(   1) C  11 - C  12          0.01157     0.49744   
  1340. BD*(   2) C  11 - C  12          0.12086    -0.04008  1345(v),11(v),1394(v)
                                                    1392(v),1391(v),1395(v)
  1341. BD*(   1) C  11 - C  60          0.00812     0.31196   
  1342. BD*(   1) C  12 - C  13          0.01723     0.37580   
  1343. BD*(   1) C  12 - C  56          0.00803     0.31340   
  1344. BD*(   1) C  13 - C  26          0.01034     0.46344   
  1345. BD*(   2) C  13 - C  26          0.19790    -0.06698  1323(v),1340(v),11(v)
                                                    1354(r),760(g),1336(r)
                                                    468(g),1363(r)
  1346. BD*(   1) C  14 - C  15          0.01687     0.37558   
  1347. BD*(   1) C  14 - C  26          0.01025     0.46072   
  1348. BD*(   1) C  15 - C  16          0.01263     0.48537   
  1349. BD*(   2) C  15 - C  16          0.13519    -0.04082  1387(v),1354(v),1323(v)
                                                    1382(v),1383(v)
  1350. BD*(   1) C  15 - C  51          0.01330     0.39619   
  1351. BD*(   1) C  16 - C  17          0.01694     0.38532   
  1352. BD*(   1) C  16 - C  47          0.00766     0.31881   
  1353. BD*(   1) C  17 - C  28          0.01040     0.46099   
  1354. BD*(   2) C  17 - C  28          0.20251    -0.06586  1326(v),1349(v),1323(v)
                                                    1345(r),1363(r),792(g)
                                                    572(g)
  1355. BD*(   1) C  18 - C  19          0.01694     0.37273   
  1356. BD*(   1) C  18 - C  28          0.01011     0.46531   
  1357. BD*(   1) C  19 - C  20          0.01260     0.48599   
  1358. BD*(   2) C  19 - C  20          0.13682    -0.04137  1379(v),1363(v),1326(v)
                                                    1376(v),1374(v)
  1359. BD*(   1) C  19 - C  42          0.01330     0.39504   
  1360. BD*(   1) C  20 - C  21          0.01682     0.38165   
  1361. BD*(   1) C  20 - C  38          0.00767     0.31622   
  1362. BD*(   1) C  21 - C  22          0.01033     0.45934   
  1363. BD*(   2) C  21 - C  22          0.20216    -0.06741  1318(v),1358(v),1326(v)
                                                    1354(r),698(g),1336(r)
                                                    676(g),1345(r)
  1364. BD*(   1) C  22 - H  23          0.00624     0.32542   
  1365. BD*(   1) C  24 - H  25          0.00622     0.32622   
  1366. BD*(   1) C  26 - H  27          0.00629     0.32664   
  1367. BD*(   1) C  28 - H  29          0.00646     0.32736   
  1368. BD*(   1) C  30 - H  31          0.00465     0.28709   
  1369. BD*(   1) C  30 - H  32          0.00456     0.28761   
  1370. BD*(   1) C  30 - H  33          0.00299     0.30035   
  1371. BD*(   1) C  34 - H  35          0.00437     0.28637   
  1372. BD*(   1) C  34 - H  36          0.00490     0.28601   
  1373. BD*(   1) C  34 - H  37          0.00299     0.29988   
  1374. BD*(   1) C  38 - H  39          0.00428     0.29348   
  1375. BD*(   1) C  38 - H  40          0.00368     0.30290   
  1376. BD*(   1) C  38 - H  41          0.00521     0.28764   
  1377. BD*(   1) C  42 - H  43          0.01020     0.32978   
  1378. BD*(   1) C  42 - C  44          0.00364     0.53960   
  1379. BD*(   2) C  42 - C  44          0.02802    -0.03231   
  1380. BD*(   1) C  44 - H  45          0.00510     0.34648   
  1381. BD*(   1) C  44 - H  46          0.00383     0.35116   
  1382. BD*(   1) C  47 - H  48          0.00530     0.28993   
  1383. BD*(   1) C  47 - H  49          0.00449     0.29527   
  1384. BD*(   1) C  47 - H  50          0.00373     0.30511   
  1385. BD*(   1) C  51 - H  52          0.01033     0.33011   
  1386. BD*(   1) C  51 - C  53          0.00366     0.53980   
  1387. BD*(   2) C  51 - C  53          0.02961    -0.03132   
  1388. BD*(   1) C  53 - H  54          0.00511     0.34712   
  1389. BD*(   1) C  53 - H  55          0.00385     0.35175   
  1390. BD*(   1) C  56 - H  57          0.00299     0.29983   
  1391. BD*(   1) C  56 - H  58          0.00437     0.28744   
  1392. BD*(   1) C  56 - H  59          0.00449     0.28721   
  1393. BD*(   1) C  60 - H  61          0.00298     0.29935   
  1394. BD*(   1) C  60 - H  62          0.00461     0.28616   
  1395. BD*(   1) C  60 - H  63          0.00436     0.28512   
  1398. BD*(   1) C  67 - H  68          0.00433     0.24939   
  1399. BD*(   1) C  67 - H  69          0.00589     0.25991   
  1400. BD*(   1) C  67 - H  70          0.00358     0.24807   
  1401. BD*(   1) C  67 - S  71          0.00544     0.00786   
  1402. BD*(   1) S  71 - H  72          0.00710     0.05519   
       -------------------------------
              Total Lewis  139.25780  ( 97.3106%)
        Valence non-Lewis    3.57921  (  2.5011%)
        Rydberg non-Lewis    0.26945  (  0.1883%)
       -------------------------------
            Total unit  1  143.10646  (100.0000%)
           Charge unit  1    0.89354
 
 Molecular unit  2  (H2O)
    87. BD (   1) O  64 - H  65          0.99603    -0.94060  146(r),1234(v),152(r),145(r)
                                                    1316(r),155(r),1312(r)
                                                    230(r),233(r),158(r),1282(r)
                                                    156(r),235(r),232(r),183(r)
                                                    157(r),1314(r)
    88. BD (   1) O  64 - H  66          0.99762    -1.00263  146(r),152(r),1230(v),145(r)
                                                    1316(r),155(r),181(r),183(r)
                                                    158(r),1282(r),153(r),256(r)
                                                    180(r)
   137. CR (   1) O  64                  0.99990   -19.09995  146(r),1234(v),1230(v)
                                                    1316(r),145(r),155(r)
                                                    1314(r),158(r),1313(r)
                                                    1315(r)
   148. LP (   1) O  64                  0.98794    -0.46317  145(r),1233(v),1313(r)
                                                    1315(r),1229(v),209(r)
                                                    261(r),160(r),1326(r),146(r)
                                                    264(r)
   149. LP (   2) O  64                  0.90452    -0.63173  146(r),145(r),1316(r)
                                                    1396(g),1230(v),1234(v)
                                                    1397(g),157(r),156(r),158(r)
                                                    181(r),257(r),205(r),207(r)
                                                    259(r),230(r),180(r),155(r)
                                                    258(r),178(r),154(r),233(r)
                                                    232(r),159(r),256(r),1320(r)
                                                    1325(r),204(r),206(r)
                                                    1321(r),1319(r)
  1202. RY*(   1) O  64                  0.00128     1.04712   
  1203. RY*(   2) O  64                  0.00055     0.53053   
  1204. RY*(   3) O  64                  0.00022     1.28911   
  1205. RY*(   4) O  64                  0.00010     0.79939   
  1206. RY*(   5) O  64                  0.00003     2.66114   
  1207. RY*(   6) O  64                  0.00001     5.01665   
  1208. RY*(   7) O  64                  0.00002     2.02626   
  1209. RY*(   8) O  64                  0.00000     3.08634   
  1210. RY*(   9) O  64                  0.00001     3.03307   
  1211. RY*(  10) O  64                  0.00001     2.64735   
  1212. RY*(  11) O  64                  0.00000     6.28062   
  1213. RY*(  12) O  64                  0.00000    41.49937   
  1214. RY*(  13) O  64                  0.00000     6.37677   
  1215. RY*(  14) O  64                  0.00000     2.86997   
  1216. RY*(  15) O  64                  0.00000     6.34110   
  1217. RY*(  16) O  64                  0.00000     2.03878   
  1218. RY*(  17) O  64                  0.00000     6.08597   
  1219. RY*(  18) O  64                  0.00000     2.42808   
  1220. RY*(  19) O  64                  0.00000     6.39974   
  1221. RY*(  20) O  64                  0.00000     5.22970   
  1222. RY*(  21) O  64                  0.00000     5.46004   
  1223. RY*(  22) O  64                  0.00000     5.27446   
  1224. RY*(  23) O  64                  0.00000     5.16883   
  1225. RY*(  24) O  64                  0.00000     5.52033   
  1226. RY*(  25) O  64                  0.00000     5.25629   
  1227. RY*(  26) O  64                  0.00000     5.45225   
  1228. RY*(   1) H  65                  0.00045     0.86887   
  1229. RY*(   2) H  65                  0.00039     1.89312   
  1230. RY*(   3) H  65                  0.00033     2.06022   
  1231. RY*(   4) H  65                  0.00009     1.93100   
  1232. RY*(   5) H  65                  0.00001     2.75444   
  1233. RY*(   1) H  66                  0.00044     1.89841   
  1234. RY*(   2) H  66                  0.00038     2.00647   
  1235. RY*(   3) H  66                  0.00019     1.64482   
  1236. RY*(   4) H  66                  0.00011     1.37665   
  1237. RY*(   5) H  66                  0.00000     2.89287   
  1396. BD*(   1) O  64 - H  65          0.00182     0.30607   
  1397. BD*(   1) O  64 - H  66          0.00101     0.48675   
       -------------------------------
              Total Lewis    4.88601  ( 99.8477%)
        Valence non-Lewis    0.00282  (  0.0577%)
        Rydberg non-Lewis    0.00463  (  0.0946%)
       -------------------------------
            Total unit  2    4.89346  (100.0000%)
           Charge unit  2    0.10654
 Unable to Open any file for archive entry.
 1\1\GINC-BGN1011\SP\UAPFD\def2TZVP\C31H34Fe1N4O1S1(1+,2)\BEBJONES\31-M
 ar-2024\0\\# apfd/def2TZVP scf=maxcycle=999 geom=check pop=nbo\\1cpt_I
 II_D\\1,2\Fe,0,36.6423505258,12.9319131961,86.9431684154\N,0,34.698483
 2807,12.9856128212,87.440777613\N,0,36.1938165873,13.7242294488,85.157
 0316289\N,0,38.5795010368,12.9385548417,86.4570974307\N,0,37.101373666
 7,12.3050862065,88.7806544037\C,0,34.1619614972,12.6915231933,88.65608
 00936\C,0,32.7304483427,12.8917652778,88.6433569184\C,0,32.4141006067,
 13.3113250838,87.3883949947\C,0,33.6601456058,13.390657822,86.66045577
 94\C,0,34.9599312472,14.0568049951,84.6907003018\C,0,35.0448141311,14.
 5715729118,83.3420769685\C,0,36.3666981428,14.5899091655,83.0237187541
 \C,0,37.0683841343,14.0577996689,84.1710307868\C,0,39.1383399495,13.40
 36860835,85.311883608\C,0,40.5664251323,13.1583838283,85.3013205776\C,
 0,40.8484719012,12.5226780698,86.4812462821\C,0,39.6002219044,12.41899
 16754,87.1926655976\C,0,38.3210023004,11.9075986401,89.2209902202\C,0,
 38.2506221878,11.469497383,90.6024194054\C,0,36.9387402249,11.59392072
 36,90.9702475592\C,0,36.2438308955,12.111600513,89.8177051122\C,0,34.8
 739077273,12.2961808829,89.7709857699\H,0,34.3124621512,12.0953144085,
 90.6701111174\C,0,33.7748447834,13.9231804248,85.3895649172\H,0,32.867
 4929222,14.2361395186,84.8969088284\C,0,38.4422799331,13.9371614091,84
 .2425976974\H,0,39.0127788239,14.2564958615,83.3843769941\C,0,39.48413
 85453,11.9243680926,88.4789528629\H,0,40.3762040536,11.5337749319,88.9
 430320759\C,0,31.8380948552,12.6525212163,89.8121215943\H,0,32.1132998
 401,13.3015431608,90.6439289809\H,0,31.9175157589,11.6190907658,90.149
 7841639\H,0,30.8008748599,12.8506571033,89.5535881036\C,0,31.084366633
 4,13.6667932758,86.8177495935\H,0,30.8895526063,13.0907566998,85.91317
 79621\H,0,31.0472866277,14.7255155933,86.5585347907\H,0,30.2905379624,
 13.4628220877,87.5319255061\C,0,36.3213558129,11.3470914402,92.3019946
 953\H,0,35.5771780481,12.108885792,92.5299786279\H,0,37.0860686853,11.
 3637646002,93.0759682082\H,0,35.827903484,10.3742488354,92.3269664346\
 C,0,39.3817182462,11.0184692685,91.3831537184\H,0,40.3273128388,11.496
 7111875,91.155612633\C,0,39.3422304289,10.0845675259,92.3275701214\H,0
 ,38.4417974199,9.5437781848,92.5607050929\H,0,40.2230128539,9.80729772
 92,92.8825867363\C,0,42.1731545861,12.0914707178,87.0048409734\H,0,42.
 3086637957,11.0166215484,86.8751684102\H,0,42.260712458,12.3153121788,
 88.0668039179\H,0,42.9708720975,12.6066257923,86.4738559259\C,0,41.458
 2499524,13.5442722692,84.2297646598\H,0,41.2061158173,14.4682196068,83
 .7218280898\C,0,42.5264612467,12.8605823096,83.8332552665\H,0,42.79453
 13412,11.9141174233,84.2693730484\H,0,43.1571660694,13.2142827289,83.0
 346188926\C,0,37.0297734454,15.0343562403,81.7660141209\H,0,36.2937745
 863,15.3584609642,81.0343817334\H,0,37.613367718,14.2226202474,81.3312
 454717\H,0,37.7050224952,15.8670825582,81.9642520609\C,0,33.8708484791
 ,15.0047224791,82.5331676992\H,0,34.1821549871,15.3251441498,81.542127
 2264\H,0,33.3579471461,15.8366623677,83.0166571296\H,0,33.1577657645,1
 4.1875044997,82.4215057287\O,0,36.73,15.02,87.729\H,0,35.833,15.194,88
 .014\H,0,37.419,15.578,87.791\C,0,34.8813497139,10.5252032915,85.30266
 17161\H,0,34.9034557454,9.6397385201,84.6750504472\H,0,34.6565529151,1
 1.4151829208,84.7253289622\H,0,34.1486959715,10.4057650781,86.09367022
 73\S,0,36.5038522484,10.7197417917,86.1209259235\H,0,37.18876632,10.90
 29367851,84.9860351447\\Version=ES64L-G16RevC.02\State=2-A\HF=-3156.99
 16034\S2=0.815819\S2-1=0.\S2A=0.751194\RMSD=2.226e-09\Dipole=-0.858413
 8,-0.0160838,-0.4620316\Quadrupole=10.7791024,-18.5848605,7.8057581,-3
 .2122109,-0.895896,-9.5452593\PG=C01 [X(C31H34Fe1N4O1S1)]\\@
 The archive entry for this job was punched.


 I (ERNEST RUTHERFORD) CAME INTO THE ROOM, WHICH WAS HALF DARK, AND PRESENTLY
 SPOTTED LORD KELVIN IN THE AUDIENCE AND REALIZED I WAS IN TROUBLE AT
 THE LAST PART OF MY SPEECH DEALING THE AGE OF THE EARTH, WHERE MY VIEWS
 CONFLICTED WITH HIS.  TO MY RELIEF KELVIN FELL FAST ASLEEP, BUT AS I CAME
 TO THE IMPORTANT POINT, I SAW THE OLD BIRD SIT UP AND COCK A BALEFUL GLANCE
 AT ME! THEN A SUDDEN INSPIRATION CAME AND I SAID LORD KELVIN HAD LIMITED
 THE AGE OF THE EARTH PROVIDED NO NEW SOURCE WAS DISCOVERED. THAT
 PROPHETIC UTTERANCE REFERS TO WHAT WE ARE NOW CONSIDERING TONIGHT, RADIUM!
 BEHOLD!  THE OLD BOY BEAMED UPON ME.
 Job cpu time:       2 days 16 hours 29 minutes 39.0 seconds.
 Elapsed time:       0 days  0 hours 58 minutes 54.3 seconds.
 File lengths (MBytes):  RWF=   1809 Int=      0 D2E=      0 Chk=    162 Scr=      1
 Normal termination of Gaussian 16 at Sun Mar 31 00:19:08 2024.
