 Entering Gaussian System, Link 0=g16
 Input=1cpw16.com
 Output=1cpw16.log
 Initial command:
 /sw/chem/gaussian/g16_C02/a100/g16/l1.exe "/local/bebjones_8062731/Gau-1158204.inp" -scrdir="/local/bebjones_8062731/"
 Entering Link 1 = /sw/chem/gaussian/g16_C02/a100/g16/l1.exe PID=   1158205.
  
 Copyright (c) 1988-2021, Gaussian, Inc.  All Rights Reserved.
  
 This is part of the Gaussian(R) 16 program.  It is based on
 the Gaussian(R) 09 system (copyright 2009, Gaussian, Inc.),
 the Gaussian(R) 03 system (copyright 2003, Gaussian, Inc.),
 the Gaussian(R) 98 system (copyright 1998, Gaussian, Inc.),
 the Gaussian(R) 94 system (copyright 1995, Gaussian, Inc.),
 the Gaussian 92(TM) system (copyright 1992, Gaussian, Inc.),
 the Gaussian 90(TM) system (copyright 1990, Gaussian, Inc.),
 the Gaussian 88(TM) system (copyright 1988, Gaussian, Inc.),
 the Gaussian 86(TM) system (copyright 1986, Carnegie Mellon
 University), and the Gaussian 82(TM) system (copyright 1983,
 Carnegie Mellon University). Gaussian is a federally registered
 trademark of Gaussian, Inc.
  
 This software contains proprietary and confidential information,
 including trade secrets, belonging to Gaussian, Inc.
  
 This software is provided under written license and may be
 used, copied, transmitted, or stored only in accord with that
 written license.
  
 The following legend is applicable only to US Government
 contracts under FAR:
  
                    RESTRICTED RIGHTS LEGEND
  
 Use, reproduction and disclosure by the US Government is
 subject to restrictions as set forth in subparagraphs (a)
 and (c) of the Commercial Computer Software - Restricted
 Rights clause in FAR 52.227-19.
  
 Gaussian, Inc.
 340 Quinnipiac St., Bldg. 40, Wallingford CT 06492
  
  
 ---------------------------------------------------------------
 Warning -- This program may not be used in any manner that
 competes with the business of Gaussian, Inc. or will provide
 assistance to any competitor of Gaussian, Inc.  The licensee
 of this program is prohibited from giving any competitor of
 Gaussian, Inc. access to this program.  By using this program,
 the user acknowledges that Gaussian, Inc. is engaged in the
 business of creating and licensing software in the field of
 computational chemistry and represents and warrants to the
 licensee that it is not a competitor of Gaussian, Inc. and that
 it will not use this program in any manner prohibited above.
 ---------------------------------------------------------------
  

 Cite this work as:
 Gaussian 16, Revision C.02,
 M. J. Frisch, G. W. Trucks, H. B. Schlegel, G. E. Scuseria, 
 M. A. Robb, J. R. Cheeseman, G. Scalmani, V. Barone, 
 G. A. Petersson, H. Nakatsuji, X. Li, M. Caricato, A. V. Marenich, 
 J. Bloino, B. G. Janesko, R. Gomperts, B. Mennucci, H. P. Hratchian, 
 J. V. Ortiz, A. F. Izmaylov, J. L. Sonnenberg, D. Williams-Young, 
 F. Ding, F. Lipparini, F. Egidi, J. Goings, B. Peng, A. Petrone, 
 T. Henderson, D. Ranasinghe, V. G. Zakrzewski, J. Gao, N. Rega, 
 G. Zheng, W. Liang, M. Hada, M. Ehara, K. Toyota, R. Fukuda, 
 J. Hasegawa, M. Ishida, T. Nakajima, Y. Honda, O. Kitao, H. Nakai, 
 T. Vreven, K. Throssell, J. A. Montgomery, Jr., J. E. Peralta, 
 F. Ogliaro, M. J. Bearpark, J. J. Heyd, E. N. Brothers, K. N. Kudin, 
 V. N. Staroverov, T. A. Keith, R. Kobayashi, J. Normand, 
 K. Raghavachari, A. P. Rendell, J. C. Burant, S. S. Iyengar, 
 J. Tomasi, M. Cossi, J. M. Millam, M. Klene, C. Adamo, R. Cammi, 
 J. W. Ochterski, R. L. Martin, K. Morokuma, O. Farkas, 
 J. B. Foresman, and D. J. Fox, Gaussian, Inc., Wallingford CT, 2019.
 
 ******************************************
 Gaussian 16:  ES64L-G16RevC.02  7-Dec-2021
                28-Oct-2024 
 ******************************************
 %mem=16GB
 %CPU=0-71
 SetSPE:  set environment variable "OMP_PROC_BIND" = "true"
 SetSPE:  set environment variable "OMP_PLACES" = "{0},{1},{2},{3},{4},{5},{6},{7},{8},{9},{10},{11},{12},{13},{14},{15},{16},{17},{18},{19},{20},{21},{22},{23},{24},{25},{26},{27},{28},{29},{30},{31},{32},{33},{34},{35},{36},{37},{38},{39},{40},{41},{42},{43},{44},{45},{46},{47},{48},{49},{50},{51},{52},{53},{54},{55},{56},{57},{58},{59},{60},{61},{62},{63},{64},{65},{66},{67},{68},{69},{70},{71}"
 Will use up to   72 processors via shared memory.
 %gpucpu=0,1,2,3=0,1,2,3
 Will use    4 GPUs:
 Thread  CPU   GPU
      0    0     0
      1    1     1
      2    2     2
      3    3     3
      4    4    -1
      5    5    -1
      6    6    -1
      7    7    -1
      8    8    -1
      9    9    -1
     10   10    -1
     11   11    -1
     12   12    -1
     13   13    -1
     14   14    -1
     15   15    -1
     16   16    -1
     17   17    -1
     18   18    -1
     19   19    -1
     20   20    -1
     21   21    -1
     22   22    -1
     23   23    -1
     24   24    -1
     25   25    -1
     26   26    -1
     27   27    -1
     28   28    -1
     29   29    -1
     30   30    -1
     31   31    -1
     32   32    -1
     33   33    -1
     34   34    -1
     35   35    -1
     36   36    -1
     37   37    -1
     38   38    -1
     39   39    -1
     40   40    -1
     41   41    -1
     42   42    -1
     43   43    -1
     44   44    -1
     45   45    -1
     46   46    -1
     47   47    -1
     48   48    -1
     49   49    -1
     50   50    -1
     51   51    -1
     52   52    -1
     53   53    -1
     54   54    -1
     55   55    -1
     56   56    -1
     57   57    -1
     58   58    -1
     59   59    -1
     60   60    -1
     61   61    -1
     62   62    -1
     63   63    -1
     64   64    -1
     65   65    -1
     66   66    -1
     67   67    -1
     68   68    -1
     69   69    -1
     70   70    -1
     71   71    -1
 SetGPE:  set environment variable "OMP_PROC_BIND" = "true"
 SetGPE:  set environment variable "OMP_PLACES" = "{0},{1},{2},{3},{4},{5},{6},{7},{8},{9},{10},{11},{12},{13},{14},{15},{16},{17},{18},{19},{20},{21},{22},{23},{24},{25},{26},{27},{28},{29},{30},{31},{32},{33},{34},{35},{36},{37},{38},{39},{40},{41},{42},{43},{44},{45},{46},{47},{48},{49},{50},{51},{52},{53},{54},{55},{56},{57},{58},{59},{60},{61},{62},{63},{64},{65},{66},{67},{68},{69},{70},{71}"
 %oldchk=1cpw_III_Dre.chk
 %chk=1cpw_III_Hn.chk
 Properties for Device   0
 Minimum vector length:                              32
 Maximum vector length:                            1024
 Number of SMPs:                                    108
 Maximum number of threads per SMP:                2048
 Number of ASync Engines:                             5
 Memory:                                           9207742464
 Properties for Device   1
 Minimum vector length:                              32
 Maximum vector length:                            1024
 Number of SMPs:                                    108
 Maximum number of threads per SMP:                2048
 Number of ASync Engines:                             5
 Memory:                                           9207742464
 Properties for Device   2
 Minimum vector length:                              32
 Maximum vector length:                            1024
 Number of SMPs:                                    108
 Maximum number of threads per SMP:                2048
 Number of ASync Engines:                             5
 Memory:                                           9207742464
 Properties for Device   3
 Minimum vector length:                              32
 Maximum vector length:                            1024
 Number of SMPs:                                    108
 Maximum number of threads per SMP:                2048
 Number of ASync Engines:                             5
 Memory:                                           9207742464
   8286968217 words of memory will be used on each GPU.
 Copying data from "1cpw_III_Dre.chk" to current chk file "1cpw_III_Hn.chk"
 IOpt=  2 FromEx=T IUOpen= 4 IOptOp= 5 NList=   0 IFRang= 0 IUIn= 4 IUOut= 2.
 --------------------------------------------------------------
 # apfd/def2TZVP guess=read scf=maxcycle=999 geom=check pop=nbo
 --------------------------------------------------------------
 1/29=2,38=1,172=1/1;
 2/12=2,40=1/2;
 3/5=44,7=101,11=2,14=-4,25=1,30=1,74=-44,116=-2/1,2,3;
 4/5=1/1;
 5/5=2,7=999,38=6/2;
 6/7=2,8=2,9=2,10=2,28=1,40=1/1,7;
 99/5=1,9=1/99;
 ----------
 1cpw_III_H
 ----------
 Structure from the checkpoint file:  "1cpw_III_Hn.chk"
 Charge =  1 Multiplicity = 6
 Z-Matrix found in chk file.
 Fe,0,35.4567140983,3.9396462268,10.2987025808
 N,0,37.3806700088,3.6702652969,9.8098081696
 N,0,35.2815414456,5.2986895251,8.8304262691
 N,0,33.5643395837,4.3120111536,10.8691441143
 N,0,35.6800893622,2.7192853715,11.8664494246
 C,0,38.2416607932,2.7861527819,10.3795441043
 C,0,39.4698703765,2.7027592422,9.6200860003
 C,0,39.3185766012,3.5376736377,8.5574698987
 C,0,37.9996621441,4.1176655487,8.6842769256
 C,0,36.2011687256,5.5742425514,7.864937517
 C,0,35.6812377475,6.5241501229,6.9149893045
 C,0,34.395564484,6.7919696874,7.3043189935
 C,0,34.1587322667,5.9796884255,8.4828345192
 C,0,32.679016897,5.1461959162,10.2570384248
 C,0,31.4045663775,5.1192563653,10.9262316932
 C,0,31.5796956374,4.3577274917,12.0530510041
 C,0,32.9263031088,3.8253771126,11.9652590794
 C,0,34.760300068,2.4424556956,12.8281468604
 C,0,35.3125147228,1.5482436067,13.823577202
 C,0,36.6137656806,1.3565333997,13.4805534944
 C,0,36.8137249075,2.0682028256,12.2363491308
 C,0,37.9977517425,2.051921412,11.5250261152
 H,0,38.7972542743,1.4314086556,11.9002971897
 C,0,37.4679292879,5.0199448195,7.7838556522
 H,0,38.0879571971,5.3120371071,6.9496541702
 C,0,32.9474630981,5.9220449843,9.1432233259
 H,0,32.1447105644,6.5376121168,8.7671023487
 C,0,33.4730350707,2.9425534878,12.8793845926
 H,0,32.8586267249,2.6404091198,13.7137258373
 C,0,40.2692426196,3.8394715603,7.44947408
 H,0,41.2035997932,3.3001196829,7.5842121844
 H,0,40.4910392977,4.9062526556,7.4145941845
 H,0,39.8440733616,3.5517638329,6.4871657442
 C,0,40.6297870158,1.8416285138,9.986914022
 H,0,40.3431495993,0.7895456043,9.9777954905
 H,0,40.9872157917,2.085214905,10.9875174863
 H,0,41.450995724,1.9789680521,9.2874810882
 C,0,36.405377247,7.0271716476,5.7148010458
 H,0,37.0017721168,6.2363385291,5.2615648056
 H,0,37.0776644932,7.8447310322,5.9797918693
 H,0,35.6942756018,7.3930605457,4.9767300547
 C,0,33.4185206591,7.6606235745,6.686677169
 H,0,32.3882257244,7.3303471253,6.7530439324
 C,0,33.686456104,8.8060359337,6.0676960202
 H,0,34.6831516923,9.207707967,6.0116862039
 H,0,32.9078299345,9.3972219348,5.6145993354
 C,0,30.1774163046,5.822165126,10.4611237417
 H,0,30.0965985233,5.7712090783,9.3762857456
 H,0,30.1931204271,6.8747248317,10.749618701
 H,0,29.2949966193,5.3595659503,10.8987387119
 C,0,30.6261689304,4.0269424494,13.088239585
 H,0,30.7369545926,3.0454254669,13.534549765
 C,0,29.6597170738,4.8254944453,13.5305546476
 H,0,29.5304479193,5.8284646428,13.1632100791
 H,0,28.9763354272,4.508548514,14.3008730441
 C,0,34.5614532121,1.0352542914,15.0044558619
 H,0,33.6799648789,0.4792130838,14.6845406233
 H,0,34.2299467229,1.8581460904,15.6386740841
 H,0,35.1846909634,0.373212546,15.600679482
 C,0,37.6613632201,0.545359078,14.1631278383
 H,0,37.9660212869,-0.2940022315,13.5368781516
 H,0,37.2922804546,0.1515003113,15.1070587445
 H,0,38.5432118971,1.1527611585,14.366074122
 O,0,36.023,5.66,11.669
 H,0,35.215,6.081,11.963
 H,0,36.846,5.854,11.943
 C,0,32.8476660587,-0.4718459048,8.144696719
 H,0,32.1762215017,-0.3081512687,7.3015568226
 H,0,32.2522336653,-0.6339706758,9.0382129263
 H,0,33.4317192194,-1.3711362842,7.9464075107
 N,0,34.5664824423,1.1739823807,7.3635211813
 H,0,34.65953558,0.7918010284,6.4367219023
 C,0,33.7359251937,0.7009410549,8.3458893095
 C,0,35.229928604,2.2407332483,7.8660783981
 H,0,35.9490273197,2.8138885185,7.3170193591
 N,0,34.8697690776,2.4710006689,9.1058673609
 C,0,33.9418344323,1.5200954418,9.4184273377
 H,0,33.4884654252,1.4920918661,10.3874304369
 Recover connectivity data from disk.
 Stoichiometry    C34H36FeN6O(1+,6)
 Framework group  C1[X(C34H36FeN6O)]
 Deg. of freedom   228
 Full point group                 C1      NOp   1
 Largest Abelian subgroup         C1      NOp   1
 Largest concise Abelian subgroup C1      NOp   1
                         Standard orientation:                         
 ---------------------------------------------------------------------
 Center     Atomic      Atomic             Coordinates (Angstroms)
 Number     Number       Type             X           Y           Z
 ---------------------------------------------------------------------
      1         26           0       -0.065263   -0.192608   -0.361723
      2          7           0       -1.495166   -1.585122   -0.533394
      3          7           0       -1.464225    1.245177   -0.457626
      4          7           0        1.374745    1.211002   -0.324321
      5          7           0        1.336248   -1.616069   -0.442566
      6          6           0       -1.317245   -2.932305   -0.501754
      7          6           0       -2.588735   -3.616756   -0.417671
      8          6           0       -3.541112   -2.647374   -0.368657
      9          6           0       -2.836116   -1.385616   -0.422984
     10          6           0       -2.813701    1.069368   -0.414980
     11          6           0       -3.497390    2.337062   -0.391015
     12          6           0       -2.522273    3.298949   -0.377618
     13          6           0       -1.258943    2.585656   -0.378529
     14          6           0        1.195215    2.560315   -0.286154
     15          6           0        2.461146    3.242867   -0.220488
     16          6           0        3.424444    2.278362   -0.369164
     17          6           0        2.717259    1.011801   -0.382149
     18          6           0        2.683400   -1.439622   -0.482015
     19          6           0        3.364491   -2.712821   -0.584565
     20          6           0        2.391131   -3.656145   -0.686460
     21          6           0        1.131890   -2.954056   -0.560429
     22          6           0       -0.098022   -3.582560   -0.538912
     23          1           0       -0.108050   -4.661482   -0.568860
     24          6           0       -3.461486   -0.154631   -0.388438
     25          1           0       -4.539647   -0.147482   -0.332208
     26          6           0       -0.027916    3.206941   -0.306516
     27          1           0       -0.015064    4.285550   -0.271307
     28          6           0        3.337879   -0.223070   -0.444148
     29          1           0        4.415857   -0.240362   -0.494927
     30          6           0       -5.022792   -2.781754   -0.273415
     31          1           0       -5.316510   -3.828557   -0.269941
     32          1           0       -5.507177   -2.292484   -1.118647
     33          1           0       -5.394097   -2.319410    0.641982
     34          6           0       -2.746892   -5.098502   -0.387144
     35          1           0       -2.260861   -5.517000    0.494760
     36          1           0       -2.293234   -5.551040   -1.269018
     37          1           0       -3.798100   -5.375673   -0.362857
     38          6           0       -4.973516    2.518800   -0.314298
     39          1           0       -5.424250    1.765952    0.331136
     40          1           0       -5.428694    2.430297   -1.302009
     41          1           0       -5.207441    3.503996    0.084397
     42          6           0       -2.661623    4.737359   -0.330568
     43          1           0       -1.895766    5.265227    0.226041
     44          6           0       -3.630578    5.437984   -0.911212
     45          1           0       -4.390494    4.973735   -1.515264
     46          1           0       -3.681753    6.510550   -0.821544
     47          6           0        2.634981    4.712007   -0.054015
     48          1           0        1.894709    5.107536    0.639927
     49          1           0        2.517813    5.232891   -1.006018
     50          1           0        3.628086    4.927602    0.335124
     51          6           0        4.862722    2.422124   -0.399772
     52          1           0        5.427265    1.603103    0.030738
     53          6           0        5.524161    3.451960   -0.918705
     54          1           0        5.022643    4.270501   -1.404578
     55          1           0        6.600426    3.497565   -0.897955
     56          6           0        4.845438   -2.874440   -0.633552
     57          1           0        5.305017   -2.458930    0.263492
     58          1           0        5.262224   -2.356004   -1.497724
     59          1           0        5.117224   -3.925065   -0.700836
     60          6           0        2.518883   -5.133364   -0.837709
     61          1           0        2.129082   -5.644863    0.043175
     62          1           0        3.559506   -5.420771   -0.967537
     63          1           0        1.956691   -5.478787   -1.705122
     64          8           0        0.086356   -0.038095   -2.622508
     65          1           0        0.658529    0.700952   -2.829796
     66          1           0       -0.261673   -0.612282   -3.204939
     67          6           0        1.245347   -0.209343    5.041068
     68          1           0        0.971623    0.661622    5.636898
     69          1           0        2.313062   -0.176646    4.845850
     70          1           0        1.024110   -1.104476    5.623264
     71          7           0       -0.863844   -0.207660    3.690281
     72          1           0       -1.489668   -0.190125    4.478771
     73          6           0        0.505259   -0.220433    3.753801
     74          6           0       -1.213787   -0.221044    2.383360
     75          1           0       -2.225677   -0.214158    2.032495
     76          7           0       -0.149905   -0.241562    1.616842
     77          6           0        0.926916   -0.242835    2.455550
     78          1           0        1.924701   -0.258567    2.068934
 ---------------------------------------------------------------------
 Rotational constants (GHZ):           0.0930165           0.0915423           0.0592491
 Standard basis: def2TZVP (5D, 7F)
 There are  1744 symmetry adapted cartesian basis functions of A   symmetry.
 There are  1532 symmetry adapted basis functions of A   symmetry.
  1532 basis functions,  2481 primitive gaussians,  1744 cartesian basis functions
   160 alpha electrons      155 beta electrons
       nuclear repulsion energy      5967.6206249738 Hartrees.
 NAtoms=   78 NActive=   78 NUniq=   78 SFac= 1.00D+00 NAtFMM=   60 NAOKFM=T Big=T
 Integral buffers will be    131072 words long.
 Raffenetti 2 integral format.
 Two-electron integral symmetry is turned on.
 R6APFD:  NTU= -4 IXU= 1 FactS= 1.050
 Nuclear repulsion after empirical dispersion term =     5967.4677345862 Hartrees.
 One-electron integrals computed using PRISM.
   1 Symmetry operations used in ECPInt.
 ECPInt:  NShTT=  186355 NPrTT=  576197 LenC2=  147233 LenP2D=  301312.
 LDataN:  DoStor=T MaxTD1= 6 Len=  172
 Number of processors reduced to  23 by ecpmxn.
 NBasis=  1532 RedAO= T EigKep=  3.42D-06  NBF=  1532
 NBsUse=  1532 1.00D-06 EigRej= -1.00D+00 NBFU=  1532
 Initial guess from the checkpoint file:  "1cpw_III_Hn.chk"
 B after Tr=    -0.000000   -0.000000   -0.000000
         Rot=    1.000000   -0.000000   -0.000000   -0.000000 Ang=   0.00 deg.
 Initial guess <Sx>= 0.0000 <Sy>= 0.0000 <Sz>= 2.5000 <S**2>= 8.7583 S= 2.5014
 Requested convergence on RMS density matrix=1.00D-08 within 999 cycles.
 Requested convergence on MAX density matrix=1.00D-06.
 Requested convergence on             energy=1.00D-06.
 No special actions if energy rises.
 SCF Done:  E(UAPFD) =  -2983.83641315     A.U. after   17 cycles
            NFock= 17  Conv=0.53D-08     -V/T= 2.0031
 <Sx>= 0.0000 <Sy>= 0.0000 <Sz>= 2.5000 <S**2>= 8.7588 S= 2.5015
 <L.S>=  0.00000000000    
 Annihilation of the first spin contaminant:
 S**2 before annihilation     8.7588,   after     8.7500

 **********************************************************************

            Population analysis using the SCF Density.

 **********************************************************************

 Orbital symmetries:
 Alpha Orbitals:
       Occupied  (A) (A) (A) (A) (A) (A) (A) (A) (A) (A) (A) (A)
                 (A) (A) (A) (A) (A) (A) (A) (A) (A) (A) (A) (A)
                 (A) (A) (A) (A) (A) (A) (A) (A) (A) (A) (A) (A)
                 (A) (A) (A) (A) (A) (A) (A) (A) (A) (A) (A) (A)
                 (A) (A) (A) (A) (A) (A) (A) (A) (A) (A) (A) (A)
                 (A) (A) (A) (A) (A) (A) (A) (A) (A) (A) (A) (A)
                 (A) (A) (A) (A) (A) (A) (A) (A) (A) (A) (A) (A)
                 (A) (A) (A) (A) (A) (A) (A) (A) (A) (A) (A) (A)
                 (A) (A) (A) (A) (A) (A) (A) (A) (A) (A) (A) (A)
                 (A) (A) (A) (A) (A) (A) (A) (A) (A) (A) (A) (A)
                 (A) (A) (A) (A) (A) (A) (A) (A) (A) (A) (A) (A)
                 (A) (A) (A) (A) (A) (A) (A) (A) (A) (A) (A) (A)
                 (A) (A) (A) (A) (A) (A) (A) (A) (A) (A) (A) (A)
                 (A) (A) (A) (A)
       Virtual   (A) (A) (A) (A) (A) (A) (A) (A) (A) (A) (A) (A)
                 (A) (A) (A) (A) (A) (A) (A) (A) (A) (A) (A) (A)
                 (A) (A) (A) (A) (A) (A) (A) (A) (A) (A) (A) (A)
                 (A) (A) (A) (A) (A) (A) (A) (A) (A) (A) (A) (A)
                 (A) (A) (A) (A) (A) (A) (A) (A) (A) (A) (A) (A)
                 (A) (A) (A) (A) (A) (A) (A) (A) (A) (A) (A) (A)
                 (A) (A) (A) (A) (A) (A) (A) (A) (A) (A) (A) (A)
                 (A) (A) (A) (A) (A) (A) (A) (A) (A) (A) (A) (A)
                 (A) (A) (A) (A) (A) (A) (A) (A) (A) (A) (A) (A)
                 (A) (A) (A) (A) (A) (A) (A) (A) (A) (A) (A) (A)
                 (A) (A) (A) (A) (A) (A) (A) (A) (A) (A) (A) (A)
                 (A) (A) (A) (A) (A) (A) (A) (A) (A) (A) (A) (A)
                 (A) (A) (A) (A) (A) (A) (A) (A) (A) (A) (A) (A)
                 (A) (A) (A) (A) (A) (A) (A) (A) (A) (A) (A) (A)
                 (A) (A) (A) (A) (A) (A) (A) (A) (A) (A) (A) (A)
                 (A) (A) (A) (A) (A) (A) (A) (A) (A) (A) (A) (A)
                 (A) (A) (A) (A) (A) (A) (A) (A) (A) (A) (A) (A)
                 (A) (A) (A) (A) (A) (A) (A) (A) (A) (A) (A) (A)
                 (A) (A) (A) (A) (A) (A) (A) (A) (A) (A) (A) (A)
                 (A) (A) (A) (A) (A) (A) (A) (A) (A) (A) (A) (A)
                 (A) (A) (A) (A) (A) (A) (A) (A) (A) (A) (A) (A)
                 (A) (A) (A) (A) (A) (A) (A) (A) (A) (A) (A) (A)
                 (A) (A) (A) (A) (A) (A) (A) (A) (A) (A) (A) (A)
                 (A) (A) (A) (A) (A) (A) (A) (A) (A) (A) (A) (A)
                 (A) (A) (A) (A) (A) (A) (A) (A) (A) (A) (A) (A)
                 (A) (A) (A) (A) (A) (A) (A) (A) (A) (A) (A) (A)
                 (A) (A) (A) (A) (A) (A) (A) (A) (A) (A) (A) (A)
                 (A) (A) (A) (A) (A) (A) (A) (A) (A) (A) (A) (A)
                 (A) (A) (A) (A) (A) (A) (A) (A) (A) (A) (A) (A)
                 (A) (A) (A) (A) (A) (A) (A) (A) (A) (A) (A) (A)
                 (A) (A) (A) (A) (A) (A) (A) (A) (A) (A) (A) (A)
                 (A) (A) (A) (A) (A) (A) (A) (A) (A) (A) (A) (A)
                 (A) (A) (A) (A) (A) (A) (A) (A) (A) (A) (A) (A)
                 (A) (A) (A) (A) (A) (A) (A) (A) (A) (A) (A) (A)
                 (A) (A) (A) (A) (A) (A) (A) (A) (A) (A) (A) (A)
                 (A) (A) (A) (A) (A) (A) (A) (A) (A) (A) (A) (A)
                 (A) (A) (A) (A) (A) (A) (A) (A) (A) (A) (A) (A)
                 (A) (A) (A) (A) (A) (A) (A) (A) (A) (A) (A) (A)
                 (A) (A) (A) (A) (A) (A) (A) (A) (A) (A) (A) (A)
                 (A) (A) (A) (A) (A) (A) (A) (A) (A) (A) (A) (A)
                 (A) (A) (A) (A) (A) (A) (A) (A) (A) (A) (A) (A)
                 (A) (A) (A) (A) (A) (A) (A) (A) (A) (A) (A) (A)
                 (A) (A) (A) (A) (A) (A) (A) (A) (A) (A) (A) (A)
                 (A) (A) (A) (A) (A) (A) (A) (A) (A) (A) (A) (A)
                 (A) (A) (A) (A) (A) (A) (A) (A) (A) (A) (A) (A)
                 (A) (A) (A) (A) (A) (A) (A) (A) (A) (A) (A) (A)
                 (A) (A) (A) (A) (A) (A) (A) (A) (A) (A) (A) (A)
                 (A) (A) (A) (A) (A) (A) (A) (A) (A) (A) (A) (A)
                 (A) (A) (A) (A) (A) (A) (A) (A) (A) (A) (A) (A)
                 (A) (A) (A) (A) (A) (A) (A) (A) (A) (A) (A) (A)
                 (A) (A) (A) (A) (A) (A) (A) (A) (A) (A) (A) (A)
                 (A) (A) (A) (A) (A) (A) (A) (A) (A) (A) (A) (A)
                 (A) (A) (A) (A) (A) (A) (A) (A) (A) (A) (A) (A)
                 (A) (A) (A) (A) (A) (A) (A) (A) (A) (A) (A) (A)
                 (A) (A) (A) (A) (A) (A) (A) (A) (A) (A) (A) (A)
                 (A) (A) (A) (A) (A) (A) (A) (A) (A) (A) (A) (A)
                 (A) (A) (A) (A) (A) (A) (A) (A) (A) (A) (A) (A)
                 (A) (A) (A) (A) (A) (A) (A) (A) (A) (A) (A) (A)
                 (A) (A) (A) (A) (A) (A) (A) (A) (A) (A) (A) (A)
                 (A) (A) (A) (A) (A) (A) (A) (A) (A) (A) (A) (A)
                 (A) (A) (A) (A) (A) (A) (A) (A) (A) (A) (A) (A)
                 (A) (A) (A) (A) (A) (A) (A) (A) (A) (A) (A) (A)
                 (A) (A) (A) (A) (A) (A) (A) (A) (A) (A) (A) (A)
                 (A) (A) (A) (A) (A) (A) (A) (A) (A) (A) (A) (A)
                 (A) (A) (A) (A) (A) (A) (A) (A) (A) (A) (A) (A)
                 (A) (A) (A) (A) (A) (A) (A) (A) (A) (A) (A) (A)
                 (A) (A) (A) (A) (A) (A) (A) (A) (A) (A) (A) (A)
                 (A) (A) (A) (A) (A) (A) (A) (A) (A) (A) (A) (A)
                 (A) (A) (A) (A) (A) (A) (A) (A) (A) (A) (A) (A)
                 (A) (A) (A) (A) (A) (A) (A) (A) (A) (A) (A) (A)
                 (A) (A) (A) (A) (A) (A) (A) (A) (A) (A) (A) (A)
                 (A) (A) (A) (A) (A) (A) (A) (A) (A) (A) (A) (A)
                 (A) (A) (A) (A) (A) (A) (A) (A) (A) (A) (A) (A)
                 (A) (A) (A) (A) (A) (A) (A) (A) (A) (A) (A) (A)
                 (A) (A) (A) (A) (A) (A) (A) (A) (A) (A) (A) (A)
                 (A) (A) (A) (A) (A) (A) (A) (A) (A) (A) (A) (A)
                 (A) (A) (A) (A) (A) (A) (A) (A) (A) (A) (A) (A)
                 (A) (A) (A) (A) (A) (A) (A) (A) (A) (A) (A) (A)
                 (A) (A) (A) (A) (A) (A) (A) (A) (A) (A) (A) (A)
                 (A) (A) (A) (A) (A) (A) (A) (A) (A) (A) (A) (A)
                 (A) (A) (A) (A) (A) (A) (A) (A) (A) (A) (A) (A)
                 (A) (A) (A) (A) (A) (A) (A) (A) (A) (A) (A) (A)
                 (A) (A) (A) (A) (A) (A) (A) (A) (A) (A) (A) (A)
                 (A) (A) (A) (A) (A) (A) (A) (A) (A) (A) (A) (A)
                 (A) (A) (A) (A) (A) (A) (A) (A) (A) (A) (A) (A)
                 (A) (A) (A) (A) (A) (A) (A) (A) (A) (A) (A) (A)
                 (A) (A) (A) (A) (A) (A) (A) (A) (A) (A) (A) (A)
                 (A) (A) (A) (A) (A) (A) (A) (A) (A) (A) (A) (A)
                 (A) (A) (A) (A) (A) (A) (A) (A) (A) (A) (A) (A)
                 (A) (A) (A) (A) (A) (A) (A) (A) (A) (A) (A) (A)
                 (A) (A) (A) (A) (A) (A) (A) (A) (A) (A) (A) (A)
                 (A) (A) (A) (A) (A) (A) (A) (A) (A) (A) (A) (A)
                 (A) (A) (A) (A) (A) (A) (A) (A) (A) (A) (A) (A)
                 (A) (A) (A) (A) (A) (A) (A) (A) (A) (A) (A) (A)
                 (A) (A) (A) (A) (A) (A) (A) (A) (A) (A) (A) (A)
                 (A) (A) (A) (A) (A) (A) (A) (A) (A) (A) (A) (A)
                 (A) (A) (A) (A) (A) (A) (A) (A) (A) (A) (A) (A)
                 (A) (A) (A) (A) (A) (A) (A) (A) (A) (A) (A) (A)
                 (A) (A) (A) (A) (A) (A) (A) (A) (A) (A) (A) (A)
                 (A) (A) (A) (A) (A) (A) (A) (A) (A) (A) (A) (A)
                 (A) (A) (A) (A) (A) (A) (A) (A) (A) (A) (A) (A)
                 (A) (A) (A) (A) (A) (A) (A) (A) (A) (A) (A) (A)
                 (A) (A) (A) (A) (A) (A) (A) (A) (A) (A) (A) (A)
                 (A) (A) (A) (A) (A) (A) (A) (A) (A) (A) (A) (A)
                 (A) (A) (A) (A) (A) (A) (A) (A) (A) (A) (A) (A)
                 (A) (A) (A) (A) (A) (A) (A) (A) (A) (A) (A) (A)
                 (A) (A) (A) (A) (A) (A) (A) (A) (A) (A) (A) (A)
                 (A) (A) (A) (A) (A) (A) (A) (A) (A) (A) (A) (A)
                 (A) (A) (A) (A) (A) (A) (A) (A) (A) (A) (A) (A)
                 (A) (A) (A) (A) (A) (A) (A) (A) (A) (A) (A) (A)
                 (A) (A) (A) (A) (A) (A) (A) (A) (A) (A) (A) (A)
                 (A) (A) (A) (A) (A) (A) (A) (A) (A) (A) (A) (A)
                 (A) (A) (A) (A) (A) (A) (A) (A) (A) (A) (A) (A)
                 (A) (A) (A) (A) (A) (A) (A) (A) (A) (A) (A) (A)
                 (A) (A) (A) (A)
 Beta  Orbitals:
       Occupied  (A) (A) (A) (A) (A) (A) (A) (A) (A) (A) (A) (A)
                 (A) (A) (A) (A) (A) (A) (A) (A) (A) (A) (A) (A)
                 (A) (A) (A) (A) (A) (A) (A) (A) (A) (A) (A) (A)
                 (A) (A) (A) (A) (A) (A) (A) (A) (A) (A) (A) (A)
                 (A) (A) (A) (A) (A) (A) (A) (A) (A) (A) (A) (A)
                 (A) (A) (A) (A) (A) (A) (A) (A) (A) (A) (A) (A)
                 (A) (A) (A) (A) (A) (A) (A) (A) (A) (A) (A) (A)
                 (A) (A) (A) (A) (A) (A) (A) (A) (A) (A) (A) (A)
                 (A) (A) (A) (A) (A) (A) (A) (A) (A) (A) (A) (A)
                 (A) (A) (A) (A) (A) (A) (A) (A) (A) (A) (A) (A)
                 (A) (A) (A) (A) (A) (A) (A) (A) (A) (A) (A) (A)
                 (A) (A) (A) (A) (A) (A) (A) (A) (A) (A) (A) (A)
                 (A) (A) (A) (A) (A) (A) (A) (A) (A) (A) (A)
       Virtual   (A) (A) (A) (A) (A) (A) (A) (A) (A) (A) (A) (A)
                 (A) (A) (A) (A) (A) (A) (A) (A) (A) (A) (A) (A)
                 (A) (A) (A) (A) (A) (A) (A) (A) (A) (A) (A) (A)
                 (A) (A) (A) (A) (A) (A) (A) (A) (A) (A) (A) (A)
                 (A) (A) (A) (A) (A) (A) (A) (A) (A) (A) (A) (A)
                 (A) (A) (A) (A) (A) (A) (A) (A) (A) (A) (A) (A)
                 (A) (A) (A) (A) (A) (A) (A) (A) (A) (A) (A) (A)
                 (A) (A) (A) (A) (A) (A) (A) (A) (A) (A) (A) (A)
                 (A) (A) (A) (A) (A) (A) (A) (A) (A) (A) (A) (A)
                 (A) (A) (A) (A) (A) (A) (A) (A) (A) (A) (A) (A)
                 (A) (A) (A) (A) (A) (A) (A) (A) (A) (A) (A) (A)
                 (A) (A) (A) (A) (A) (A) (A) (A) (A) (A) (A) (A)
                 (A) (A) (A) (A) (A) (A) (A) (A) (A) (A) (A) (A)
                 (A) (A) (A) (A) (A) (A) (A) (A) (A) (A) (A) (A)
                 (A) (A) (A) (A) (A) (A) (A) (A) (A) (A) (A) (A)
                 (A) (A) (A) (A) (A) (A) (A) (A) (A) (A) (A) (A)
                 (A) (A) (A) (A) (A) (A) (A) (A) (A) (A) (A) (A)
                 (A) (A) (A) (A) (A) (A) (A) (A) (A) (A) (A) (A)
                 (A) (A) (A) (A) (A) (A) (A) (A) (A) (A) (A) (A)
                 (A) (A) (A) (A) (A) (A) (A) (A) (A) (A) (A) (A)
                 (A) (A) (A) (A) (A) (A) (A) (A) (A) (A) (A) (A)
                 (A) (A) (A) (A) (A) (A) (A) (A) (A) (A) (A) (A)
                 (A) (A) (A) (A) (A) (A) (A) (A) (A) (A) (A) (A)
                 (A) (A) (A) (A) (A) (A) (A) (A) (A) (A) (A) (A)
                 (A) (A) (A) (A) (A) (A) (A) (A) (A) (A) (A) (A)
                 (A) (A) (A) (A) (A) (A) (A) (A) (A) (A) (A) (A)
                 (A) (A) (A) (A) (A) (A) (A) (A) (A) (A) (A) (A)
                 (A) (A) (A) (A) (A) (A) (A) (A) (A) (A) (A) (A)
                 (A) (A) (A) (A) (A) (A) (A) (A) (A) (A) (A) (A)
                 (A) (A) (A) (A) (A) (A) (A) (A) (A) (A) (A) (A)
                 (A) (A) (A) (A) (A) (A) (A) (A) (A) (A) (A) (A)
                 (A) (A) (A) (A) (A) (A) (A) (A) (A) (A) (A) (A)
                 (A) (A) (A) (A) (A) (A) (A) (A) (A) (A) (A) (A)
                 (A) (A) (A) (A) (A) (A) (A) (A) (A) (A) (A) (A)
                 (A) (A) (A) (A) (A) (A) (A) (A) (A) (A) (A) (A)
                 (A) (A) (A) (A) (A) (A) (A) (A) (A) (A) (A) (A)
                 (A) (A) (A) (A) (A) (A) (A) (A) (A) (A) (A) (A)
                 (A) (A) (A) (A) (A) (A) (A) (A) (A) (A) (A) (A)
                 (A) (A) (A) (A) (A) (A) (A) (A) (A) (A) (A) (A)
                 (A) (A) (A) (A) (A) (A) (A) (A) (A) (A) (A) (A)
                 (A) (A) (A) (A) (A) (A) (A) (A) (A) (A) (A) (A)
                 (A) (A) (A) (A) (A) (A) (A) (A) (A) (A) (A) (A)
                 (A) (A) (A) (A) (A) (A) (A) (A) (A) (A) (A) (A)
                 (A) (A) (A) (A) (A) (A) (A) (A) (A) (A) (A) (A)
                 (A) (A) (A) (A) (A) (A) (A) (A) (A) (A) (A) (A)
                 (A) (A) (A) (A) (A) (A) (A) (A) (A) (A) (A) (A)
                 (A) (A) (A) (A) (A) (A) (A) (A) (A) (A) (A) (A)
                 (A) (A) (A) (A) (A) (A) (A) (A) (A) (A) (A) (A)
                 (A) (A) (A) (A) (A) (A) (A) (A) (A) (A) (A) (A)
                 (A) (A) (A) (A) (A) (A) (A) (A) (A) (A) (A) (A)
                 (A) (A) (A) (A) (A) (A) (A) (A) (A) (A) (A) (A)
                 (A) (A) (A) (A) (A) (A) (A) (A) (A) (A) (A) (A)
                 (A) (A) (A) (A) (A) (A) (A) (A) (A) (A) (A) (A)
                 (A) (A) (A) (A) (A) (A) (A) (A) (A) (A) (A) (A)
                 (A) (A) (A) (A) (A) (A) (A) (A) (A) (A) (A) (A)
                 (A) (A) (A) (A) (A) (A) (A) (A) (A) (A) (A) (A)
                 (A) (A) (A) (A) (A) (A) (A) (A) (A) (A) (A) (A)
                 (A) (A) (A) (A) (A) (A) (A) (A) (A) (A) (A) (A)
                 (A) (A) (A) (A) (A) (A) (A) (A) (A) (A) (A) (A)
                 (A) (A) (A) (A) (A) (A) (A) (A) (A) (A) (A) (A)
                 (A) (A) (A) (A) (A) (A) (A) (A) (A) (A) (A) (A)
                 (A) (A) (A) (A) (A) (A) (A) (A) (A) (A) (A) (A)
                 (A) (A) (A) (A) (A) (A) (A) (A) (A) (A) (A) (A)
                 (A) (A) (A) (A) (A) (A) (A) (A) (A) (A) (A) (A)
                 (A) (A) (A) (A) (A) (A) (A) (A) (A) (A) (A) (A)
                 (A) (A) (A) (A) (A) (A) (A) (A) (A) (A) (A) (A)
                 (A) (A) (A) (A) (A) (A) (A) (A) (A) (A) (A) (A)
                 (A) (A) (A) (A) (A) (A) (A) (A) (A) (A) (A) (A)
                 (A) (A) (A) (A) (A) (A) (A) (A) (A) (A) (A) (A)
                 (A) (A) (A) (A) (A) (A) (A) (A) (A) (A) (A) (A)
                 (A) (A) (A) (A) (A) (A) (A) (A) (A) (A) (A) (A)
                 (A) (A) (A) (A) (A) (A) (A) (A) (A) (A) (A) (A)
                 (A) (A) (A) (A) (A) (A) (A) (A) (A) (A) (A) (A)
                 (A) (A) (A) (A) (A) (A) (A) (A) (A) (A) (A) (A)
                 (A) (A) (A) (A) (A) (A) (A) (A) (A) (A) (A) (A)
                 (A) (A) (A) (A) (A) (A) (A) (A) (A) (A) (A) (A)
                 (A) (A) (A) (A) (A) (A) (A) (A) (A) (A) (A) (A)
                 (A) (A) (A) (A) (A) (A) (A) (A) (A) (A) (A) (A)
                 (A) (A) (A) (A) (A) (A) (A) (A) (A) (A) (A) (A)
                 (A) (A) (A) (A) (A) (A) (A) (A) (A) (A) (A) (A)
                 (A) (A) (A) (A) (A) (A) (A) (A) (A) (A) (A) (A)
                 (A) (A) (A) (A) (A) (A) (A) (A) (A) (A) (A) (A)
                 (A) (A) (A) (A) (A) (A) (A) (A) (A) (A) (A) (A)
                 (A) (A) (A) (A) (A) (A) (A) (A) (A) (A) (A) (A)
                 (A) (A) (A) (A) (A) (A) (A) (A) (A) (A) (A) (A)
                 (A) (A) (A) (A) (A) (A) (A) (A) (A) (A) (A) (A)
                 (A) (A) (A) (A) (A) (A) (A) (A) (A) (A) (A) (A)
                 (A) (A) (A) (A) (A) (A) (A) (A) (A) (A) (A) (A)
                 (A) (A) (A) (A) (A) (A) (A) (A) (A) (A) (A) (A)
                 (A) (A) (A) (A) (A) (A) (A) (A) (A) (A) (A) (A)
                 (A) (A) (A) (A) (A) (A) (A) (A) (A) (A) (A) (A)
                 (A) (A) (A) (A) (A) (A) (A) (A) (A) (A) (A) (A)
                 (A) (A) (A) (A) (A) (A) (A) (A) (A) (A) (A) (A)
                 (A) (A) (A) (A) (A) (A) (A) (A) (A) (A) (A) (A)
                 (A) (A) (A) (A) (A) (A) (A) (A) (A) (A) (A) (A)
                 (A) (A) (A) (A) (A) (A) (A) (A) (A) (A) (A) (A)
                 (A) (A) (A) (A) (A) (A) (A) (A) (A) (A) (A) (A)
                 (A) (A) (A) (A) (A) (A) (A) (A) (A) (A) (A) (A)
                 (A) (A) (A) (A) (A) (A) (A) (A) (A) (A) (A) (A)
                 (A) (A) (A) (A) (A) (A) (A) (A) (A) (A) (A) (A)
                 (A) (A) (A) (A) (A) (A) (A) (A) (A) (A) (A) (A)
                 (A) (A) (A) (A) (A) (A) (A) (A) (A) (A) (A) (A)
                 (A) (A) (A) (A) (A) (A) (A) (A) (A) (A) (A) (A)
                 (A) (A) (A) (A) (A) (A) (A) (A) (A) (A) (A) (A)
                 (A) (A) (A) (A) (A) (A) (A) (A) (A) (A) (A) (A)
                 (A) (A) (A) (A) (A) (A) (A) (A) (A) (A) (A) (A)
                 (A) (A) (A) (A) (A) (A) (A) (A) (A) (A) (A) (A)
                 (A) (A) (A) (A) (A) (A) (A) (A) (A) (A) (A) (A)
                 (A) (A) (A) (A) (A) (A) (A) (A) (A) (A) (A) (A)
                 (A) (A) (A) (A) (A) (A) (A) (A) (A) (A) (A) (A)
                 (A) (A) (A) (A) (A) (A) (A) (A) (A) (A) (A) (A)
                 (A) (A) (A) (A) (A) (A) (A) (A) (A) (A) (A) (A)
                 (A) (A) (A) (A) (A) (A) (A) (A) (A) (A) (A) (A)
                 (A) (A) (A) (A) (A) (A) (A) (A) (A) (A) (A) (A)
                 (A) (A) (A) (A) (A) (A) (A) (A) (A)
 The electronic state is 6-A.
 Alpha  occ. eigenvalues -- -256.42405 -30.33331 -26.16354 -26.16220 -26.16208
 Alpha  occ. eigenvalues --  -19.28892 -14.52825 -14.48080 -14.45078 -14.44884
 Alpha  occ. eigenvalues --  -14.44789 -14.44689 -10.37396 -10.34615 -10.32970
 Alpha  occ. eigenvalues --  -10.32729 -10.32661 -10.32643 -10.32620 -10.32616
 Alpha  occ. eigenvalues --  -10.32555 -10.32525 -10.32071 -10.30142 -10.30025
 Alpha  occ. eigenvalues --  -10.29860 -10.29736 -10.29699 -10.29639 -10.29610
 Alpha  occ. eigenvalues --  -10.29581 -10.29561 -10.29554 -10.29530 -10.29467
 Alpha  occ. eigenvalues --  -10.29385 -10.28917 -10.28797 -10.28089 -10.27954
 Alpha  occ. eigenvalues --  -10.27844 -10.27802 -10.27774 -10.27768 -10.27598
 Alpha  occ. eigenvalues --  -10.27465  -3.78649  -2.55314  -2.55175  -2.55140
 Alpha  occ. eigenvalues --   -1.16946  -1.16793  -1.09069  -1.08141  -1.07921
 Alpha  occ. eigenvalues --   -1.07049  -1.02754  -0.93602  -0.92450  -0.92150
 Alpha  occ. eigenvalues --   -0.91547  -0.91233  -0.90817  -0.90738  -0.90668
 Alpha  occ. eigenvalues --   -0.86878  -0.85695  -0.85319  -0.84426  -0.82998
 Alpha  occ. eigenvalues --   -0.82252  -0.81372  -0.80428  -0.78727  -0.78510
 Alpha  occ. eigenvalues --   -0.78299  -0.76192  -0.75252  -0.75178  -0.72512
 Alpha  occ. eigenvalues --   -0.72358  -0.70920  -0.70298  -0.69048  -0.68439
 Alpha  occ. eigenvalues --   -0.67117  -0.65267  -0.64687  -0.64113  -0.63886
 Alpha  occ. eigenvalues --   -0.62216  -0.62074  -0.61965  -0.61590  -0.60567
 Alpha  occ. eigenvalues --   -0.58971  -0.58696  -0.58606  -0.58377  -0.56676
 Alpha  occ. eigenvalues --   -0.56489  -0.56328  -0.56113  -0.55537  -0.55149
 Alpha  occ. eigenvalues --   -0.54799  -0.54587  -0.53884  -0.53788  -0.53659
 Alpha  occ. eigenvalues --   -0.53457  -0.53393  -0.53340  -0.52994  -0.52647
 Alpha  occ. eigenvalues --   -0.52300  -0.51971  -0.51949  -0.51873  -0.51403
 Alpha  occ. eigenvalues --   -0.50814  -0.50591  -0.50266  -0.50149  -0.50008
 Alpha  occ. eigenvalues --   -0.49809  -0.49563  -0.49443  -0.49091  -0.48906
 Alpha  occ. eigenvalues --   -0.48702  -0.48386  -0.48160  -0.47800  -0.47182
 Alpha  occ. eigenvalues --   -0.47047  -0.46526  -0.45988  -0.45721  -0.45216
 Alpha  occ. eigenvalues --   -0.44997  -0.44000  -0.43713  -0.43267  -0.42962
 Alpha  occ. eigenvalues --   -0.42411  -0.41573  -0.40046  -0.39638  -0.38328
 Alpha  occ. eigenvalues --   -0.37743  -0.37643  -0.35045  -0.34145  -0.33756
 Alpha  occ. eigenvalues --   -0.33023  -0.32748  -0.32213  -0.29909  -0.29003
 Alpha virt. eigenvalues --   -0.17973  -0.17936  -0.12261  -0.09997  -0.09161
 Alpha virt. eigenvalues --   -0.07845  -0.07467  -0.06243  -0.06040  -0.05493
 Alpha virt. eigenvalues --   -0.04415  -0.03915  -0.03188  -0.02935  -0.02772
 Alpha virt. eigenvalues --   -0.02318  -0.02088  -0.01247  -0.00751  -0.00620
 Alpha virt. eigenvalues --    0.00010   0.00258   0.00315   0.00497   0.00798
 Alpha virt. eigenvalues --    0.01527   0.02100   0.02204   0.02464   0.02584
 Alpha virt. eigenvalues --    0.02800   0.03062   0.03276   0.03433   0.03695
 Alpha virt. eigenvalues --    0.03942   0.04003   0.04146   0.04360   0.04505
 Alpha virt. eigenvalues --    0.04857   0.05001   0.05177   0.05550   0.05664
 Alpha virt. eigenvalues --    0.05824   0.06148   0.06533   0.06765   0.07112
 Alpha virt. eigenvalues --    0.07141   0.07539   0.07728   0.07854   0.07997
 Alpha virt. eigenvalues --    0.08344   0.08535   0.08694   0.08878   0.09270
 Alpha virt. eigenvalues --    0.09397   0.09746   0.09912   0.10135   0.10552
 Alpha virt. eigenvalues --    0.10771   0.11109   0.11297   0.11697   0.11842
 Alpha virt. eigenvalues --    0.11909   0.12310   0.12404   0.12938   0.13185
 Alpha virt. eigenvalues --    0.13312   0.13444   0.13733   0.13819   0.14197
 Alpha virt. eigenvalues --    0.14475   0.14949   0.14999   0.15381   0.16118
 Alpha virt. eigenvalues --    0.16346   0.16566   0.16739   0.16881   0.17033
 Alpha virt. eigenvalues --    0.17274   0.17583   0.17817   0.18060   0.18176
 Alpha virt. eigenvalues --    0.18522   0.19149   0.19506   0.19706   0.19939
 Alpha virt. eigenvalues --    0.20293   0.20393   0.20639   0.20934   0.21227
 Alpha virt. eigenvalues --    0.21299   0.21659   0.21876   0.21947   0.22185
 Alpha virt. eigenvalues --    0.22599   0.23052   0.23426   0.23484   0.23718
 Alpha virt. eigenvalues --    0.23951   0.24272   0.24538   0.24585   0.24741
 Alpha virt. eigenvalues --    0.25243   0.25508   0.25628   0.26103   0.26540
 Alpha virt. eigenvalues --    0.26948   0.27036   0.27274   0.27749   0.27866
 Alpha virt. eigenvalues --    0.28330   0.28699   0.28735   0.29020   0.29155
 Alpha virt. eigenvalues --    0.29454   0.29829   0.29955   0.30244   0.30291
 Alpha virt. eigenvalues --    0.30673   0.30689   0.31134   0.31299   0.31440
 Alpha virt. eigenvalues --    0.31623   0.31872   0.32306   0.32392   0.32670
 Alpha virt. eigenvalues --    0.32958   0.33017   0.33159   0.33259   0.33369
 Alpha virt. eigenvalues --    0.33996   0.34210   0.34423   0.34834   0.35043
 Alpha virt. eigenvalues --    0.35093   0.35294   0.35499   0.35779   0.35857
 Alpha virt. eigenvalues --    0.36342   0.36578   0.36885   0.37149   0.37558
 Alpha virt. eigenvalues --    0.37737   0.37873   0.38085   0.38157   0.38279
 Alpha virt. eigenvalues --    0.38437   0.38800   0.39014   0.39070   0.39341
 Alpha virt. eigenvalues --    0.39783   0.39875   0.40103   0.40481   0.40840
 Alpha virt. eigenvalues --    0.40970   0.41373   0.41446   0.41590   0.42087
 Alpha virt. eigenvalues --    0.42116   0.42215   0.42453   0.42464   0.42707
 Alpha virt. eigenvalues --    0.42847   0.43154   0.43308   0.43762   0.43977
 Alpha virt. eigenvalues --    0.44005   0.44335   0.44722   0.44744   0.45133
 Alpha virt. eigenvalues --    0.45216   0.45549   0.45790   0.46131   0.46500
 Alpha virt. eigenvalues --    0.46694   0.46842   0.46991   0.47390   0.47616
 Alpha virt. eigenvalues --    0.47943   0.48149   0.48299   0.48671   0.48959
 Alpha virt. eigenvalues --    0.49186   0.49420   0.49905   0.50195   0.50336
 Alpha virt. eigenvalues --    0.50716   0.51032   0.51539   0.51860   0.52087
 Alpha virt. eigenvalues --    0.52196   0.52713   0.52833   0.53121   0.53497
 Alpha virt. eigenvalues --    0.53751   0.54235   0.54480   0.54658   0.54980
 Alpha virt. eigenvalues --    0.55146   0.55348   0.55466   0.55839   0.56172
 Alpha virt. eigenvalues --    0.56437   0.56732   0.57098   0.57338   0.57417
 Alpha virt. eigenvalues --    0.57768   0.58254   0.58450   0.58814   0.59388
 Alpha virt. eigenvalues --    0.59865   0.60337   0.60735   0.60887   0.61283
 Alpha virt. eigenvalues --    0.61484   0.61884   0.62232   0.62396   0.62801
 Alpha virt. eigenvalues --    0.62897   0.63422   0.63709   0.64021   0.64065
 Alpha virt. eigenvalues --    0.64231   0.64794   0.65144   0.65515   0.65980
 Alpha virt. eigenvalues --    0.66232   0.66424   0.66962   0.67525   0.67646
 Alpha virt. eigenvalues --    0.68003   0.68533   0.68644   0.68916   0.69339
 Alpha virt. eigenvalues --    0.69636   0.69773   0.70083   0.70483   0.70926
 Alpha virt. eigenvalues --    0.71368   0.71635   0.71667   0.72629   0.73140
 Alpha virt. eigenvalues --    0.73548   0.73927   0.74189   0.74654   0.75159
 Alpha virt. eigenvalues --    0.75405   0.75577   0.76202   0.76614   0.76983
 Alpha virt. eigenvalues --    0.77384   0.77965   0.78151   0.78703   0.79047
 Alpha virt. eigenvalues --    0.79190   0.79647   0.79718   0.80386   0.80611
 Alpha virt. eigenvalues --    0.80930   0.81277   0.81897   0.82152   0.82729
 Alpha virt. eigenvalues --    0.83118   0.83398   0.83549   0.84234   0.84358
 Alpha virt. eigenvalues --    0.84647   0.84926   0.85623   0.85817   0.85966
 Alpha virt. eigenvalues --    0.86683   0.87163   0.87313   0.87654   0.87921
 Alpha virt. eigenvalues --    0.88143   0.88780   0.89147   0.89444   0.90088
 Alpha virt. eigenvalues --    0.90393   0.90568   0.90677   0.90753   0.91292
 Alpha virt. eigenvalues --    0.91757   0.91874   0.92283   0.92522   0.92736
 Alpha virt. eigenvalues --    0.93258   0.93365   0.93705   0.94102   0.94209
 Alpha virt. eigenvalues --    0.94430   0.94869   0.94990   0.95286   0.95576
 Alpha virt. eigenvalues --    0.95942   0.96738   0.97054   0.97295   0.98037
 Alpha virt. eigenvalues --    0.98538   0.98568   0.98988   0.99535   0.99672
 Alpha virt. eigenvalues --    1.00293   1.00452   1.01033   1.01723   1.02194
 Alpha virt. eigenvalues --    1.02457   1.02918   1.03599   1.04424   1.04758
 Alpha virt. eigenvalues --    1.05213   1.05519   1.05920   1.06983   1.07057
 Alpha virt. eigenvalues --    1.07229   1.07820   1.07999   1.08204   1.08653
 Alpha virt. eigenvalues --    1.08927   1.09220   1.09819   1.10012   1.10259
 Alpha virt. eigenvalues --    1.10871   1.11057   1.11339   1.11782   1.11908
 Alpha virt. eigenvalues --    1.12105   1.13047   1.13245   1.13677   1.14655
 Alpha virt. eigenvalues --    1.15137   1.15344   1.15729   1.16528   1.16895
 Alpha virt. eigenvalues --    1.17013   1.17569   1.17820   1.18147   1.18418
 Alpha virt. eigenvalues --    1.18996   1.19034   1.19244   1.19717   1.20191
 Alpha virt. eigenvalues --    1.20476   1.20665   1.21071   1.21325   1.22031
 Alpha virt. eigenvalues --    1.22506   1.22855   1.23200   1.24963   1.25058
 Alpha virt. eigenvalues --    1.25655   1.26009   1.26805   1.27049   1.27742
 Alpha virt. eigenvalues --    1.27967   1.28487   1.29160   1.29744   1.30470
 Alpha virt. eigenvalues --    1.30639   1.31336   1.32264   1.32544   1.33259
 Alpha virt. eigenvalues --    1.33638   1.34293   1.35078   1.35206   1.35322
 Alpha virt. eigenvalues --    1.35724   1.36452   1.36812   1.37033   1.37498
 Alpha virt. eigenvalues --    1.37624   1.38148   1.38403   1.38705   1.39116
 Alpha virt. eigenvalues --    1.39356   1.39439   1.39936   1.40359   1.40588
 Alpha virt. eigenvalues --    1.41025   1.41331   1.41413   1.41800   1.42040
 Alpha virt. eigenvalues --    1.42427   1.42902   1.43085   1.43292   1.43561
 Alpha virt. eigenvalues --    1.43934   1.44030   1.44470   1.44734   1.45207
 Alpha virt. eigenvalues --    1.45355   1.45712   1.45839   1.46014   1.46544
 Alpha virt. eigenvalues --    1.46657   1.46952   1.47254   1.47286   1.47655
 Alpha virt. eigenvalues --    1.47864   1.48170   1.48569   1.48891   1.49211
 Alpha virt. eigenvalues --    1.49523   1.49760   1.49834   1.50402   1.50727
 Alpha virt. eigenvalues --    1.51192   1.51341   1.51591   1.51665   1.52209
 Alpha virt. eigenvalues --    1.52433   1.52471   1.53004   1.53362   1.53570
 Alpha virt. eigenvalues --    1.53909   1.54218   1.54427   1.54839   1.55492
 Alpha virt. eigenvalues --    1.55590   1.55850   1.55953   1.56356   1.56988
 Alpha virt. eigenvalues --    1.57102   1.57450   1.57949   1.58218   1.58567
 Alpha virt. eigenvalues --    1.58792   1.59223   1.59826   1.60030   1.60189
 Alpha virt. eigenvalues --    1.60619   1.60843   1.61387   1.61717   1.61965
 Alpha virt. eigenvalues --    1.62453   1.63144   1.63427   1.63901   1.63948
 Alpha virt. eigenvalues --    1.64586   1.64953   1.65871   1.66093   1.66790
 Alpha virt. eigenvalues --    1.67155   1.68206   1.69117   1.69200   1.69704
 Alpha virt. eigenvalues --    1.69798   1.70382   1.71753   1.72085   1.72851
 Alpha virt. eigenvalues --    1.73260   1.73403   1.73594   1.74052   1.74718
 Alpha virt. eigenvalues --    1.74888   1.75317   1.75673   1.76139   1.76963
 Alpha virt. eigenvalues --    1.77050   1.77244   1.77744   1.77979   1.78182
 Alpha virt. eigenvalues --    1.78476   1.78808   1.79141   1.79339   1.80384
 Alpha virt. eigenvalues --    1.81014   1.81786   1.81990   1.82398   1.82832
 Alpha virt. eigenvalues --    1.83361   1.83567   1.84306   1.85057   1.86256
 Alpha virt. eigenvalues --    1.86495   1.86716   1.87519   1.87900   1.88012
 Alpha virt. eigenvalues --    1.88162   1.88430   1.88724   1.89729   1.89986
 Alpha virt. eigenvalues --    1.90128   1.90502   1.91416   1.91614   1.91830
 Alpha virt. eigenvalues --    1.92175   1.92846   1.93472   1.93818   1.94756
 Alpha virt. eigenvalues --    1.94983   1.95295   1.96267   1.96559   1.96776
 Alpha virt. eigenvalues --    1.97484   1.97702   1.98540   1.99041   1.99594
 Alpha virt. eigenvalues --    1.99968   2.00403   2.00949   2.01149   2.01557
 Alpha virt. eigenvalues --    2.01697   2.01901   2.02735   2.02804   2.03355
 Alpha virt. eigenvalues --    2.03763   2.04352   2.04604   2.05239   2.05439
 Alpha virt. eigenvalues --    2.06052   2.06792   2.07593   2.08021   2.08667
 Alpha virt. eigenvalues --    2.08714   2.09354   2.09408   2.10001   2.10169
 Alpha virt. eigenvalues --    2.10915   2.11338   2.11949   2.12213   2.12933
 Alpha virt. eigenvalues --    2.13290   2.14136   2.14303   2.15379   2.15791
 Alpha virt. eigenvalues --    2.16532   2.16746   2.17247   2.17422   2.17951
 Alpha virt. eigenvalues --    2.18158   2.18672   2.19066   2.19450   2.19602
 Alpha virt. eigenvalues --    2.20581   2.21157   2.21355   2.21773   2.22373
 Alpha virt. eigenvalues --    2.22558   2.23049   2.23172   2.23501   2.24588
 Alpha virt. eigenvalues --    2.24985   2.25722   2.25880   2.26463   2.26818
 Alpha virt. eigenvalues --    2.27187   2.27810   2.28092   2.28439   2.28791
 Alpha virt. eigenvalues --    2.29202   2.29289   2.29568   2.30214   2.30589
 Alpha virt. eigenvalues --    2.30982   2.31089   2.31550   2.32242   2.32494
 Alpha virt. eigenvalues --    2.32908   2.33710   2.34080   2.34338   2.34883
 Alpha virt. eigenvalues --    2.35244   2.35368   2.36479   2.36744   2.37194
 Alpha virt. eigenvalues --    2.37370   2.37594   2.38084   2.38319   2.38978
 Alpha virt. eigenvalues --    2.39284   2.39903   2.40650   2.41146   2.41330
 Alpha virt. eigenvalues --    2.42250   2.42541   2.43205   2.43452   2.43793
 Alpha virt. eigenvalues --    2.44204   2.44417   2.44933   2.45535   2.45736
 Alpha virt. eigenvalues --    2.46308   2.46427   2.46772   2.46905   2.47594
 Alpha virt. eigenvalues --    2.47708   2.48000   2.48324   2.48900   2.49316
 Alpha virt. eigenvalues --    2.49355   2.49943   2.50302   2.50625   2.50850
 Alpha virt. eigenvalues --    2.51275   2.51991   2.52282   2.52465   2.52989
 Alpha virt. eigenvalues --    2.53518   2.54043   2.54490   2.55016   2.55294
 Alpha virt. eigenvalues --    2.55702   2.56245   2.56404   2.56745   2.56824
 Alpha virt. eigenvalues --    2.57401   2.57557   2.58169   2.58678   2.59031
 Alpha virt. eigenvalues --    2.59200   2.59987   2.60081   2.60453   2.60863
 Alpha virt. eigenvalues --    2.61031   2.62154   2.62295   2.62637   2.63211
 Alpha virt. eigenvalues --    2.63792   2.64481   2.64605   2.65200   2.65555
 Alpha virt. eigenvalues --    2.65694   2.66084   2.66376   2.66980   2.67008
 Alpha virt. eigenvalues --    2.67910   2.68441   2.68580   2.69067   2.69723
 Alpha virt. eigenvalues --    2.69920   2.70177   2.70262   2.70811   2.71801
 Alpha virt. eigenvalues --    2.72361   2.72941   2.73101   2.73446   2.73676
 Alpha virt. eigenvalues --    2.74390   2.74577   2.75190   2.75700   2.75869
 Alpha virt. eigenvalues --    2.76271   2.76622   2.77224   2.77443   2.77634
 Alpha virt. eigenvalues --    2.78057   2.78413   2.78805   2.79101   2.79351
 Alpha virt. eigenvalues --    2.79783   2.80241   2.80442   2.81208   2.81370
 Alpha virt. eigenvalues --    2.81866   2.82476   2.82692   2.83430   2.83602
 Alpha virt. eigenvalues --    2.83825   2.84406   2.84552   2.84850   2.85198
 Alpha virt. eigenvalues --    2.85337   2.85421   2.86629   2.86767   2.87070
 Alpha virt. eigenvalues --    2.87385   2.87791   2.88147   2.88469   2.88817
 Alpha virt. eigenvalues --    2.89014   2.89705   2.89937   2.90496   2.90571
 Alpha virt. eigenvalues --    2.91008   2.91447   2.92099   2.92429   2.92923
 Alpha virt. eigenvalues --    2.93061   2.93440   2.94044   2.94282   2.94861
 Alpha virt. eigenvalues --    2.95306   2.95510   2.96124   2.96368   2.96830
 Alpha virt. eigenvalues --    2.97090   2.97360   2.97432   2.98043   2.98354
 Alpha virt. eigenvalues --    2.98672   2.99173   2.99489   2.99643   3.00399
 Alpha virt. eigenvalues --    3.00795   3.00861   3.01061   3.01357   3.01725
 Alpha virt. eigenvalues --    3.02121   3.02282   3.02896   3.03023   3.03298
 Alpha virt. eigenvalues --    3.03779   3.04022   3.04254   3.04845   3.05355
 Alpha virt. eigenvalues --    3.06254   3.06306   3.06543   3.07118   3.07238
 Alpha virt. eigenvalues --    3.07537   3.07881   3.08273   3.08481   3.09034
 Alpha virt. eigenvalues --    3.09061   3.09385   3.09637   3.09989   3.10643
 Alpha virt. eigenvalues --    3.10737   3.11246   3.11506   3.11919   3.12094
 Alpha virt. eigenvalues --    3.12333   3.12522   3.13140   3.13313   3.13654
 Alpha virt. eigenvalues --    3.13796   3.14400   3.14561   3.15197   3.15320
 Alpha virt. eigenvalues --    3.15402   3.15664   3.16002   3.16131   3.16309
 Alpha virt. eigenvalues --    3.16748   3.17207   3.17448   3.17739   3.18076
 Alpha virt. eigenvalues --    3.18380   3.18799   3.19215   3.19395   3.19763
 Alpha virt. eigenvalues --    3.19888   3.20068   3.20122   3.20654   3.20905
 Alpha virt. eigenvalues --    3.21247   3.21297   3.21676   3.21873   3.22235
 Alpha virt. eigenvalues --    3.22667   3.22925   3.23094   3.23329   3.23554
 Alpha virt. eigenvalues --    3.24041   3.24142   3.24837   3.25015   3.25118
 Alpha virt. eigenvalues --    3.25365   3.25726   3.25911   3.26354   3.26741
 Alpha virt. eigenvalues --    3.26917   3.27269   3.27340   3.27541   3.27848
 Alpha virt. eigenvalues --    3.28099   3.28347   3.28711   3.29017   3.29230
 Alpha virt. eigenvalues --    3.29441   3.29830   3.29885   3.30232   3.30503
 Alpha virt. eigenvalues --    3.31184   3.31549   3.32056   3.32715   3.33222
 Alpha virt. eigenvalues --    3.33336   3.33765   3.34250   3.34613   3.34740
 Alpha virt. eigenvalues --    3.35239   3.35629   3.36123   3.36420   3.36502
 Alpha virt. eigenvalues --    3.37048   3.37736   3.37792   3.38323   3.39281
 Alpha virt. eigenvalues --    3.39489   3.39963   3.40604   3.40760   3.41783
 Alpha virt. eigenvalues --    3.42008   3.42403   3.42859   3.43298   3.43775
 Alpha virt. eigenvalues --    3.44102   3.44241   3.45099   3.45441   3.45839
 Alpha virt. eigenvalues --    3.46411   3.46487   3.47065   3.47634   3.47887
 Alpha virt. eigenvalues --    3.48007   3.48650   3.49030   3.49952   3.50058
 Alpha virt. eigenvalues --    3.50974   3.51250   3.52158   3.52600   3.52847
 Alpha virt. eigenvalues --    3.53129   3.53773   3.54697   3.54856   3.55256
 Alpha virt. eigenvalues --    3.55988   3.56074   3.56310   3.57237   3.57598
 Alpha virt. eigenvalues --    3.57913   3.58382   3.59005   3.59759   3.59868
 Alpha virt. eigenvalues --    3.60207   3.60988   3.61290   3.61427   3.61625
 Alpha virt. eigenvalues --    3.62557   3.62706   3.63136   3.63610   3.63861
 Alpha virt. eigenvalues --    3.64178   3.64563   3.65020   3.65083   3.65185
 Alpha virt. eigenvalues --    3.66525   3.66595   3.67292   3.67380   3.68436
 Alpha virt. eigenvalues --    3.68911   3.69167   3.69989   3.70589   3.70918
 Alpha virt. eigenvalues --    3.71740   3.72157   3.72390   3.72686   3.73202
 Alpha virt. eigenvalues --    3.74629   3.74652   3.75639   3.75763   3.76115
 Alpha virt. eigenvalues --    3.76804   3.77920   3.78635   3.79033   3.79458
 Alpha virt. eigenvalues --    3.79668   3.80320   3.80901   3.81291   3.81911
 Alpha virt. eigenvalues --    3.82292   3.82447   3.82655   3.83592   3.83874
 Alpha virt. eigenvalues --    3.84355   3.84903   3.86475   3.86803   3.87146
 Alpha virt. eigenvalues --    3.88412   3.88860   3.89158   3.89614   3.89895
 Alpha virt. eigenvalues --    3.90143   3.90429   3.91332   3.91830   3.92057
 Alpha virt. eigenvalues --    3.92915   3.93548   3.93899   3.94948   3.95167
 Alpha virt. eigenvalues --    3.96211   3.96921   3.97388   3.98381   3.98686
 Alpha virt. eigenvalues --    3.99572   4.00471   4.01004   4.01094   4.01555
 Alpha virt. eigenvalues --    4.02292   4.02998   4.03478   4.04213   4.04853
 Alpha virt. eigenvalues --    4.05642   4.06079   4.06645   4.06731   4.07770
 Alpha virt. eigenvalues --    4.08267   4.08613   4.09177   4.09979   4.10719
 Alpha virt. eigenvalues --    4.11325   4.11555   4.12092   4.12310   4.12745
 Alpha virt. eigenvalues --    4.13320   4.13886   4.14356   4.15194   4.15649
 Alpha virt. eigenvalues --    4.16031   4.17048   4.18948   4.19081   4.19409
 Alpha virt. eigenvalues --    4.20615   4.21002   4.21929   4.22323   4.22819
 Alpha virt. eigenvalues --    4.23331   4.23948   4.24484   4.24781   4.25684
 Alpha virt. eigenvalues --    4.26516   4.27080   4.27820   4.28295   4.29447
 Alpha virt. eigenvalues --    4.30258   4.30442   4.30764   4.31511   4.31587
 Alpha virt. eigenvalues --    4.31806   4.32426   4.32632   4.33431   4.34466
 Alpha virt. eigenvalues --    4.34597   4.34885   4.35403   4.35462   4.35873
 Alpha virt. eigenvalues --    4.37304   4.37555   4.38262   4.39854   4.41001
 Alpha virt. eigenvalues --    4.41375   4.42205   4.43521   4.44189   4.44955
 Alpha virt. eigenvalues --    4.45825   4.45881   4.46969   4.47405   4.48197
 Alpha virt. eigenvalues --    4.49115   4.50925   4.51820   4.52472   4.53825
 Alpha virt. eigenvalues --    4.54551   4.54979   4.57290   4.57477   4.58199
 Alpha virt. eigenvalues --    4.58682   4.59264   4.60642   4.61129   4.61594
 Alpha virt. eigenvalues --    4.61943   4.63759   4.64352   4.64812   4.64997
 Alpha virt. eigenvalues --    4.66299   4.66716   4.68692   4.69262   4.69729
 Alpha virt. eigenvalues --    4.70189   4.72291   4.72515   4.72583   4.73383
 Alpha virt. eigenvalues --    4.73860   4.74090   4.74416   4.75583   4.75844
 Alpha virt. eigenvalues --    4.76933   4.77444   4.78457   4.79369   4.80664
 Alpha virt. eigenvalues --    4.81814   4.82565   4.82961   4.83244   4.84035
 Alpha virt. eigenvalues --    4.84729   4.85013   4.85647   4.86935   4.88251
 Alpha virt. eigenvalues --    4.89691   4.90263   4.91149   4.91613   4.92151
 Alpha virt. eigenvalues --    4.92841   4.94664   4.95387   4.95636   4.96232
 Alpha virt. eigenvalues --    4.97025   4.97444   4.98520   4.99165   4.99969
 Alpha virt. eigenvalues --    5.03324   5.03849   5.04706   5.05935   5.08027
 Alpha virt. eigenvalues --    5.08106   5.09247   5.09728   5.10535   5.11578
 Alpha virt. eigenvalues --    5.12287   5.12667   5.14307   5.15377   5.16554
 Alpha virt. eigenvalues --    5.17941   5.18193   5.19128   5.21341   5.23658
 Alpha virt. eigenvalues --    5.24398   5.25283   5.26356   5.26538   5.27433
 Alpha virt. eigenvalues --    5.27620   5.27902   5.29142   5.29730   5.30427
 Alpha virt. eigenvalues --    5.31729   5.32647   5.35483   5.36564   5.38525
 Alpha virt. eigenvalues --    5.39062   5.39330   5.40322   5.41097   5.41372
 Alpha virt. eigenvalues --    5.44722   5.45319   5.47632   5.50320   5.50995
 Alpha virt. eigenvalues --    5.51185   5.51388   5.51791   5.53368   5.54409
 Alpha virt. eigenvalues --    5.55214   5.56316   5.57405   5.59236   5.62143
 Alpha virt. eigenvalues --    5.64414   5.65875   5.66469   5.68544   5.70236
 Alpha virt. eigenvalues --    5.77957   5.80123   5.81173   5.82005   5.85630
 Alpha virt. eigenvalues --    5.89592   5.90756   5.91141   5.97574   5.99291
 Alpha virt. eigenvalues --    6.00438   6.00898   6.01368   6.05677   6.07234
 Alpha virt. eigenvalues --    6.12678   6.15434   6.22889   6.23300   6.29868
 Alpha virt. eigenvalues --    6.36717   6.39176   6.41988   6.56190   6.84917
 Alpha virt. eigenvalues --    7.16345  22.26764  22.27370  22.34844  22.36813
 Alpha virt. eigenvalues --   22.37637  22.43419  22.44466  22.52762  22.53692
 Alpha virt. eigenvalues --   22.67015  22.76135  22.77566  22.80861  22.83630
 Alpha virt. eigenvalues --   22.84398  22.85591  22.87458  22.93450  22.93945
 Alpha virt. eigenvalues --   22.97747  23.04751  23.16676  23.17717  23.19678
 Alpha virt. eigenvalues --   23.21367  23.30655  23.31136  23.39802  23.40552
 Alpha virt. eigenvalues --   23.44994  23.62677  23.67809  23.69014  23.78121
 Alpha virt. eigenvalues --   32.29906  32.62749  32.79171  32.85885  32.89421
 Alpha virt. eigenvalues --   33.00683  43.95190
  Beta  occ. eigenvalues -- -256.42250 -30.23638 -26.08255 -26.08123 -26.08109
  Beta  occ. eigenvalues --  -19.28745 -14.52806 -14.47743 -14.44780 -14.44576
  Beta  occ. eigenvalues --  -14.44491 -14.44385 -10.37373 -10.34601 -10.32949
  Beta  occ. eigenvalues --  -10.32709 -10.32643 -10.32624 -10.32600 -10.32591
  Beta  occ. eigenvalues --  -10.32533 -10.32500 -10.32067 -10.30139 -10.29991
  Beta  occ. eigenvalues --  -10.29828 -10.29700 -10.29667 -10.29612 -10.29608
  Beta  occ. eigenvalues --  -10.29581 -10.29563 -10.29520 -10.29497 -10.29435
  Beta  occ. eigenvalues --  -10.29393 -10.28923 -10.28804 -10.28088 -10.27953
  Beta  occ. eigenvalues --  -10.27843 -10.27801 -10.27773 -10.27768 -10.27583
  Beta  occ. eigenvalues --  -10.27449  -3.55829  -2.31086  -2.30746  -2.30696
  Beta  occ. eigenvalues --   -1.16700  -1.16597  -1.08700  -1.07776  -1.07561
  Beta  occ. eigenvalues --   -1.06661  -1.02408  -0.93542  -0.92284  -0.91998
  Beta  occ. eigenvalues --   -0.91365  -0.91068  -0.90689  -0.90645  -0.90614
  Beta  occ. eigenvalues --   -0.86816  -0.85621  -0.85261  -0.84368  -0.82966
  Beta  occ. eigenvalues --   -0.82158  -0.81269  -0.80291  -0.78569  -0.78382
  Beta  occ. eigenvalues --   -0.78095  -0.75809  -0.75163  -0.75089  -0.72384
  Beta  occ. eigenvalues --   -0.72220  -0.70742  -0.70139  -0.68906  -0.68032
  Beta  occ. eigenvalues --   -0.66917  -0.65137  -0.64455  -0.63674  -0.63452
  Beta  occ. eigenvalues --   -0.61895  -0.61842  -0.61404  -0.59329  -0.58993
  Beta  occ. eigenvalues --   -0.58439  -0.58323  -0.58053  -0.56156  -0.55422
  Beta  occ. eigenvalues --   -0.54870  -0.54822  -0.54274  -0.54074  -0.53901
  Beta  occ. eigenvalues --   -0.53637  -0.53481  -0.53305  -0.53207  -0.52837
  Beta  occ. eigenvalues --   -0.52620  -0.52316  -0.52144  -0.52088  -0.51428
  Beta  occ. eigenvalues --   -0.50794  -0.50585  -0.50340  -0.50317  -0.50189
  Beta  occ. eigenvalues --   -0.49941  -0.49794  -0.49647  -0.49371  -0.49139
  Beta  occ. eigenvalues --   -0.48595  -0.48295  -0.47964  -0.47705  -0.47615
  Beta  occ. eigenvalues --   -0.47353  -0.47074  -0.46675  -0.46162  -0.45850
  Beta  occ. eigenvalues --   -0.45546  -0.44917  -0.44299  -0.43799  -0.43405
  Beta  occ. eigenvalues --   -0.43172  -0.42512  -0.41735  -0.41159  -0.39961
  Beta  occ. eigenvalues --   -0.39467  -0.37787  -0.37671  -0.35099  -0.34167
  Beta  occ. eigenvalues --   -0.33947  -0.32842  -0.32326  -0.29895  -0.28889
  Beta virt. eigenvalues --   -0.21089  -0.20919  -0.19571  -0.16712  -0.16682
  Beta virt. eigenvalues --   -0.14309  -0.12135  -0.11530  -0.09454  -0.08971
  Beta virt. eigenvalues --   -0.07683  -0.07186  -0.06019  -0.05876  -0.05220
  Beta virt. eigenvalues --   -0.04376  -0.03873  -0.03145  -0.02851  -0.02392
  Beta virt. eigenvalues --   -0.02083  -0.01982  -0.01184  -0.00633  -0.00563
  Beta virt. eigenvalues --    0.00036   0.00328   0.00365   0.00559   0.00842
  Beta virt. eigenvalues --    0.01560   0.02164   0.02254   0.02513   0.02647
  Beta virt. eigenvalues --    0.02844   0.03112   0.03444   0.03582   0.03776
  Beta virt. eigenvalues --    0.04010   0.04048   0.04215   0.04402   0.04601
  Beta virt. eigenvalues --    0.04939   0.05059   0.05262   0.05603   0.05709
  Beta virt. eigenvalues --    0.05901   0.06218   0.06570   0.06846   0.07138
  Beta virt. eigenvalues --    0.07195   0.07606   0.07781   0.07907   0.08044
  Beta virt. eigenvalues --    0.08412   0.08631   0.08764   0.08988   0.09404
  Beta virt. eigenvalues --    0.09457   0.09857   0.10049   0.10250   0.10615
  Beta virt. eigenvalues --    0.10817   0.11188   0.11346   0.11761   0.11924
  Beta virt. eigenvalues --    0.12073   0.12373   0.12517   0.13024   0.13265
  Beta virt. eigenvalues --    0.13475   0.13794   0.13899   0.14197   0.14433
  Beta virt. eigenvalues --    0.14910   0.15049   0.15338   0.15781   0.16286
  Beta virt. eigenvalues --    0.16495   0.16751   0.16845   0.16949   0.17275
  Beta virt. eigenvalues --    0.17673   0.17810   0.17971   0.18127   0.18412
  Beta virt. eigenvalues --    0.18993   0.19443   0.19818   0.19854   0.20078
  Beta virt. eigenvalues --    0.20361   0.20518   0.20905   0.21083   0.21389
  Beta virt. eigenvalues --    0.21524   0.21846   0.22038   0.22103   0.22478
  Beta virt. eigenvalues --    0.22865   0.23358   0.23514   0.23651   0.23953
  Beta virt. eigenvalues --    0.24307   0.24419   0.24610   0.24678   0.24920
  Beta virt. eigenvalues --    0.25459   0.25651   0.25906   0.26256   0.26627
  Beta virt. eigenvalues --    0.27082   0.27445   0.27549   0.27943   0.28154
  Beta virt. eigenvalues --    0.28487   0.28858   0.28882   0.29267   0.29355
  Beta virt. eigenvalues --    0.29558   0.29936   0.30062   0.30320   0.30560
  Beta virt. eigenvalues --    0.30762   0.30878   0.31269   0.31436   0.31586
  Beta virt. eigenvalues --    0.31736   0.32034   0.32467   0.32558   0.32831
  Beta virt. eigenvalues --    0.33069   0.33191   0.33379   0.33448   0.33771
  Beta virt. eigenvalues --    0.34148   0.34389   0.34595   0.34996   0.35148
  Beta virt. eigenvalues --    0.35259   0.35503   0.35657   0.35817   0.35935
  Beta virt. eigenvalues --    0.36491   0.36649   0.37020   0.37342   0.37672
  Beta virt. eigenvalues --    0.37789   0.38000   0.38198   0.38265   0.38384
  Beta virt. eigenvalues --    0.38548   0.38880   0.39094   0.39164   0.39480
  Beta virt. eigenvalues --    0.39893   0.39925   0.40206   0.40574   0.40935
  Beta virt. eigenvalues --    0.41057   0.41445   0.41560   0.41706   0.42191
  Beta virt. eigenvalues --    0.42223   0.42333   0.42555   0.42646   0.42823
  Beta virt. eigenvalues --    0.43037   0.43256   0.43485   0.43891   0.44051
  Beta virt. eigenvalues --    0.44109   0.44424   0.44833   0.44910   0.45240
  Beta virt. eigenvalues --    0.45470   0.45687   0.45893   0.46324   0.46553
  Beta virt. eigenvalues --    0.46845   0.46958   0.47126   0.47464   0.47682
  Beta virt. eigenvalues --    0.48019   0.48302   0.48481   0.48791   0.49046
  Beta virt. eigenvalues --    0.49365   0.49555   0.50040   0.50398   0.50577
  Beta virt. eigenvalues --    0.50809   0.51127   0.51646   0.51996   0.52226
  Beta virt. eigenvalues --    0.52361   0.52905   0.52944   0.53267   0.53632
  Beta virt. eigenvalues --    0.53918   0.54400   0.54589   0.54795   0.55168
  Beta virt. eigenvalues --    0.55292   0.55487   0.55607   0.55991   0.56256
  Beta virt. eigenvalues --    0.56546   0.56897   0.57225   0.57411   0.57644
  Beta virt. eigenvalues --    0.57860   0.58462   0.58772   0.58984   0.59538
  Beta virt. eigenvalues --    0.59952   0.60572   0.60939   0.61170   0.61441
  Beta virt. eigenvalues --    0.61635   0.61980   0.62320   0.62806   0.62966
  Beta virt. eigenvalues --    0.63050   0.63613   0.63812   0.64180   0.64278
  Beta virt. eigenvalues --    0.64474   0.64978   0.65312   0.65641   0.66130
  Beta virt. eigenvalues --    0.66377   0.66592   0.67087   0.67686   0.67820
  Beta virt. eigenvalues --    0.68119   0.68678   0.68793   0.69033   0.69422
  Beta virt. eigenvalues --    0.69709   0.69870   0.70186   0.70624   0.71019
  Beta virt. eigenvalues --    0.71482   0.71701   0.71899   0.72727   0.73317
  Beta virt. eigenvalues --    0.73622   0.74081   0.74284   0.74801   0.75238
  Beta virt. eigenvalues --    0.75574   0.75674   0.76351   0.76786   0.77247
  Beta virt. eigenvalues --    0.77625   0.78101   0.78308   0.78928   0.79161
  Beta virt. eigenvalues --    0.79319   0.79801   0.79813   0.80516   0.80815
  Beta virt. eigenvalues --    0.81121   0.81352   0.82033   0.82376   0.82827
  Beta virt. eigenvalues --    0.83244   0.83532   0.83690   0.84336   0.84412
  Beta virt. eigenvalues --    0.84993   0.85317   0.85743   0.85981   0.86120
  Beta virt. eigenvalues --    0.86823   0.87282   0.87668   0.87776   0.87994
  Beta virt. eigenvalues --    0.88247   0.88945   0.89244   0.89577   0.90387
  Beta virt. eigenvalues --    0.90488   0.90665   0.90942   0.91007   0.91466
  Beta virt. eigenvalues --    0.91897   0.92031   0.92457   0.92760   0.93038
  Beta virt. eigenvalues --    0.93374   0.93469   0.93921   0.94318   0.94473
  Beta virt. eigenvalues --    0.94560   0.95088   0.95379   0.95564   0.95698
  Beta virt. eigenvalues --    0.96200   0.97014   0.97426   0.97944   0.98265
  Beta virt. eigenvalues --    0.98715   0.98999   0.99229   0.99806   1.00063
  Beta virt. eigenvalues --    1.00510   1.00843   1.01400   1.02006   1.02362
  Beta virt. eigenvalues --    1.02790   1.03159   1.03947   1.04641   1.05308
  Beta virt. eigenvalues --    1.05499   1.05765   1.06180   1.07159   1.07305
  Beta virt. eigenvalues --    1.07395   1.07999   1.08102   1.08334   1.08719
  Beta virt. eigenvalues --    1.09251   1.09407   1.10041   1.10260   1.10506
  Beta virt. eigenvalues --    1.10992   1.11294   1.11510   1.12057   1.12188
  Beta virt. eigenvalues --    1.12512   1.13270   1.13466   1.14187   1.15029
  Beta virt. eigenvalues --    1.15423   1.15475   1.16325   1.16650   1.17214
  Beta virt. eigenvalues --    1.17443   1.17799   1.18105   1.18329   1.18886
  Beta virt. eigenvalues --    1.19103   1.19139   1.19470   1.19843   1.20364
  Beta virt. eigenvalues --    1.20755   1.20985   1.21400   1.21521   1.22184
  Beta virt. eigenvalues --    1.22674   1.23030   1.23496   1.25137   1.25359
  Beta virt. eigenvalues --    1.25856   1.26232   1.27092   1.27249   1.27834
  Beta virt. eigenvalues --    1.28152   1.28700   1.29356   1.29976   1.30585
  Beta virt. eigenvalues --    1.30938   1.31493   1.32389   1.32724   1.33504
  Beta virt. eigenvalues --    1.33772   1.34444   1.35218   1.35466   1.35504
  Beta virt. eigenvalues --    1.36051   1.36668   1.37068   1.37290   1.37722
  Beta virt. eigenvalues --    1.37788   1.38310   1.38593   1.38917   1.39262
  Beta virt. eigenvalues --    1.39479   1.39709   1.40091   1.40660   1.40706
  Beta virt. eigenvalues --    1.41245   1.41571   1.41602   1.42102   1.42301
  Beta virt. eigenvalues --    1.42644   1.43074   1.43272   1.43405   1.43700
  Beta virt. eigenvalues --    1.44070   1.44231   1.44563   1.44793   1.45381
  Beta virt. eigenvalues --    1.45494   1.45893   1.45928   1.46090   1.46621
  Beta virt. eigenvalues --    1.46760   1.47080   1.47344   1.47421   1.47750
  Beta virt. eigenvalues --    1.47992   1.48287   1.48652   1.48963   1.49385
  Beta virt. eigenvalues --    1.49616   1.49813   1.49927   1.50517   1.50875
  Beta virt. eigenvalues --    1.51268   1.51417   1.51720   1.51734   1.52315
  Beta virt. eigenvalues --    1.52584   1.52602   1.53094   1.53460   1.53707
  Beta virt. eigenvalues --    1.53984   1.54373   1.54509   1.54999   1.55600
  Beta virt. eigenvalues --    1.55664   1.55913   1.56066   1.56462   1.57036
  Beta virt. eigenvalues --    1.57170   1.57534   1.58023   1.58319   1.58783
  Beta virt. eigenvalues --    1.58865   1.59401   1.59958   1.60158   1.60295
  Beta virt. eigenvalues --    1.60688   1.60913   1.61476   1.61832   1.62054
  Beta virt. eigenvalues --    1.62545   1.63210   1.63518   1.63969   1.64144
  Beta virt. eigenvalues --    1.64718   1.65089   1.66151   1.66523   1.66907
  Beta virt. eigenvalues --    1.67254   1.68276   1.69197   1.69414   1.69808
  Beta virt. eigenvalues --    1.69931   1.70493   1.71871   1.72204   1.73000
  Beta virt. eigenvalues --    1.73425   1.73526   1.73793   1.74200   1.74880
  Beta virt. eigenvalues --    1.74969   1.75461   1.75757   1.76229   1.77104
  Beta virt. eigenvalues --    1.77133   1.77400   1.77853   1.78124   1.78297
  Beta virt. eigenvalues --    1.78608   1.78914   1.79346   1.79433   1.80730
  Beta virt. eigenvalues --    1.81178   1.82031   1.82279   1.82702   1.83044
  Beta virt. eigenvalues --    1.83602   1.83901   1.84517   1.85228   1.86420
  Beta virt. eigenvalues --    1.86671   1.86840   1.87836   1.88167   1.88256
  Beta virt. eigenvalues --    1.88332   1.88718   1.88906   1.90010   1.90236
  Beta virt. eigenvalues --    1.90244   1.90613   1.91525   1.91701   1.91916
  Beta virt. eigenvalues --    1.92387   1.93276   1.93684   1.93959   1.95083
  Beta virt. eigenvalues --    1.95171   1.96113   1.96625   1.96677   1.97122
  Beta virt. eigenvalues --    1.97694   1.97935   1.98647   1.99147   1.99753
  Beta virt. eigenvalues --    2.00173   2.00493   2.01159   2.01271   2.01762
  Beta virt. eigenvalues --    2.02033   2.02134   2.02874   2.03179   2.03710
  Beta virt. eigenvalues --    2.03990   2.04617   2.04865   2.05570   2.05710
  Beta virt. eigenvalues --    2.06176   2.07160   2.07718   2.08137   2.08822
  Beta virt. eigenvalues --    2.08910   2.09450   2.09591   2.10118   2.10427
  Beta virt. eigenvalues --    2.11119   2.11517   2.12103   2.12448   2.13213
  Beta virt. eigenvalues --    2.13483   2.14324   2.14474   2.15503   2.15957
  Beta virt. eigenvalues --    2.16658   2.16861   2.17366   2.17521   2.18092
  Beta virt. eigenvalues --    2.18305   2.18939   2.19141   2.19573   2.19895
  Beta virt. eigenvalues --    2.20674   2.21321   2.21554   2.21914   2.22567
  Beta virt. eigenvalues --    2.22746   2.23275   2.23357   2.23673   2.24737
  Beta virt. eigenvalues --    2.25109   2.25839   2.25937   2.26595   2.26881
  Beta virt. eigenvalues --    2.27374   2.27872   2.28207   2.28590   2.28891
  Beta virt. eigenvalues --    2.29312   2.29442   2.29787   2.30410   2.30773
  Beta virt. eigenvalues --    2.31125   2.31253   2.31896   2.32539   2.32809
  Beta virt. eigenvalues --    2.33088   2.34031   2.34396   2.34660   2.35155
  Beta virt. eigenvalues --    2.35456   2.35685   2.36910   2.37051   2.37314
  Beta virt. eigenvalues --    2.37468   2.37886   2.38312   2.38861   2.39097
  Beta virt. eigenvalues --    2.39584   2.40174   2.41057   2.41386   2.41570
  Beta virt. eigenvalues --    2.42696   2.42833   2.43362   2.43663   2.44020
  Beta virt. eigenvalues --    2.44309   2.44585   2.45197   2.45845   2.45917
  Beta virt. eigenvalues --    2.46387   2.46573   2.46987   2.47136   2.47714
  Beta virt. eigenvalues --    2.47860   2.48227   2.48710   2.49068   2.49450
  Beta virt. eigenvalues --    2.49722   2.50120   2.50452   2.50759   2.51030
  Beta virt. eigenvalues --    2.51546   2.52153   2.52419   2.52580   2.53199
  Beta virt. eigenvalues --    2.53631   2.54234   2.54938   2.55203   2.55487
  Beta virt. eigenvalues --    2.55887   2.56378   2.56622   2.56852   2.57188
  Beta virt. eigenvalues --    2.57532   2.57714   2.58372   2.58815   2.59206
  Beta virt. eigenvalues --    2.59311   2.60170   2.60271   2.60551   2.61035
  Beta virt. eigenvalues --    2.61174   2.62282   2.62449   2.62849   2.63476
  Beta virt. eigenvalues --    2.63996   2.64745   2.64791   2.65562   2.65693
  Beta virt. eigenvalues --    2.65983   2.66339   2.66593   2.67126   2.67410
  Beta virt. eigenvalues --    2.68046   2.68580   2.68730   2.69219   2.69922
  Beta virt. eigenvalues --    2.70093   2.70378   2.70594   2.71090   2.72231
  Beta virt. eigenvalues --    2.72573   2.73038   2.73240   2.73527   2.73776
  Beta virt. eigenvalues --    2.74526   2.74845   2.75373   2.75919   2.76039
  Beta virt. eigenvalues --    2.76526   2.76927   2.77469   2.77631   2.77797
  Beta virt. eigenvalues --    2.78286   2.78814   2.79035   2.79240   2.79570
  Beta virt. eigenvalues --    2.80025   2.80354   2.80783   2.81378   2.81624
  Beta virt. eigenvalues --    2.82118   2.82835   2.83223   2.83644   2.83903
  Beta virt. eigenvalues --    2.83984   2.84587   2.84796   2.85057   2.85387
  Beta virt. eigenvalues --    2.85443   2.85679   2.86833   2.86937   2.87196
  Beta virt. eigenvalues --    2.87530   2.87916   2.88247   2.88672   2.88973
  Beta virt. eigenvalues --    2.89162   2.89930   2.90250   2.90611   2.90707
  Beta virt. eigenvalues --    2.91117   2.91577   2.92234   2.92592   2.93088
  Beta virt. eigenvalues --    2.93260   2.93550   2.94179   2.94463   2.95055
  Beta virt. eigenvalues --    2.95435   2.95669   2.96397   2.96505   2.96948
  Beta virt. eigenvalues --    2.97278   2.97468   2.97620   2.98184   2.98493
  Beta virt. eigenvalues --    2.98826   2.99267   2.99643   2.99769   3.00549
  Beta virt. eigenvalues --    3.00894   3.01003   3.01231   3.01496   3.01881
  Beta virt. eigenvalues --    3.02265   3.02410   3.03057   3.03146   3.03405
  Beta virt. eigenvalues --    3.03930   3.04143   3.04364   3.04979   3.05450
  Beta virt. eigenvalues --    3.06404   3.06443   3.06675   3.07278   3.07326
  Beta virt. eigenvalues --    3.07623   3.08038   3.08397   3.08574   3.09117
  Beta virt. eigenvalues --    3.09212   3.09539   3.09800   3.10091   3.10739
  Beta virt. eigenvalues --    3.10847   3.11385   3.11667   3.12025   3.12226
  Beta virt. eigenvalues --    3.12433   3.12588   3.13240   3.13442   3.13814
  Beta virt. eigenvalues --    3.13954   3.14491   3.14649   3.15323   3.15438
  Beta virt. eigenvalues --    3.15532   3.15826   3.16153   3.16221   3.16435
  Beta virt. eigenvalues --    3.16903   3.17297   3.17635   3.17938   3.18216
  Beta virt. eigenvalues --    3.18496   3.18928   3.19327   3.19479   3.19902
  Beta virt. eigenvalues --    3.20018   3.20177   3.20282   3.20726   3.20997
  Beta virt. eigenvalues --    3.21285   3.21389   3.21751   3.21989   3.22324
  Beta virt. eigenvalues --    3.22855   3.22999   3.23257   3.23412   3.23681
  Beta virt. eigenvalues --    3.24178   3.24276   3.24950   3.25119   3.25255
  Beta virt. eigenvalues --    3.25477   3.25897   3.26050   3.26484   3.26911
  Beta virt. eigenvalues --    3.27171   3.27390   3.27585   3.27657   3.28002
  Beta virt. eigenvalues --    3.28280   3.28461   3.28883   3.29239   3.29334
  Beta virt. eigenvalues --    3.29634   3.29972   3.30043   3.30393   3.30675
  Beta virt. eigenvalues --    3.31293   3.31826   3.32156   3.32858   3.33329
  Beta virt. eigenvalues --    3.33474   3.33907   3.34511   3.34870   3.34976
  Beta virt. eigenvalues --    3.35446   3.36004   3.36299   3.36599   3.36833
  Beta virt. eigenvalues --    3.37204   3.37832   3.38024   3.38520   3.39427
  Beta virt. eigenvalues --    3.39772   3.40213   3.40929   3.41107   3.41930
  Beta virt. eigenvalues --    3.42308   3.42619   3.43106   3.43533   3.44045
  Beta virt. eigenvalues --    3.44450   3.44539   3.45482   3.45767   3.46039
  Beta virt. eigenvalues --    3.46628   3.46738   3.47449   3.47832   3.48144
  Beta virt. eigenvalues --    3.48423   3.49047   3.49304   3.50133   3.50300
  Beta virt. eigenvalues --    3.51290   3.51594   3.52559   3.52897   3.53173
  Beta virt. eigenvalues --    3.53442   3.54132   3.54863   3.55323   3.55645
  Beta virt. eigenvalues --    3.56356   3.56465   3.57147   3.57377   3.58195
  Beta virt. eigenvalues --    3.58388   3.58710   3.59281   3.60238   3.60308
[...]
  1409. RY*(  10) C  77                  0.00006     1.82714   
  1410. RY*(  11) C  77                  0.00007     2.31896   
  1411. RY*(  12) C  77                  0.00004     1.42241   
  1412. RY*(  13) C  77                  0.00004     1.87819   
  1413. RY*(  14) C  77                  0.00003     3.52545   
  1414. RY*(  15) C  77                  0.00003     2.89301   
  1415. RY*(  16) C  77                  0.00001     1.34989   
  1416. RY*(  17) C  77                  0.00000     3.79763   
  1417. RY*(  18) C  77                  0.00000     3.02665   
  1418. RY*(  19) C  77                  0.00000    21.12009   
  1419. RY*(  20) C  77                  0.00000     3.89275   
  1420. RY*(  21) C  77                  0.00000     4.03983   
  1421. RY*(  22) C  77                  0.00000     3.36903   
  1422. RY*(  23) C  77                  0.00000     3.37743   
  1423. RY*(  24) C  77                  0.00000     3.47287   
  1424. RY*(  25) C  77                  0.00000     3.47276   
  1425. RY*(  26) C  77                  0.00000     3.43526   
  1426. RY*(   1) H  78                  0.00024     0.80600   
  1427. RY*(   2) H  78                  0.00015     2.08350   
  1428. RY*(   3) H  78                  0.00011     0.80372   
  1429. RY*(   4) H  78                  0.00003     1.60444   
  1430. RY*(   5) H  78                  0.00000     3.41300   
  1431. BD*(   1)Fe   1 - N   2          0.02798     0.27361   
  1432. BD*(   1)Fe   1 - N   3          0.02909     0.28026   
  1433. BD*(   1)Fe   1 - N   4          0.02897     0.28061   
  1434. BD*(   1)Fe   1 - N   5          0.02965     0.28280   
  1435. BD*(   1)Fe   1 - N  76          0.03177     0.16237   
  1436. BD*(   1) N   2 - C   6          0.01380     0.39925   
  1437. BD*(   2) N   2 - C   6          0.32422    -0.09847  1483(v),1456(v),1451(v)
                                                    154(v),293(g),155(v),705(v)
                                                    188(g),292(g),153(v),1443(r)
                                                    156(v),189(g)
  1438. BD*(   1) N   2 - C   9          0.01395     0.39645   
  1439. BD*(   1) N   3 - C  10          0.01393     0.39615   
  1440. BD*(   2) N   3 - C  10          0.32670    -0.09957  1456(v),1460(v),1465(v)
                                                    153(v),396(g),155(v),215(g)
                                                    395(g),736(v),154(v),214(g)
                                                    1446(r),474(v)
  1441. BD*(   1) N   3 - C  13          0.01341     0.40132   
  1442. BD*(   1) N   4 - C  14          0.01409     0.39543   
  1443. BD*(   2) N   4 - C  14          0.33541    -0.10074  1465(v),1469(v),1474(v)
                                                    154(v),499(g),240(g),155(v)
                                                    500(g),767(v),153(v),1437(r)
                                                    1530(r),578(v)
  1444. BD*(   1) N   4 - C  17          0.01352     0.39911   
  1445. BD*(   1) N   5 - C  18          0.01387     0.40020   
  1446. BD*(   2) N   5 - C  18          0.32439    -0.09683  1474(v),1483(v),1478(v)
                                                    153(v),604(g),155(v),267(g)
                                                    798(v),154(v),266(g),1440(r)
  1447. BD*(   1) N   5 - C  21          0.01374     0.40187   
  1448. BD*(   1) C   6 - C   7          0.01736     0.38381   
  1449. BD*(   1) C   6 - C  22          0.01009     0.46836   
  1450. BD*(   1) C   7 - C   8          0.01163     0.49534   
  1451. BD*(   2) C   7 - C   8          0.11894    -0.03242  1456(v),1437(v),1491(v)
                                                    1490(v),1489(v),1492(v)
  1452. BD*(   1) C   7 - C  34          0.00811     0.31824   
  1453. BD*(   1) C   8 - C   9          0.01773     0.37569   
  1454. BD*(   1) C   8 - C  30          0.00830     0.31531   
  1455. BD*(   1) C   9 - C  24          0.01023     0.46693   
  1456. BD*(   2) C   9 - C  24          0.19844    -0.06080  1440(v),1451(v),1437(v)
                                                    736(g),1465(r),1483(r)
                                                    372(g)
  1457. BD*(   1) C  10 - C  11          0.01704     0.39276   
  1458. BD*(   1) C  10 - C  24          0.01035     0.46166   
  1459. BD*(   1) C  11 - C  12          0.01244     0.49094   
  1460. BD*(   2) C  11 - C  12          0.13786    -0.03499  1499(v),1465(v),1440(v)
                                                    1495(v),1494(v)
  1461. BD*(   1) C  11 - C  38          0.00773     0.32092   
  1462. BD*(   1) C  12 - C  13          0.01684     0.38178   
  1463. BD*(   1) C  12 - C  42          0.01322     0.40165   
  1464. BD*(   1) C  13 - C  26          0.01002     0.47000   
  1465. BD*(   2) C  13 - C  26          0.19423    -0.05718  1443(v),1460(v),1440(v)
                                                    767(g),1456(r),1474(r)
                                                    476(g)
  1466. BD*(   1) C  14 - C  15          0.01684     0.40940   
  1467. BD*(   1) C  14 - C  26          0.01035     0.46599   
  1468. BD*(   1) C  15 - C  16          0.01257     0.48715   
  1469. BD*(   2) C  15 - C  16          0.13987    -0.03778  1507(v),1474(v),1443(v)
                                                    1503(v)
  1470. BD*(   1) C  15 - C  47          0.00766     0.32077   
  1471. BD*(   1) C  16 - C  17          0.01679     0.38075   
  1472. BD*(   1) C  16 - C  51          0.01326     0.40009   
  1473. BD*(   1) C  17 - C  28          0.01020     0.46486   
  1474. BD*(   2) C  17 - C  28          0.20335    -0.06153  1446(v),1469(v),1443(v)
                                                    798(g),1465(r),1483(r)
                                                    580(g)
  1475. BD*(   1) C  18 - C  19          0.01766     0.37581   
  1476. BD*(   1) C  18 - C  28          0.01028     0.46776   
  1477. BD*(   1) C  19 - C  20          0.01160     0.49747   
  1478. BD*(   2) C  19 - C  20          0.11669    -0.03029  1483(v),1446(v),1513(v)
                                                    1511(v),1510(v),1515(v)
  1479. BD*(   1) C  19 - C  56          0.00826     0.31776   
  1480. BD*(   1) C  20 - C  21          0.01729     0.38896   
  1481. BD*(   1) C  20 - C  60          0.00811     0.31972   
  1482. BD*(   1) C  21 - C  22          0.01005     0.47014   
  1483. BD*(   2) C  21 - C  22          0.19610    -0.05641  1437(v),1478(v),1446(v)
                                                    705(g),683(g),1456(r)
                                                    1474(r)
  1484. BD*(   1) C  22 - H  23          0.00613     0.33242   
  1485. BD*(   1) C  24 - H  25          0.00640     0.33105   
  1486. BD*(   1) C  26 - H  27          0.00638     0.33034   
  1487. BD*(   1) C  28 - H  29          0.00642     0.33412   
  1488. BD*(   1) C  30 - H  31          0.00302     0.30436   
  1489. BD*(   1) C  30 - H  32          0.00449     0.29196   
  1490. BD*(   1) C  30 - H  33          0.00457     0.28876   
  1491. BD*(   1) C  34 - H  35          0.00459     0.29197   
  1492. BD*(   1) C  34 - H  36          0.00442     0.29292   
  1493. BD*(   1) C  34 - H  37          0.00302     0.30500   
  1494. BD*(   1) C  38 - H  39          0.00445     0.29554   
  1495. BD*(   1) C  38 - H  40          0.00539     0.29232   
  1496. BD*(   1) C  38 - H  41          0.00378     0.30630   
  1497. BD*(   1) C  42 - H  43          0.01033     0.33365   
  1498. BD*(   1) C  42 - C  44          0.00366     0.54726   
  1499. BD*(   2) C  42 - C  44          0.02958    -0.02807   
  1500. BD*(   1) C  44 - H  45          0.00513     0.35083   
  1501. BD*(   1) C  44 - H  46          0.00385     0.35474   
  1502. BD*(   1) C  47 - H  48          0.00428     0.29715   
  1503. BD*(   1) C  47 - H  49          0.00532     0.29143   
  1504. BD*(   1) C  47 - H  50          0.00366     0.30579   
  1505. BD*(   1) C  51 - H  52          0.01029     0.33273   
  1506. BD*(   1) C  51 - C  53          0.00362     0.54312   
  1507. BD*(   2) C  51 - C  53          0.02962    -0.03120   
  1508. BD*(   1) C  53 - H  54          0.00513     0.35082   
  1509. BD*(   1) C  53 - H  55          0.00381     0.35627   
  1510. BD*(   1) C  56 - H  57          0.00437     0.29398   
  1511. BD*(   1) C  56 - H  58          0.00465     0.29676   
  1512. BD*(   1) C  56 - H  59          0.00300     0.30641   
  1513. BD*(   1) C  60 - H  61          0.00473     0.29330   
  1514. BD*(   1) C  60 - H  62          0.00300     0.33125   
  1515. BD*(   1) C  60 - H  63          0.00428     0.35283   
  1518. BD*(   1) C  67 - H  68          0.00483     0.27296   
  1519. BD*(   1) C  67 - H  69          0.00155     0.37097   
  1520. BD*(   1) C  67 - H  70          0.00513     0.28114   
  1521. BD*(   1) C  67 - C  73          0.00613     0.31665   
  1522. BD*(   1) N  71 - H  72          0.00646     0.30828   
  1523. BD*(   1) N  71 - C  73          0.01361     0.35747   
  1524. BD*(   1) N  71 - C  74          0.01025     0.42029   
  1525. BD*(   1) C  73 - C  77          0.01043     0.45786   
  1526. BD*(   1) C  74 - H  75          0.00861     0.27380   
  1527. BD*(   1) C  74 - N  76          0.00902     0.41762   
  1528. BD*(   2) C  74 - N  76          0.21952     0.09987  1530(v),1519(r),1429(r)
                                                    1515(r),1523(v),1430(r)
                                                    1521(r),1514(r),1344(g)
                                                    1517(r),1516(r),95(v)
                                                    1466(r),1424(v),1404(v)
                                                    1420(v),1403(v),1402(v)
                                                    153(v),1400(v),1325(r)
                                                    1262(r),1480(r),1335(r)
                                                    1511(r),1312(r),1375(g)
                                                    1321(r),1332(r),1327(r)
                                                    1487(r),1434(v),1484(r)
                                                    1250(r),1498(r),1412(v)
                                                    1380(g),1365(g),1211(r)
  1529. BD*(   1) N  76 - C  77          0.00870     3.03589   
  1530. BD*(   1) C  77 - H  78          0.00653     4.05696   
       -------------------------------
              Total Lewis  145.43878  ( 96.8866%)
        Valence non-Lewis    4.40190  (  2.9324%)
        Rydberg non-Lewis    0.27164  (  0.1810%)
       -------------------------------
            Total unit  1  150.11232  (100.0000%)
           Charge unit  1    2.88768
 
 Molecular unit  2  (H2O)
    86. BD (   1) O  64 - H  65          0.99344    -0.92915  155(r),1435(r),154(r)
                                                    1241(v),153(r),1242(v)
                                                    160(r),1375(r),1431(r)
                                                    162(r),166(r),189(r),188(r)
                                                    187(r),1434(r),240(r)
                                                    1377(r),214(r)
    87. BD (   1) O  64 - H  66          0.99588    -0.99358  155(r),1435(r),1237(v)
                                                    1516(g),154(r),160(r),153(r)
                                                    162(r),1377(r),242(r)
                                                    1375(r),243(r),166(r),165(r)
                                                    240(r),239(r),217(r),161(r)
                                                    247(r)
   146. CR (   1) O  64                  0.99991   -19.07448  155(r),1435(r),1237(v)
                                                    1241(v),163(r),1431(r)
                                                    1434(r),1432(r),1433(r)
   157. LP (   1) O  64                  0.98343    -0.44793  153(r),154(r),1432(r)
                                                    1434(r),1240(v),1235(v)
                                                    1376(r),155(r),267(r),215(r)
   158. LP (   2) O  64                  0.90784    -0.60606  155(r),1435(r),1242(v)
                                                    1516(g),1517(g),1237(v)
                                                    166(r),1236(v),268(r),242(r)
                                                    215(r),1377(r),213(r),216(r)
                                                    239(r),265(r),187(r),1382(r)
                                                    189(r),1433(r),1439(r)
  1209. RY*(   1) O  64                  0.00103     1.16318   
  1210. RY*(   2) O  64                  0.00039     0.51570   
  1211. RY*(   3) O  64                  0.00019     1.15842   
  1212. RY*(   4) O  64                  0.00010     0.76973   
  1213. RY*(   5) O  64                  0.00003     2.14822   
  1214. RY*(   6) O  64                  0.00003     2.18690   
  1215. RY*(   7) O  64                  0.00000     3.06876   
  1216. RY*(   8) O  64                  0.00001     4.83226   
  1217. RY*(   9) O  64                  0.00001     3.01665   
  1218. RY*(  10) O  64                  0.00001     2.61793   
  1219. RY*(  11) O  64                  0.00000     6.27827   
  1220. RY*(  12) O  64                  0.00000     2.78542   
  1221. RY*(  13) O  64                  0.00000     6.34559   
  1222. RY*(  14) O  64                  0.00000    42.40688   
  1223. RY*(  15) O  64                  0.00000     6.40520   
  1224. RY*(  16) O  64                  0.00000     2.12527   
  1225. RY*(  17) O  64                  0.00000     6.10485   
  1226. RY*(  18) O  64                  0.00000     2.26343   
  1227. RY*(  19) O  64                  0.00000     6.33127   
  1228. RY*(  20) O  64                  0.00000     5.25674   
  1229. RY*(  21) O  64                  0.00000     5.18196   
  1230. RY*(  22) O  64                  0.00000     5.41703   
  1231. RY*(  23) O  64                  0.00000     5.25059   
  1232. RY*(  24) O  64                  0.00000     5.56674   
  1233. RY*(  25) O  64                  0.00000     5.50566   
  1234. RY*(  26) O  64                  0.00000     5.27097   
  1235. RY*(   1) H  65                  0.00039     1.88342   
  1236. RY*(   2) H  65                  0.00035     0.69316   
  1237. RY*(   3) H  65                  0.00028     2.26926   
  1238. RY*(   4) H  65                  0.00008     1.84165   
  1239. RY*(   5) H  65                  0.00001     2.78690   
  1240. RY*(   1) H  66                  0.00042     1.93764   
  1241. RY*(   2) H  66                  0.00038     1.32640   
  1242. RY*(   3) H  66                  0.00032     1.48286   
  1243. RY*(   4) H  66                  0.00011     1.93144   
  1244. RY*(   5) H  66                  0.00000     2.91475   
  1516. BD*(   1) O  64 - H  65          0.00162     0.32951   
  1517. BD*(   1) O  64 - H  66          0.00129     0.51677   
       -------------------------------
              Total Lewis    4.88050  ( 99.8561%)
        Valence non-Lewis    0.00291  (  0.0596%)
        Rydberg non-Lewis    0.00412  (  0.0843%)
       -------------------------------
            Total unit  2    4.88753  (100.0000%)
           Charge unit  2    0.11247
 Unable to Open any file for archive entry.
 1\1\GINC-BGN1021\SP\UAPFD\def2TZVP\C34H36Fe1N6O1(1+,6)\BEBJONES\28-Oct
 -2024\0\\# apfd/def2TZVP guess=read scf=maxcycle=999 geom=check pop=nb
 o\\1cpw_III_H\\1,6\Fe,0,35.4567140983,3.9396462268,10.2987025808\N,0,3
 7.3806700088,3.6702652969,9.8098081696\N,0,35.2815414456,5.2986895251,
 8.8304262691\N,0,33.5643395837,4.3120111536,10.8691441143\N,0,35.68008
 93622,2.7192853715,11.8664494246\C,0,38.2416607932,2.7861527819,10.379
 5441043\C,0,39.4698703765,2.7027592422,9.6200860003\C,0,39.3185766012,
 3.5376736377,8.5574698987\C,0,37.9996621441,4.1176655487,8.6842769256\
 C,0,36.2011687256,5.5742425514,7.864937517\C,0,35.6812377475,6.5241501
 229,6.9149893045\C,0,34.395564484,6.7919696874,7.3043189935\C,0,34.158
 7322667,5.9796884255,8.4828345192\C,0,32.679016897,5.1461959162,10.257
 0384248\C,0,31.4045663775,5.1192563653,10.9262316932\C,0,31.5796956374
 ,4.3577274917,12.0530510041\C,0,32.9263031088,3.8253771126,11.96525907
 94\C,0,34.760300068,2.4424556956,12.8281468604\C,0,35.3125147228,1.548
 2436067,13.823577202\C,0,36.6137656806,1.3565333997,13.4805534944\C,0,
 36.8137249075,2.0682028256,12.2363491308\C,0,37.9977517425,2.051921412
 ,11.5250261152\H,0,38.7972542743,1.4314086556,11.9002971897\C,0,37.467
 9292879,5.0199448195,7.7838556522\H,0,38.0879571971,5.3120371071,6.949
 6541702\C,0,32.9474630981,5.9220449843,9.1432233259\H,0,32.1447105644,
 6.5376121168,8.7671023487\C,0,33.4730350707,2.9425534878,12.8793845926
 \H,0,32.8586267249,2.6404091198,13.7137258373\C,0,40.2692426196,3.8394
 715603,7.44947408\H,0,41.2035997932,3.3001196829,7.5842121844\H,0,40.4
 910392977,4.9062526556,7.4145941845\H,0,39.8440733616,3.5517638329,6.4
 871657442\C,0,40.6297870158,1.8416285138,9.986914022\H,0,40.3431495993
 ,0.7895456043,9.9777954905\H,0,40.9872157917,2.085214905,10.9875174863
 \H,0,41.450995724,1.9789680521,9.2874810882\C,0,36.405377247,7.0271716
 476,5.7148010458\H,0,37.0017721168,6.2363385291,5.2615648056\H,0,37.07
 76644932,7.8447310322,5.9797918693\H,0,35.6942756018,7.3930605457,4.97
 67300547\C,0,33.4185206591,7.6606235745,6.686677169\H,0,32.3882257244,
 7.3303471253,6.7530439324\C,0,33.686456104,8.8060359337,6.0676960202\H
 ,0,34.6831516923,9.207707967,6.0116862039\H,0,32.9078299345,9.39722193
 48,5.6145993354\C,0,30.1774163046,5.822165126,10.4611237417\H,0,30.096
 5985233,5.7712090783,9.3762857456\H,0,30.1931204271,6.8747248317,10.74
 9618701\H,0,29.2949966193,5.3595659503,10.8987387119\C,0,30.6261689304
 ,4.0269424494,13.088239585\H,0,30.7369545926,3.0454254669,13.534549765
 \C,0,29.6597170738,4.8254944453,13.5305546476\H,0,29.5304479193,5.8284
 646428,13.1632100791\H,0,28.9763354272,4.508548514,14.3008730441\C,0,3
 4.5614532121,1.0352542914,15.0044558619\H,0,33.6799648789,0.4792130838
 ,14.6845406233\H,0,34.2299467229,1.8581460904,15.6386740841\H,0,35.184
 6909634,0.373212546,15.600679482\C,0,37.6613632201,0.545359078,14.1631
 278383\H,0,37.9660212869,-0.2940022315,13.5368781516\H,0,37.2922804546
 ,0.1515003113,15.1070587445\H,0,38.5432118971,1.1527611585,14.36607412
 2\O,0,36.023,5.66,11.669\H,0,35.215,6.081,11.963\H,0,36.846,5.854,11.9
 43\C,0,32.8476660587,-0.4718459048,8.144696719\H,0,32.1762215017,-0.30
 81512687,7.3015568226\H,0,32.2522336653,-0.6339706758,9.0382129263\H,0
 ,33.4317192194,-1.3711362842,7.9464075107\N,0,34.5664824423,1.17398238
 07,7.3635211813\H,0,34.65953558,0.7918010284,6.4367219023\C,0,33.73592
 51937,0.7009410549,8.3458893095\C,0,35.229928604,2.2407332483,7.866078
 3981\H,0,35.9490273197,2.8138885185,7.3170193591\N,0,34.8697690776,2.4
 710006689,9.1058673609\C,0,33.9418344323,1.5200954418,9.4184273377\H,0
 ,33.4884654252,1.4920918661,10.3874304369\\Version=ES64L-G16RevC.02\St
 ate=6-A\HF=-2983.8364132\S2=8.758759\S2-1=0.\S2A=8.750023\RMSD=5.318e-
 09\Dipole=0.1107601,-1.136933,-0.8756498\Quadrupole=1.6383687,-4.95770
 89,3.3193402,-4.0636189,-5.0427078,-3.1645243\PG=C01 [X(C34H36Fe1N6O1)
 ]\\@
 The archive entry for this job was punched.


 SUCCESS-- IF YOU HAVE TRIED TO DO SOMETHING AND FAILED
           YOU ARE BETTER OFF THAN IF YOU HAD TRIED TO DO
           NOTHING AND SUCCEEDED.

                   -- FROM THE BACK OF A SUGAR PACKET
 Job cpu time:       0 days 12 hours 15 minutes 22.8 seconds.
 Elapsed time:       0 days  0 hours 11 minutes 30.3 seconds.
 File lengths (MBytes):  RWF=   2166 Int=      0 D2E=      0 Chk=    179 Scr=      1
 Normal termination of Gaussian 16 at Mon Oct 28 04:41:30 2024.
