 Entering Gaussian System, Link 0=g16
 Input=1cyf05.com
 Output=1cyf05.log
 Initial command:
 /sw/chem/gaussian/g16_C02/a100/g16/l1.exe "/local/bebjones_8062033/Gau-725425.inp" -scrdir="/local/bebjones_8062033/"
 Entering Link 1 = /sw/chem/gaussian/g16_C02/a100/g16/l1.exe PID=    725426.
  
 Copyright (c) 1988-2021, Gaussian, Inc.  All Rights Reserved.
  
 This is part of the Gaussian(R) 16 program.  It is based on
 the Gaussian(R) 09 system (copyright 2009, Gaussian, Inc.),
 the Gaussian(R) 03 system (copyright 2003, Gaussian, Inc.),
 the Gaussian(R) 98 system (copyright 1998, Gaussian, Inc.),
 the Gaussian(R) 94 system (copyright 1995, Gaussian, Inc.),
 the Gaussian 92(TM) system (copyright 1992, Gaussian, Inc.),
 the Gaussian 90(TM) system (copyright 1990, Gaussian, Inc.),
 the Gaussian 88(TM) system (copyright 1988, Gaussian, Inc.),
 the Gaussian 86(TM) system (copyright 1986, Carnegie Mellon
 University), and the Gaussian 82(TM) system (copyright 1983,
 Carnegie Mellon University). Gaussian is a federally registered
 trademark of Gaussian, Inc.
  
 This software contains proprietary and confidential information,
 including trade secrets, belonging to Gaussian, Inc.
  
 This software is provided under written license and may be
 used, copied, transmitted, or stored only in accord with that
 written license.
  
 The following legend is applicable only to US Government
 contracts under FAR:
  
                    RESTRICTED RIGHTS LEGEND
  
 Use, reproduction and disclosure by the US Government is
 subject to restrictions as set forth in subparagraphs (a)
 and (c) of the Commercial Computer Software - Restricted
 Rights clause in FAR 52.227-19.
  
 Gaussian, Inc.
 340 Quinnipiac St., Bldg. 40, Wallingford CT 06492
  
  
 ---------------------------------------------------------------
 Warning -- This program may not be used in any manner that
 competes with the business of Gaussian, Inc. or will provide
 assistance to any competitor of Gaussian, Inc.  The licensee
 of this program is prohibited from giving any competitor of
 Gaussian, Inc. access to this program.  By using this program,
 the user acknowledges that Gaussian, Inc. is engaged in the
 business of creating and licensing software in the field of
 computational chemistry and represents and warrants to the
 licensee that it is not a competitor of Gaussian, Inc. and that
 it will not use this program in any manner prohibited above.
 ---------------------------------------------------------------
  

 Cite this work as:
 Gaussian 16, Revision C.02,
 M. J. Frisch, G. W. Trucks, H. B. Schlegel, G. E. Scuseria, 
 M. A. Robb, J. R. Cheeseman, G. Scalmani, V. Barone, 
 G. A. Petersson, H. Nakatsuji, X. Li, M. Caricato, A. V. Marenich, 
 J. Bloino, B. G. Janesko, R. Gomperts, B. Mennucci, H. P. Hratchian, 
 J. V. Ortiz, A. F. Izmaylov, J. L. Sonnenberg, D. Williams-Young, 
 F. Ding, F. Lipparini, F. Egidi, J. Goings, B. Peng, A. Petrone, 
 T. Henderson, D. Ranasinghe, V. G. Zakrzewski, J. Gao, N. Rega, 
 G. Zheng, W. Liang, M. Hada, M. Ehara, K. Toyota, R. Fukuda, 
 J. Hasegawa, M. Ishida, T. Nakajima, Y. Honda, O. Kitao, H. Nakai, 
 T. Vreven, K. Throssell, J. A. Montgomery, Jr., J. E. Peralta, 
 F. Ogliaro, M. J. Bearpark, J. J. Heyd, E. N. Brothers, K. N. Kudin, 
 V. N. Staroverov, T. A. Keith, R. Kobayashi, J. Normand, 
 K. Raghavachari, A. P. Rendell, J. C. Burant, S. S. Iyengar, 
 J. Tomasi, M. Cossi, J. M. Millam, M. Klene, C. Adamo, R. Cammi, 
 J. W. Ochterski, R. L. Martin, K. Morokuma, O. Farkas, 
 J. B. Foresman, and D. J. Fox, Gaussian, Inc., Wallingford CT, 2019.
 
 ******************************************
 Gaussian 16:  ES64L-G16RevC.02  7-Dec-2021
                27-Oct-2024 
 ******************************************
 %mem=16GB
 %CPU=0-71
 SetSPE:  set environment variable "OMP_PROC_BIND" = "true"
 SetSPE:  set environment variable "OMP_PLACES" = "{0},{1},{2},{3},{4},{5},{6},{7},{8},{9},{10},{11},{12},{13},{14},{15},{16},{17},{18},{19},{20},{21},{22},{23},{24},{25},{26},{27},{28},{29},{30},{31},{32},{33},{34},{35},{36},{37},{38},{39},{40},{41},{42},{43},{44},{45},{46},{47},{48},{49},{50},{51},{52},{53},{54},{55},{56},{57},{58},{59},{60},{61},{62},{63},{64},{65},{66},{67},{68},{69},{70},{71}"
 Will use up to   72 processors via shared memory.
 %gpucpu=0,1,2,3=0,1,2,3
 Will use    4 GPUs:
 Thread  CPU   GPU
      0    0     0
      1    1     1
      2    2     2
      3    3     3
      4    4    -1
      5    5    -1
      6    6    -1
      7    7    -1
      8    8    -1
      9    9    -1
     10   10    -1
     11   11    -1
     12   12    -1
     13   13    -1
     14   14    -1
     15   15    -1
     16   16    -1
     17   17    -1
     18   18    -1
     19   19    -1
     20   20    -1
     21   21    -1
     22   22    -1
     23   23    -1
     24   24    -1
     25   25    -1
     26   26    -1
     27   27    -1
     28   28    -1
     29   29    -1
     30   30    -1
     31   31    -1
     32   32    -1
     33   33    -1
     34   34    -1
     35   35    -1
     36   36    -1
     37   37    -1
     38   38    -1
     39   39    -1
     40   40    -1
     41   41    -1
     42   42    -1
     43   43    -1
     44   44    -1
     45   45    -1
     46   46    -1
     47   47    -1
     48   48    -1
     49   49    -1
     50   50    -1
     51   51    -1
     52   52    -1
     53   53    -1
     54   54    -1
     55   55    -1
     56   56    -1
     57   57    -1
     58   58    -1
     59   59    -1
     60   60    -1
     61   61    -1
     62   62    -1
     63   63    -1
     64   64    -1
     65   65    -1
     66   66    -1
     67   67    -1
     68   68    -1
     69   69    -1
     70   70    -1
     71   71    -1
 SetGPE:  set environment variable "OMP_PROC_BIND" = "true"
 SetGPE:  set environment variable "OMP_PLACES" = "{0},{1},{2},{3},{4},{5},{6},{7},{8},{9},{10},{11},{12},{13},{14},{15},{16},{17},{18},{19},{20},{21},{22},{23},{24},{25},{26},{27},{28},{29},{30},{31},{32},{33},{34},{35},{36},{37},{38},{39},{40},{41},{42},{43},{44},{45},{46},{47},{48},{49},{50},{51},{52},{53},{54},{55},{56},{57},{58},{59},{60},{61},{62},{63},{64},{65},{66},{67},{68},{69},{70},{71}"
 %oldchk=1cyf_II_Sre.chk
 %chk=1cyf_II_Qn.chk
 Properties for Device   0
 Minimum vector length:                              32
 Maximum vector length:                            1024
 Number of SMPs:                                    108
 Maximum number of threads per SMP:                2048
 Number of ASync Engines:                             5
 Memory:                                           9207742464
 Properties for Device   1
 Minimum vector length:                              32
 Maximum vector length:                            1024
 Number of SMPs:                                    108
 Maximum number of threads per SMP:                2048
 Number of ASync Engines:                             5
 Memory:                                           9207742464
 Properties for Device   2
 Minimum vector length:                              32
 Maximum vector length:                            1024
 Number of SMPs:                                    108
 Maximum number of threads per SMP:                2048
 Number of ASync Engines:                             5
 Memory:                                           9207742464
 Properties for Device   3
 Minimum vector length:                              32
 Maximum vector length:                            1024
 Number of SMPs:                                    108
 Maximum number of threads per SMP:                2048
 Number of ASync Engines:                             5
 Memory:                                           9207742464
   8286968217 words of memory will be used on each GPU.
 Copying data from "1cyf_II_Sre.chk" to current chk file "1cyf_II_Qn.chk"
 IOpt=  2 FromEx=T IUOpen= 4 IOptOp= 5 NList=   0 IFRang= 0 IUIn= 4 IUOut= 2.
 --------------------------------------------------------------
 # apfd/def2TZVP guess=read scf=maxcycle=999 geom=check pop=nbo
 --------------------------------------------------------------
 1/29=2,38=1,172=1/1;
 2/12=2,40=1/2;
 3/5=44,7=101,11=2,14=-4,25=1,30=1,74=-44,116=-2/1,2,3;
 4/5=1/1;
 5/5=2,7=999,38=6/2;
 6/7=2,8=2,9=2,10=2,28=1,40=1/1,7;
 99/5=1,9=1/99;
 ---------
 1cyf_II_Q
 ---------
 Structure from the checkpoint file:  "1cyf_II_Qn.chk"
 Charge =  0 Multiplicity = 5
 Z-Matrix found in chk file.
 Fe,0,36.50558886,28.6630433198,7.0347108531
 N,0,36.3974729554,29.1856631476,8.9622682914
 N,0,34.7219070444,29.5857364426,6.698558873
 N,0,36.5965175079,28.1852982194,5.0897673801
 N,0,38.3502457579,27.9301191845,7.3601708318
 C,0,37.1542486447,28.6610421944,9.9668124757
 C,0,36.6908586948,29.1270397254,11.2525726075
 C,0,35.5369047655,29.8066847024,11.0142546573
 C,0,35.3114999448,29.7333398195,9.5867388467
 C,0,33.9516550841,30.2325701838,7.6180881529
 C,0,32.8294163703,30.8782202582,6.9849960693
 C,0,32.9572630182,30.6371313228,5.6434410234
 C,0,34.2015326895,29.90467224,5.4873204244
 C,0,35.7380832761,28.5706353997,4.1067628461
 C,0,36.3496698988,28.4014264622,2.8085240505
 C,0,37.5159742018,27.7181534247,3.0234416345
 C,0,37.6217093447,27.5477870502,4.4649049717
 C,0,39.042830057,27.1984825894,6.4497642788
 C,0,40.0346279988,26.3698834563,7.1022302771
 C,0,39.9937376947,26.6988223223,8.4202498429
 C,0,38.9030304213,27.6381093887,8.5717877196
 C,0,38.3168699624,27.9322530289,9.7896669063
 H,0,38.8236472681,27.5876543465,10.67889904
 C,0,34.2712444558,30.3903061528,8.9564268854
 H,0,33.5602660904,30.90861795,9.5820007909
 C,0,34.607174845,29.3521662382,4.287696175
 H,0,34.0447104815,29.6149832244,3.4048105834
 C,0,38.7772687565,27.1164329151,5.0917898574
 H,0,39.4881170602,26.5665625252,4.4920101419
 C,0,34.6255752432,30.4854514705,11.9794340243
 H,0,34.5437267514,31.5483141319,11.7496779778
 H,0,34.9961223117,30.3843215984,12.9965479336
 H,0,33.6256814493,30.0529681513,11.9343521109
 C,0,37.3795481928,28.8554371496,12.5460561584
 H,0,38.3947831885,29.2520188203,12.5290453686
 H,0,37.4398345233,27.7825673102,12.7309452204
 H,0,36.8458181102,29.3163237495,13.373663094
 C,0,31.7850307712,31.6759051664,7.6853808993
 H,0,32.2271379893,32.2842888335,8.4729949706
 H,0,31.0365986788,31.025839834,8.1421037921
 H,0,31.2831101334,32.333794473,6.9789452823
 C,0,32.1152530802,31.0715850296,4.5522027495
 H,0,32.630189509,31.3121201668,3.6291698617
 C,0,30.7911652623,31.1811626798,4.5979486673
 H,0,30.224404744,30.9112009815,5.4719602224
 H,0,30.2238418837,31.5236674454,3.748469185
 C,0,35.7969031999,28.9051123288,1.5211974071
 H,0,35.3520729038,29.8906745178,1.6502130279
 H,0,35.0261034564,28.2344649543,1.1377480681
 H,0,36.5901917822,28.9776233633,0.7802196423
 C,0,38.5121021471,27.2806945133,2.069201934
 H,0,39.5363430169,27.2853751204,2.4230545054
 C,0,38.264520441,26.8741213893,0.8281721039
 H,0,37.2648556212,26.8022764049,0.4367419906
 H,0,39.0588588678,26.5724497335,0.1655055058
 C,0,40.9384348123,25.4167747093,6.3976283837
 H,0,41.5673342973,25.9419112908,5.6778379693
 H,0,40.3593928569,24.6684599731,5.8562223361
 H,0,41.5837838861,24.9025134503,7.1056295716
 C,0,40.805052852,26.1657224361,9.551737828
 H,0,41.6600354903,25.6035170392,9.1835553066
 H,0,40.2061715572,25.5051226863,10.1805536603
 H,0,41.1720935278,26.9820479459,10.1726661989
 O,0,37.466,30.673,6.643
 H,0,37.472,31.131,7.483
 H,0,37.708,31.012,5.857
 C,0,35.1831882818,23.2588320267,7.4830104702
 H,0,36.0484245922,22.9271047822,6.9175905983
 H,0,34.2817625243,22.9181409051,6.9732685958
 H,0,35.2118600772,22.7969920335,8.4699254858
 N,0,34.2388600639,25.4407480307,8.2719504383
 H,0,33.4478634783,25.0426794768,8.750952167
 C,0,35.199800062,24.7394861607,7.5919527387
 C,0,34.5453038231,26.7544682414,8.1754119405
 H,0,33.9639285389,27.5398530481,8.612318019
 N,0,35.6419380583,26.9273958185,7.4776153022
 C,0,36.0598853327,25.6825900404,7.1069120347
 H,0,36.9453529449,25.5499923181,6.5204884199
 Recover connectivity data from disk.
 Stoichiometry    C34H36FeN6O(5)
 Framework group  C1[X(C34H36FeN6O)]
 Deg. of freedom   228
 Full point group                 C1      NOp   1
 Largest Abelian subgroup         C1      NOp   1
 Largest concise Abelian subgroup C1      NOp   1
                         Standard orientation:                         
 ---------------------------------------------------------------------
 Center     Atomic      Atomic             Coordinates (Angstroms)
 Number     Number       Type             X           Y           Z
 ---------------------------------------------------------------------
      1         26           0       -0.009664   -0.118767   -0.424602
      2          7           0        0.392329   -2.061991   -0.674759
      3          7           0        1.978646    0.247505   -0.183042
      4          7           0       -0.372024    1.840482   -0.202444
      5          7           0       -1.939543   -0.485419   -0.857030
      6          6           0       -0.520961   -3.071704   -0.616219
      7          6           0        0.135277   -4.357330   -0.656015
      8          6           0        1.468759   -4.103302   -0.568739
      9          6           0        1.601031   -2.665955   -0.466148
     10          6           0        2.987279   -0.668276   -0.217975
     11          6           0        4.272351   -0.019956   -0.144753
     12          6           0        4.019564    1.324824   -0.101113
     13          6           0        2.578841    1.463225   -0.220440
     14          6           0        0.545161    2.839119   -0.087604
     15          6           0       -0.063002    4.117767   -0.376202
     16          6           0       -1.408866    3.886760   -0.468963
     17          6           0       -1.582246    2.451365   -0.302821
     18          6           0       -2.932896    0.428243   -0.707776
     19          6           0       -4.215450   -0.225849   -0.555564
     20          6           0       -3.983928   -1.554639   -0.722188
     21          6           0       -2.550922   -1.704050   -0.860154
     22          6           0       -1.892767   -2.909167   -0.693239
     23          1           0       -2.498893   -3.801764   -0.646481
     24          6           0        2.825344   -2.024251   -0.448798
     25          1           0        3.709655   -2.643218   -0.430003
     26          6           0        1.921144    2.669129   -0.071648
     27          1           0        2.526228    3.561349   -0.019268
     28          6           0       -2.772142    1.798202   -0.570953
     29          1           0       -3.674201    2.392855   -0.562270
     30          6           0        2.611721   -5.060363   -0.546590
     31          1           0        3.284987   -4.875743   -1.384321
     32          1           0        2.257538   -6.086076   -0.613823
     33          1           0        3.184254   -4.955209    0.375370
     34          6           0       -0.575301   -5.664118   -0.748451
     35          1           0       -1.181415   -5.706294   -1.653501
     36          1           0       -1.236938   -5.802626    0.107072
     37          1           0        0.132285   -6.489349   -0.771557
     38          6           0        5.590485   -0.712682   -0.160067
     39          1           0        5.581652   -1.544292   -0.863112
     40          1           0        5.836067   -1.108785    0.826910
     41          1           0        6.373165   -0.016900   -0.455183
     42          6           0        4.950556    2.428608   -0.042400
     43          1           0        4.658811    3.318151   -0.588848
     44          6           0        6.099704    2.431770    0.625997
     45          1           0        6.416764    1.594592    1.223157
     46          1           0        6.754597    3.287241    0.617893
     47          6           0        0.668852    5.402401   -0.551033
     48          1           0        1.598346    5.247148   -1.096733
     49          1           0        0.914724    5.846757    0.414901
     50          1           0        0.054047    6.106515   -1.107677
     51          6           0       -2.483303    4.818551   -0.736480
     52          1           0       -3.318156    4.423543   -1.303306
     53          6           0       -2.522016    6.085718   -0.337051
     54          1           0       -1.746014    6.520271    0.268501
     55          1           0       -3.351088    6.728533   -0.583086
     56          6           0       -5.507186    0.483820   -0.332999
     57          1           0       -5.728131    1.153005   -1.165319
     58          1           0       -5.464211    1.081562    0.577628
     59          1           0       -6.325368   -0.225841   -0.237257
     60          6           0       -4.945855   -2.692893   -0.680163
     61          1           0       -5.971469   -2.334706   -0.729640
     62          1           0       -4.827686   -3.266369    0.240501
     63          1           0       -4.775438   -3.364475   -1.520755
     64          8           0        0.349071    0.142376   -2.642454
     65          1           0        0.612362   -0.717015   -2.970365
     66          1           0        0.338552    0.901774   -3.105579
     67          6           0       -2.012194   -0.268289    4.783347
     68          1           0       -2.915885    0.275938    4.527346
     69          1           0       -1.471415    0.292518    5.545926
     70          1           0       -2.292453   -1.233673    5.204784
     71          7           0        0.016161   -1.116030    3.582492
     72          1           0        0.440940   -1.544031    4.388690
     73          6           0       -1.178227   -0.444623    3.567663
     74          6           0        0.515375   -1.091489    2.325802
     75          1           0        1.444699   -1.539471    2.040528
     76          7           0       -0.290511   -0.447335    1.516453
     77          6           0       -1.348022   -0.038032    2.275258
     78          1           0       -2.154584    0.517339    1.843346
 ---------------------------------------------------------------------
 Rotational constants (GHZ):           0.0938821           0.0924689           0.0590400
 Standard basis: def2TZVP (5D, 7F)
 There are  1744 symmetry adapted cartesian basis functions of A   symmetry.
 There are  1532 symmetry adapted basis functions of A   symmetry.
  1532 basis functions,  2481 primitive gaussians,  1744 cartesian basis functions
   160 alpha electrons      156 beta electrons
       nuclear repulsion energy      5977.4306089154 Hartrees.
 NAtoms=   78 NActive=   78 NUniq=   78 SFac= 1.00D+00 NAtFMM=   60 NAOKFM=T Big=T
 Integral buffers will be    131072 words long.
 Raffenetti 2 integral format.
 Two-electron integral symmetry is turned on.
 R6APFD:  NTU= -4 IXU= 1 FactS= 1.050
 Nuclear repulsion after empirical dispersion term =     5977.2761350363 Hartrees.
 One-electron integrals computed using PRISM.
   1 Symmetry operations used in ECPInt.
 ECPInt:  NShTT=  186355 NPrTT=  576197 LenC2=  147411 LenP2D=  301894.
 LDataN:  DoStor=T MaxTD1= 6 Len=  172
 Number of processors reduced to  23 by ecpmxn.
 NBasis=  1532 RedAO= T EigKep=  4.76D-06  NBF=  1532
 NBsUse=  1532 1.00D-06 EigRej= -1.00D+00 NBFU=  1532
 Initial guess from the checkpoint file:  "1cyf_II_Qn.chk"
 B after Tr=     0.000000    0.000000   -0.000000
         Rot=    1.000000   -0.000000    0.000000   -0.000000 Ang=   0.00 deg.
 Initial guess <Sx>= 0.0000 <Sy>= 0.0000 <Sz>= 2.0000 <S**2>= 6.0302 S= 2.0060
 Requested convergence on RMS density matrix=1.00D-08 within 999 cycles.
 Requested convergence on MAX density matrix=1.00D-06.
 Requested convergence on             energy=1.00D-06.
 No special actions if energy rises.
 Restarting incremental Fock formation.
 Restarting incremental Fock formation.
 SCF Done:  E(UAPFD) =  -2983.98332529     A.U. after   58 cycles
            NFock= 58  Conv=0.25D-08     -V/T= 2.0031
 <Sx>= 0.0000 <Sy>= 0.0000 <Sz>= 2.0000 <S**2>= 6.0288 S= 2.0058
 <L.S>=  0.00000000000    
 Annihilation of the first spin contaminant:
 S**2 before annihilation     6.0288,   after     6.0002

 **********************************************************************

            Population analysis using the SCF Density.

 **********************************************************************

 Orbital symmetries:
 Alpha Orbitals:
       Occupied  (A) (A) (A) (A) (A) (A) (A) (A) (A) (A) (A) (A)
                 (A) (A) (A) (A) (A) (A) (A) (A) (A) (A) (A) (A)
                 (A) (A) (A) (A) (A) (A) (A) (A) (A) (A) (A) (A)
                 (A) (A) (A) (A) (A) (A) (A) (A) (A) (A) (A) (A)
                 (A) (A) (A) (A) (A) (A) (A) (A) (A) (A) (A) (A)
                 (A) (A) (A) (A) (A) (A) (A) (A) (A) (A) (A) (A)
                 (A) (A) (A) (A) (A) (A) (A) (A) (A) (A) (A) (A)
                 (A) (A) (A) (A) (A) (A) (A) (A) (A) (A) (A) (A)
                 (A) (A) (A) (A) (A) (A) (A) (A) (A) (A) (A) (A)
                 (A) (A) (A) (A) (A) (A) (A) (A) (A) (A) (A) (A)
                 (A) (A) (A) (A) (A) (A) (A) (A) (A) (A) (A) (A)
                 (A) (A) (A) (A) (A) (A) (A) (A) (A) (A) (A) (A)
                 (A) (A) (A) (A) (A) (A) (A) (A) (A) (A) (A) (A)
                 (A) (A) (A) (A)
       Virtual   (A) (A) (A) (A) (A) (A) (A) (A) (A) (A) (A) (A)
                 (A) (A) (A) (A) (A) (A) (A) (A) (A) (A) (A) (A)
                 (A) (A) (A) (A) (A) (A) (A) (A) (A) (A) (A) (A)
                 (A) (A) (A) (A) (A) (A) (A) (A) (A) (A) (A) (A)
                 (A) (A) (A) (A) (A) (A) (A) (A) (A) (A) (A) (A)
                 (A) (A) (A) (A) (A) (A) (A) (A) (A) (A) (A) (A)
                 (A) (A) (A) (A) (A) (A) (A) (A) (A) (A) (A) (A)
                 (A) (A) (A) (A) (A) (A) (A) (A) (A) (A) (A) (A)
                 (A) (A) (A) (A) (A) (A) (A) (A) (A) (A) (A) (A)
                 (A) (A) (A) (A) (A) (A) (A) (A) (A) (A) (A) (A)
                 (A) (A) (A) (A) (A) (A) (A) (A) (A) (A) (A) (A)
                 (A) (A) (A) (A) (A) (A) (A) (A) (A) (A) (A) (A)
                 (A) (A) (A) (A) (A) (A) (A) (A) (A) (A) (A) (A)
                 (A) (A) (A) (A) (A) (A) (A) (A) (A) (A) (A) (A)
                 (A) (A) (A) (A) (A) (A) (A) (A) (A) (A) (A) (A)
                 (A) (A) (A) (A) (A) (A) (A) (A) (A) (A) (A) (A)
                 (A) (A) (A) (A) (A) (A) (A) (A) (A) (A) (A) (A)
                 (A) (A) (A) (A) (A) (A) (A) (A) (A) (A) (A) (A)
                 (A) (A) (A) (A) (A) (A) (A) (A) (A) (A) (A) (A)
                 (A) (A) (A) (A) (A) (A) (A) (A) (A) (A) (A) (A)
                 (A) (A) (A) (A) (A) (A) (A) (A) (A) (A) (A) (A)
                 (A) (A) (A) (A) (A) (A) (A) (A) (A) (A) (A) (A)
                 (A) (A) (A) (A) (A) (A) (A) (A) (A) (A) (A) (A)
                 (A) (A) (A) (A) (A) (A) (A) (A) (A) (A) (A) (A)
                 (A) (A) (A) (A) (A) (A) (A) (A) (A) (A) (A) (A)
                 (A) (A) (A) (A) (A) (A) (A) (A) (A) (A) (A) (A)
                 (A) (A) (A) (A) (A) (A) (A) (A) (A) (A) (A) (A)
                 (A) (A) (A) (A) (A) (A) (A) (A) (A) (A) (A) (A)
                 (A) (A) (A) (A) (A) (A) (A) (A) (A) (A) (A) (A)
                 (A) (A) (A) (A) (A) (A) (A) (A) (A) (A) (A) (A)
                 (A) (A) (A) (A) (A) (A) (A) (A) (A) (A) (A) (A)
                 (A) (A) (A) (A) (A) (A) (A) (A) (A) (A) (A) (A)
                 (A) (A) (A) (A) (A) (A) (A) (A) (A) (A) (A) (A)
                 (A) (A) (A) (A) (A) (A) (A) (A) (A) (A) (A) (A)
                 (A) (A) (A) (A) (A) (A) (A) (A) (A) (A) (A) (A)
                 (A) (A) (A) (A) (A) (A) (A) (A) (A) (A) (A) (A)
                 (A) (A) (A) (A) (A) (A) (A) (A) (A) (A) (A) (A)
                 (A) (A) (A) (A) (A) (A) (A) (A) (A) (A) (A) (A)
                 (A) (A) (A) (A) (A) (A) (A) (A) (A) (A) (A) (A)
                 (A) (A) (A) (A) (A) (A) (A) (A) (A) (A) (A) (A)
                 (A) (A) (A) (A) (A) (A) (A) (A) (A) (A) (A) (A)
                 (A) (A) (A) (A) (A) (A) (A) (A) (A) (A) (A) (A)
                 (A) (A) (A) (A) (A) (A) (A) (A) (A) (A) (A) (A)
                 (A) (A) (A) (A) (A) (A) (A) (A) (A) (A) (A) (A)
                 (A) (A) (A) (A) (A) (A) (A) (A) (A) (A) (A) (A)
                 (A) (A) (A) (A) (A) (A) (A) (A) (A) (A) (A) (A)
                 (A) (A) (A) (A) (A) (A) (A) (A) (A) (A) (A) (A)
                 (A) (A) (A) (A) (A) (A) (A) (A) (A) (A) (A) (A)
                 (A) (A) (A) (A) (A) (A) (A) (A) (A) (A) (A) (A)
                 (A) (A) (A) (A) (A) (A) (A) (A) (A) (A) (A) (A)
                 (A) (A) (A) (A) (A) (A) (A) (A) (A) (A) (A) (A)
                 (A) (A) (A) (A) (A) (A) (A) (A) (A) (A) (A) (A)
                 (A) (A) (A) (A) (A) (A) (A) (A) (A) (A) (A) (A)
                 (A) (A) (A) (A) (A) (A) (A) (A) (A) (A) (A) (A)
                 (A) (A) (A) (A) (A) (A) (A) (A) (A) (A) (A) (A)
                 (A) (A) (A) (A) (A) (A) (A) (A) (A) (A) (A) (A)
                 (A) (A) (A) (A) (A) (A) (A) (A) (A) (A) (A) (A)
                 (A) (A) (A) (A) (A) (A) (A) (A) (A) (A) (A) (A)
                 (A) (A) (A) (A) (A) (A) (A) (A) (A) (A) (A) (A)
                 (A) (A) (A) (A) (A) (A) (A) (A) (A) (A) (A) (A)
                 (A) (A) (A) (A) (A) (A) (A) (A) (A) (A) (A) (A)
                 (A) (A) (A) (A) (A) (A) (A) (A) (A) (A) (A) (A)
                 (A) (A) (A) (A) (A) (A) (A) (A) (A) (A) (A) (A)
                 (A) (A) (A) (A) (A) (A) (A) (A) (A) (A) (A) (A)
                 (A) (A) (A) (A) (A) (A) (A) (A) (A) (A) (A) (A)
                 (A) (A) (A) (A) (A) (A) (A) (A) (A) (A) (A) (A)
                 (A) (A) (A) (A) (A) (A) (A) (A) (A) (A) (A) (A)
                 (A) (A) (A) (A) (A) (A) (A) (A) (A) (A) (A) (A)
                 (A) (A) (A) (A) (A) (A) (A) (A) (A) (A) (A) (A)
                 (A) (A) (A) (A) (A) (A) (A) (A) (A) (A) (A) (A)
                 (A) (A) (A) (A) (A) (A) (A) (A) (A) (A) (A) (A)
                 (A) (A) (A) (A) (A) (A) (A) (A) (A) (A) (A) (A)
                 (A) (A) (A) (A) (A) (A) (A) (A) (A) (A) (A) (A)
                 (A) (A) (A) (A) (A) (A) (A) (A) (A) (A) (A) (A)
                 (A) (A) (A) (A) (A) (A) (A) (A) (A) (A) (A) (A)
                 (A) (A) (A) (A) (A) (A) (A) (A) (A) (A) (A) (A)
                 (A) (A) (A) (A) (A) (A) (A) (A) (A) (A) (A) (A)
                 (A) (A) (A) (A) (A) (A) (A) (A) (A) (A) (A) (A)
                 (A) (A) (A) (A) (A) (A) (A) (A) (A) (A) (A) (A)
                 (A) (A) (A) (A) (A) (A) (A) (A) (A) (A) (A) (A)
                 (A) (A) (A) (A) (A) (A) (A) (A) (A) (A) (A) (A)
                 (A) (A) (A) (A) (A) (A) (A) (A) (A) (A) (A) (A)
                 (A) (A) (A) (A) (A) (A) (A) (A) (A) (A) (A) (A)
                 (A) (A) (A) (A) (A) (A) (A) (A) (A) (A) (A) (A)
                 (A) (A) (A) (A) (A) (A) (A) (A) (A) (A) (A) (A)
                 (A) (A) (A) (A) (A) (A) (A) (A) (A) (A) (A) (A)
                 (A) (A) (A) (A) (A) (A) (A) (A) (A) (A) (A) (A)
                 (A) (A) (A) (A) (A) (A) (A) (A) (A) (A) (A) (A)
                 (A) (A) (A) (A) (A) (A) (A) (A) (A) (A) (A) (A)
                 (A) (A) (A) (A) (A) (A) (A) (A) (A) (A) (A) (A)
                 (A) (A) (A) (A) (A) (A) (A) (A) (A) (A) (A) (A)
                 (A) (A) (A) (A) (A) (A) (A) (A) (A) (A) (A) (A)
                 (A) (A) (A) (A) (A) (A) (A) (A) (A) (A) (A) (A)
                 (A) (A) (A) (A) (A) (A) (A) (A) (A) (A) (A) (A)
                 (A) (A) (A) (A) (A) (A) (A) (A) (A) (A) (A) (A)
                 (A) (A) (A) (A) (A) (A) (A) (A) (A) (A) (A) (A)
                 (A) (A) (A) (A) (A) (A) (A) (A) (A) (A) (A) (A)
                 (A) (A) (A) (A) (A) (A) (A) (A) (A) (A) (A) (A)
                 (A) (A) (A) (A) (A) (A) (A) (A) (A) (A) (A) (A)
                 (A) (A) (A) (A) (A) (A) (A) (A) (A) (A) (A) (A)
                 (A) (A) (A) (A) (A) (A) (A) (A) (A) (A) (A) (A)
                 (A) (A) (A) (A) (A) (A) (A) (A) (A) (A) (A) (A)
                 (A) (A) (A) (A) (A) (A) (A) (A) (A) (A) (A) (A)
                 (A) (A) (A) (A) (A) (A) (A) (A) (A) (A) (A) (A)
                 (A) (A) (A) (A) (A) (A) (A) (A) (A) (A) (A) (A)
                 (A) (A) (A) (A) (A) (A) (A) (A) (A) (A) (A) (A)
                 (A) (A) (A) (A) (A) (A) (A) (A) (A) (A) (A) (A)
                 (A) (A) (A) (A) (A) (A) (A) (A) (A) (A) (A) (A)
                 (A) (A) (A) (A) (A) (A) (A) (A) (A) (A) (A) (A)
                 (A) (A) (A) (A) (A) (A) (A) (A) (A) (A) (A) (A)
                 (A) (A) (A) (A) (A) (A) (A) (A) (A) (A) (A) (A)
                 (A) (A) (A) (A) (A) (A) (A) (A) (A) (A) (A) (A)
                 (A) (A) (A) (A) (A) (A) (A) (A) (A) (A) (A) (A)
                 (A) (A) (A) (A) (A) (A) (A) (A) (A) (A) (A) (A)
                 (A) (A) (A) (A)
 Beta  Orbitals:
       Occupied  (A) (A) (A) (A) (A) (A) (A) (A) (A) (A) (A) (A)
                 (A) (A) (A) (A) (A) (A) (A) (A) (A) (A) (A) (A)
                 (A) (A) (A) (A) (A) (A) (A) (A) (A) (A) (A) (A)
                 (A) (A) (A) (A) (A) (A) (A) (A) (A) (A) (A) (A)
                 (A) (A) (A) (A) (A) (A) (A) (A) (A) (A) (A) (A)
                 (A) (A) (A) (A) (A) (A) (A) (A) (A) (A) (A) (A)
                 (A) (A) (A) (A) (A) (A) (A) (A) (A) (A) (A) (A)
                 (A) (A) (A) (A) (A) (A) (A) (A) (A) (A) (A) (A)
                 (A) (A) (A) (A) (A) (A) (A) (A) (A) (A) (A) (A)
                 (A) (A) (A) (A) (A) (A) (A) (A) (A) (A) (A) (A)
                 (A) (A) (A) (A) (A) (A) (A) (A) (A) (A) (A) (A)
                 (A) (A) (A) (A) (A) (A) (A) (A) (A) (A) (A) (A)
                 (A) (A) (A) (A) (A) (A) (A) (A) (A) (A) (A) (A)
       Virtual   (A) (A) (A) (A) (A) (A) (A) (A) (A) (A) (A) (A)
                 (A) (A) (A) (A) (A) (A) (A) (A) (A) (A) (A) (A)
                 (A) (A) (A) (A) (A) (A) (A) (A) (A) (A) (A) (A)
                 (A) (A) (A) (A) (A) (A) (A) (A) (A) (A) (A) (A)
                 (A) (A) (A) (A) (A) (A) (A) (A) (A) (A) (A) (A)
                 (A) (A) (A) (A) (A) (A) (A) (A) (A) (A) (A) (A)
                 (A) (A) (A) (A) (A) (A) (A) (A) (A) (A) (A) (A)
                 (A) (A) (A) (A) (A) (A) (A) (A) (A) (A) (A) (A)
                 (A) (A) (A) (A) (A) (A) (A) (A) (A) (A) (A) (A)
                 (A) (A) (A) (A) (A) (A) (A) (A) (A) (A) (A) (A)
                 (A) (A) (A) (A) (A) (A) (A) (A) (A) (A) (A) (A)
                 (A) (A) (A) (A) (A) (A) (A) (A) (A) (A) (A) (A)
                 (A) (A) (A) (A) (A) (A) (A) (A) (A) (A) (A) (A)
                 (A) (A) (A) (A) (A) (A) (A) (A) (A) (A) (A) (A)
                 (A) (A) (A) (A) (A) (A) (A) (A) (A) (A) (A) (A)
                 (A) (A) (A) (A) (A) (A) (A) (A) (A) (A) (A) (A)
                 (A) (A) (A) (A) (A) (A) (A) (A) (A) (A) (A) (A)
                 (A) (A) (A) (A) (A) (A) (A) (A) (A) (A) (A) (A)
                 (A) (A) (A) (A) (A) (A) (A) (A) (A) (A) (A) (A)
                 (A) (A) (A) (A) (A) (A) (A) (A) (A) (A) (A) (A)
                 (A) (A) (A) (A) (A) (A) (A) (A) (A) (A) (A) (A)
                 (A) (A) (A) (A) (A) (A) (A) (A) (A) (A) (A) (A)
                 (A) (A) (A) (A) (A) (A) (A) (A) (A) (A) (A) (A)
                 (A) (A) (A) (A) (A) (A) (A) (A) (A) (A) (A) (A)
                 (A) (A) (A) (A) (A) (A) (A) (A) (A) (A) (A) (A)
                 (A) (A) (A) (A) (A) (A) (A) (A) (A) (A) (A) (A)
                 (A) (A) (A) (A) (A) (A) (A) (A) (A) (A) (A) (A)
                 (A) (A) (A) (A) (A) (A) (A) (A) (A) (A) (A) (A)
                 (A) (A) (A) (A) (A) (A) (A) (A) (A) (A) (A) (A)
                 (A) (A) (A) (A) (A) (A) (A) (A) (A) (A) (A) (A)
                 (A) (A) (A) (A) (A) (A) (A) (A) (A) (A) (A) (A)
                 (A) (A) (A) (A) (A) (A) (A) (A) (A) (A) (A) (A)
                 (A) (A) (A) (A) (A) (A) (A) (A) (A) (A) (A) (A)
                 (A) (A) (A) (A) (A) (A) (A) (A) (A) (A) (A) (A)
                 (A) (A) (A) (A) (A) (A) (A) (A) (A) (A) (A) (A)
                 (A) (A) (A) (A) (A) (A) (A) (A) (A) (A) (A) (A)
                 (A) (A) (A) (A) (A) (A) (A) (A) (A) (A) (A) (A)
                 (A) (A) (A) (A) (A) (A) (A) (A) (A) (A) (A) (A)
                 (A) (A) (A) (A) (A) (A) (A) (A) (A) (A) (A) (A)
                 (A) (A) (A) (A) (A) (A) (A) (A) (A) (A) (A) (A)
                 (A) (A) (A) (A) (A) (A) (A) (A) (A) (A) (A) (A)
                 (A) (A) (A) (A) (A) (A) (A) (A) (A) (A) (A) (A)
                 (A) (A) (A) (A) (A) (A) (A) (A) (A) (A) (A) (A)
                 (A) (A) (A) (A) (A) (A) (A) (A) (A) (A) (A) (A)
                 (A) (A) (A) (A) (A) (A) (A) (A) (A) (A) (A) (A)
                 (A) (A) (A) (A) (A) (A) (A) (A) (A) (A) (A) (A)
                 (A) (A) (A) (A) (A) (A) (A) (A) (A) (A) (A) (A)
                 (A) (A) (A) (A) (A) (A) (A) (A) (A) (A) (A) (A)
                 (A) (A) (A) (A) (A) (A) (A) (A) (A) (A) (A) (A)
                 (A) (A) (A) (A) (A) (A) (A) (A) (A) (A) (A) (A)
                 (A) (A) (A) (A) (A) (A) (A) (A) (A) (A) (A) (A)
                 (A) (A) (A) (A) (A) (A) (A) (A) (A) (A) (A) (A)
                 (A) (A) (A) (A) (A) (A) (A) (A) (A) (A) (A) (A)
                 (A) (A) (A) (A) (A) (A) (A) (A) (A) (A) (A) (A)
                 (A) (A) (A) (A) (A) (A) (A) (A) (A) (A) (A) (A)
                 (A) (A) (A) (A) (A) (A) (A) (A) (A) (A) (A) (A)
                 (A) (A) (A) (A) (A) (A) (A) (A) (A) (A) (A) (A)
                 (A) (A) (A) (A) (A) (A) (A) (A) (A) (A) (A) (A)
                 (A) (A) (A) (A) (A) (A) (A) (A) (A) (A) (A) (A)
                 (A) (A) (A) (A) (A) (A) (A) (A) (A) (A) (A) (A)
                 (A) (A) (A) (A) (A) (A) (A) (A) (A) (A) (A) (A)
                 (A) (A) (A) (A) (A) (A) (A) (A) (A) (A) (A) (A)
                 (A) (A) (A) (A) (A) (A) (A) (A) (A) (A) (A) (A)
                 (A) (A) (A) (A) (A) (A) (A) (A) (A) (A) (A) (A)
                 (A) (A) (A) (A) (A) (A) (A) (A) (A) (A) (A) (A)
                 (A) (A) (A) (A) (A) (A) (A) (A) (A) (A) (A) (A)
                 (A) (A) (A) (A) (A) (A) (A) (A) (A) (A) (A) (A)
                 (A) (A) (A) (A) (A) (A) (A) (A) (A) (A) (A) (A)
                 (A) (A) (A) (A) (A) (A) (A) (A) (A) (A) (A) (A)
                 (A) (A) (A) (A) (A) (A) (A) (A) (A) (A) (A) (A)
                 (A) (A) (A) (A) (A) (A) (A) (A) (A) (A) (A) (A)
                 (A) (A) (A) (A) (A) (A) (A) (A) (A) (A) (A) (A)
                 (A) (A) (A) (A) (A) (A) (A) (A) (A) (A) (A) (A)
                 (A) (A) (A) (A) (A) (A) (A) (A) (A) (A) (A) (A)
                 (A) (A) (A) (A) (A) (A) (A) (A) (A) (A) (A) (A)
                 (A) (A) (A) (A) (A) (A) (A) (A) (A) (A) (A) (A)
                 (A) (A) (A) (A) (A) (A) (A) (A) (A) (A) (A) (A)
                 (A) (A) (A) (A) (A) (A) (A) (A) (A) (A) (A) (A)
                 (A) (A) (A) (A) (A) (A) (A) (A) (A) (A) (A) (A)
                 (A) (A) (A) (A) (A) (A) (A) (A) (A) (A) (A) (A)
                 (A) (A) (A) (A) (A) (A) (A) (A) (A) (A) (A) (A)
                 (A) (A) (A) (A) (A) (A) (A) (A) (A) (A) (A) (A)
                 (A) (A) (A) (A) (A) (A) (A) (A) (A) (A) (A) (A)
                 (A) (A) (A) (A) (A) (A) (A) (A) (A) (A) (A) (A)
                 (A) (A) (A) (A) (A) (A) (A) (A) (A) (A) (A) (A)
                 (A) (A) (A) (A) (A) (A) (A) (A) (A) (A) (A) (A)
                 (A) (A) (A) (A) (A) (A) (A) (A) (A) (A) (A) (A)
                 (A) (A) (A) (A) (A) (A) (A) (A) (A) (A) (A) (A)
                 (A) (A) (A) (A) (A) (A) (A) (A) (A) (A) (A) (A)
                 (A) (A) (A) (A) (A) (A) (A) (A) (A) (A) (A) (A)
                 (A) (A) (A) (A) (A) (A) (A) (A) (A) (A) (A) (A)
                 (A) (A) (A) (A) (A) (A) (A) (A) (A) (A) (A) (A)
                 (A) (A) (A) (A) (A) (A) (A) (A) (A) (A) (A) (A)
                 (A) (A) (A) (A) (A) (A) (A) (A) (A) (A) (A) (A)
                 (A) (A) (A) (A) (A) (A) (A) (A) (A) (A) (A) (A)
                 (A) (A) (A) (A) (A) (A) (A) (A) (A) (A) (A) (A)
                 (A) (A) (A) (A) (A) (A) (A) (A) (A) (A) (A) (A)
                 (A) (A) (A) (A) (A) (A) (A) (A) (A) (A) (A) (A)
                 (A) (A) (A) (A) (A) (A) (A) (A) (A) (A) (A) (A)
                 (A) (A) (A) (A) (A) (A) (A) (A) (A) (A) (A) (A)
                 (A) (A) (A) (A) (A) (A) (A) (A) (A) (A) (A) (A)
                 (A) (A) (A) (A) (A) (A) (A) (A) (A) (A) (A) (A)
                 (A) (A) (A) (A) (A) (A) (A) (A) (A) (A) (A) (A)
                 (A) (A) (A) (A) (A) (A) (A) (A) (A) (A) (A) (A)
                 (A) (A) (A) (A) (A) (A) (A) (A) (A) (A) (A) (A)
                 (A) (A) (A) (A) (A) (A) (A) (A) (A) (A) (A) (A)
                 (A) (A) (A) (A) (A) (A) (A) (A) (A) (A) (A) (A)
                 (A) (A) (A) (A) (A) (A) (A) (A) (A) (A) (A) (A)
                 (A) (A) (A) (A) (A) (A) (A) (A) (A) (A) (A) (A)
                 (A) (A) (A) (A) (A) (A) (A) (A) (A) (A) (A) (A)
                 (A) (A) (A) (A) (A) (A) (A) (A) (A) (A) (A) (A)
                 (A) (A) (A) (A) (A) (A) (A) (A) (A) (A) (A) (A)
                 (A) (A) (A) (A) (A) (A) (A) (A) (A) (A) (A) (A)
                 (A) (A) (A) (A) (A) (A) (A) (A) (A) (A) (A) (A)
                 (A) (A) (A) (A) (A) (A) (A) (A)
 The electronic state is 5-A.
 Alpha  occ. eigenvalues -- -256.15434 -30.04137 -25.89379 -25.86458 -25.86233
 Alpha  occ. eigenvalues --  -19.16636 -14.41851 -14.35193 -14.31805 -14.31771
 Alpha  occ. eigenvalues --  -14.31652 -14.31456 -10.25683 -10.23720 -10.21103
 Alpha  occ. eigenvalues --  -10.20851 -10.20803 -10.20656 -10.20625 -10.20607
 Alpha  occ. eigenvalues --  -10.20553 -10.20527 -10.20446 -10.20428 -10.19442
 Alpha  occ. eigenvalues --  -10.19366 -10.18815 -10.18815 -10.18729 -10.18662
 Alpha  occ. eigenvalues --  -10.18610 -10.18534 -10.18446 -10.18445 -10.18372
 Alpha  occ. eigenvalues --  -10.18371 -10.18366 -10.18297 -10.18281 -10.18159
 Alpha  occ. eigenvalues --  -10.18147 -10.18090 -10.18070 -10.18058 -10.18033
 Alpha  occ. eigenvalues --  -10.18027  -3.49774  -2.30710  -2.24750  -2.24275
 Alpha  occ. eigenvalues --   -1.05373  -1.04841  -0.96413  -0.95512  -0.95384
 Alpha  occ. eigenvalues --   -0.94473  -0.90988  -0.81979  -0.81635  -0.81328
 Alpha  occ. eigenvalues --   -0.80551  -0.80318  -0.80147  -0.79339  -0.79237
 Alpha  occ. eigenvalues --   -0.76563  -0.75459  -0.74119  -0.73629  -0.72979
 Alpha  occ. eigenvalues --   -0.71884  -0.70739  -0.69896  -0.68141  -0.67706
 Alpha  occ. eigenvalues --   -0.67595  -0.64744  -0.63847  -0.63811  -0.61407
 Alpha  occ. eigenvalues --   -0.60464  -0.60268  -0.59789  -0.57615  -0.56247
 Alpha  occ. eigenvalues --   -0.55945  -0.54200  -0.53285  -0.52989  -0.52434
 Alpha  occ. eigenvalues --   -0.50811  -0.50705  -0.50266  -0.48631  -0.47997
 Alpha  occ. eigenvalues --   -0.47674  -0.47538  -0.47242  -0.44990  -0.44686
 Alpha  occ. eigenvalues --   -0.44505  -0.44421  -0.44068  -0.43663  -0.43423
 Alpha  occ. eigenvalues --   -0.43217  -0.43109  -0.42858  -0.42835  -0.42629
 Alpha  occ. eigenvalues --   -0.42495  -0.42248  -0.42103  -0.41524  -0.41479
 Alpha  occ. eigenvalues --   -0.41349  -0.41192  -0.40125  -0.40048  -0.40008
 Alpha  occ. eigenvalues --   -0.39472  -0.39369  -0.39126  -0.39031  -0.38321
 Alpha  occ. eigenvalues --   -0.38072  -0.37794  -0.37532  -0.37336  -0.36798
 Alpha  occ. eigenvalues --   -0.36624  -0.36318  -0.36167  -0.35527  -0.35341
 Alpha  occ. eigenvalues --   -0.34424  -0.34216  -0.33881  -0.33524  -0.32768
 Alpha  occ. eigenvalues --   -0.32345  -0.31300  -0.30755  -0.29819  -0.29153
 Alpha  occ. eigenvalues --   -0.28838  -0.28443  -0.27690  -0.26292  -0.26106
 Alpha  occ. eigenvalues --   -0.24062  -0.23267  -0.22739  -0.22096  -0.21223
 Alpha  occ. eigenvalues --   -0.20930  -0.19555  -0.17792  -0.17333  -0.13090
 Alpha virt. eigenvalues --   -0.06536  -0.06426  -0.01955   0.00599   0.01298
 Alpha virt. eigenvalues --    0.02042   0.02466   0.03292   0.04497   0.04639
 Alpha virt. eigenvalues --    0.05149   0.05682   0.05794   0.06026   0.06437
 Alpha virt. eigenvalues --    0.07071   0.07604   0.08050   0.08284   0.08768
 Alpha virt. eigenvalues --    0.09121   0.09259   0.09613   0.10065   0.10211
 Alpha virt. eigenvalues --    0.10548   0.11119   0.11333   0.11598   0.11707
 Alpha virt. eigenvalues --    0.12014   0.12276   0.12376   0.12594   0.13079
 Alpha virt. eigenvalues --    0.13109   0.13448   0.13712   0.13765   0.14249
 Alpha virt. eigenvalues --    0.14344   0.14503   0.14581   0.14769   0.15024
 Alpha virt. eigenvalues --    0.15292   0.15598   0.15864   0.15968   0.16154
 Alpha virt. eigenvalues --    0.16214   0.16353   0.16864   0.16954   0.17199
 Alpha virt. eigenvalues --    0.17471   0.17842   0.18046   0.18292   0.18638
 Alpha virt. eigenvalues --    0.18843   0.19525   0.19767   0.20162   0.20445
 Alpha virt. eigenvalues --    0.20590   0.20656   0.21117   0.21236   0.21501
 Alpha virt. eigenvalues --    0.21656   0.22291   0.22558   0.22747   0.23007
 Alpha virt. eigenvalues --    0.23456   0.23633   0.24159   0.24256   0.24575
 Alpha virt. eigenvalues --    0.24846   0.25571   0.25713   0.25855   0.25918
 Alpha virt. eigenvalues --    0.26160   0.26406   0.26675   0.27057   0.27254
 Alpha virt. eigenvalues --    0.27526   0.27809   0.27889   0.28060   0.28200
 Alpha virt. eigenvalues --    0.28776   0.29136   0.29509   0.29759   0.29830
 Alpha virt. eigenvalues --    0.30169   0.30448   0.30742   0.31076   0.31157
 Alpha virt. eigenvalues --    0.31457   0.31752   0.31920   0.32064   0.32516
 Alpha virt. eigenvalues --    0.32800   0.33031   0.33255   0.33624   0.34030
 Alpha virt. eigenvalues --    0.34337   0.34577   0.34861   0.35111   0.35433
 Alpha virt. eigenvalues --    0.35660   0.35873   0.36225   0.36464   0.36712
 Alpha virt. eigenvalues --    0.36982   0.37343   0.37631   0.37828   0.37881
 Alpha virt. eigenvalues --    0.38269   0.38513   0.38778   0.38981   0.39250
 Alpha virt. eigenvalues --    0.39471   0.39830   0.40071   0.40332   0.40429
 Alpha virt. eigenvalues --    0.40716   0.40773   0.40896   0.41070   0.41479
 Alpha virt. eigenvalues --    0.41716   0.42026   0.42199   0.42281   0.42493
 Alpha virt. eigenvalues --    0.42566   0.42830   0.42979   0.43262   0.43428
 Alpha virt. eigenvalues --    0.43792   0.44035   0.44238   0.44645   0.44802
 Alpha virt. eigenvalues --    0.45140   0.45231   0.45596   0.45774   0.45919
 Alpha virt. eigenvalues --    0.46172   0.46226   0.46719   0.46852   0.46985
 Alpha virt. eigenvalues --    0.47273   0.47419   0.47553   0.47892   0.48058
 Alpha virt. eigenvalues --    0.48241   0.48651   0.48796   0.48954   0.49042
 Alpha virt. eigenvalues --    0.49299   0.49660   0.49797   0.49925   0.50191
 Alpha virt. eigenvalues --    0.50436   0.50698   0.50867   0.51180   0.51275
 Alpha virt. eigenvalues --    0.51627   0.51935   0.52099   0.52159   0.52386
 Alpha virt. eigenvalues --    0.52562   0.52963   0.53229   0.53352   0.53780
 Alpha virt. eigenvalues --    0.53953   0.54111   0.54412   0.54746   0.55152
 Alpha virt. eigenvalues --    0.55244   0.55578   0.55983   0.56297   0.56484
 Alpha virt. eigenvalues --    0.56654   0.57138   0.57307   0.57492   0.57523
 Alpha virt. eigenvalues --    0.57760   0.58088   0.58136   0.58568   0.58948
 Alpha virt. eigenvalues --    0.59116   0.59397   0.59668   0.60175   0.60689
 Alpha virt. eigenvalues --    0.61122   0.61319   0.61461   0.62042   0.62419
 Alpha virt. eigenvalues --    0.62641   0.62788   0.63162   0.63674   0.63983
 Alpha virt. eigenvalues --    0.64212   0.64305   0.64764   0.65147   0.65670
 Alpha virt. eigenvalues --    0.65803   0.65862   0.66176   0.66298   0.66679
 Alpha virt. eigenvalues --    0.66930   0.67177   0.67845   0.68176   0.68277
 Alpha virt. eigenvalues --    0.68532   0.69056   0.69173   0.69561   0.69848
 Alpha virt. eigenvalues --    0.70114   0.70511   0.70769   0.70873   0.71425
 Alpha virt. eigenvalues --    0.71662   0.72053   0.72271   0.72583   0.72928
 Alpha virt. eigenvalues --    0.73315   0.73671   0.73851   0.73930   0.74211
 Alpha virt. eigenvalues --    0.74580   0.75235   0.75510   0.75827   0.75891
 Alpha virt. eigenvalues --    0.76514   0.76958   0.77144   0.77924   0.78051
 Alpha virt. eigenvalues --    0.78437   0.78894   0.79045   0.79470   0.79669
 Alpha virt. eigenvalues --    0.79917   0.80702   0.80915   0.81275   0.81633
 Alpha virt. eigenvalues --    0.81864   0.82304   0.82643   0.83046   0.83573
 Alpha virt. eigenvalues --    0.84006   0.84584   0.85033   0.85171   0.85788
 Alpha virt. eigenvalues --    0.86267   0.86711   0.86998   0.87108   0.87722
 Alpha virt. eigenvalues --    0.88094   0.88320   0.88415   0.89150   0.89597
 Alpha virt. eigenvalues --    0.89723   0.90083   0.90490   0.90886   0.91229
 Alpha virt. eigenvalues --    0.91671   0.91861   0.92242   0.92679   0.92822
 Alpha virt. eigenvalues --    0.93313   0.93752   0.94135   0.94148   0.94406
 Alpha virt. eigenvalues --    0.94664   0.95657   0.95859   0.96085   0.96489
 Alpha virt. eigenvalues --    0.96668   0.97362   0.97634   0.97833   0.97906
 Alpha virt. eigenvalues --    0.98547   0.98867   0.99238   0.99531   0.99706
 Alpha virt. eigenvalues --    0.99994   1.00467   1.00778   1.01154   1.01509
 Alpha virt. eigenvalues --    1.01749   1.01971   1.02269   1.02652   1.03082
 Alpha virt. eigenvalues --    1.03194   1.03278   1.03783   1.03960   1.04386
 Alpha virt. eigenvalues --    1.04565   1.05293   1.05496   1.06056   1.06656
 Alpha virt. eigenvalues --    1.07219   1.07266   1.07836   1.07936   1.08300
 Alpha virt. eigenvalues --    1.08649   1.09522   1.09748   1.10614   1.10970
 Alpha virt. eigenvalues --    1.11425   1.11560   1.11851   1.12668   1.12969
 Alpha virt. eigenvalues --    1.13485   1.13588   1.14118   1.14170   1.14448
 Alpha virt. eigenvalues --    1.14864   1.15303   1.15769   1.16076   1.17113
 Alpha virt. eigenvalues --    1.17394   1.17472   1.17962   1.18436   1.18883
 Alpha virt. eigenvalues --    1.18959   1.19155   1.19678   1.20196   1.20635
 Alpha virt. eigenvalues --    1.20714   1.21250   1.21622   1.22218   1.22611
 Alpha virt. eigenvalues --    1.22795   1.23048   1.24009   1.24139   1.24616
 Alpha virt. eigenvalues --    1.25062   1.25268   1.26102   1.26315   1.26593
 Alpha virt. eigenvalues --    1.27096   1.27421   1.27852   1.28202   1.28495
 Alpha virt. eigenvalues --    1.29388   1.29446   1.30228   1.30474   1.30820
 Alpha virt. eigenvalues --    1.30969   1.31324   1.31713   1.32080   1.32275
 Alpha virt. eigenvalues --    1.32697   1.34292   1.34430   1.34939   1.35515
 Alpha virt. eigenvalues --    1.35660   1.36497   1.37068   1.37658   1.38019
 Alpha virt. eigenvalues --    1.38218   1.39394   1.40098   1.40181   1.41063
 Alpha virt. eigenvalues --    1.41364   1.41714   1.41881   1.42439   1.42994
 Alpha virt. eigenvalues --    1.43782   1.44539   1.45067   1.45246   1.45776
 Alpha virt. eigenvalues --    1.45875   1.46203   1.46551   1.46829   1.47629
 Alpha virt. eigenvalues --    1.47721   1.47996   1.48360   1.48731   1.49210
 Alpha virt. eigenvalues --    1.49371   1.49712   1.50338   1.50444   1.50745
 Alpha virt. eigenvalues --    1.50900   1.51519   1.51593   1.51861   1.52135
 Alpha virt. eigenvalues --    1.52323   1.52623   1.52796   1.53065   1.53712
 Alpha virt. eigenvalues --    1.54005   1.54410   1.54670   1.54917   1.55131
 Alpha virt. eigenvalues --    1.55493   1.55651   1.56184   1.56348   1.56485
 Alpha virt. eigenvalues --    1.56663   1.56975   1.57199   1.57562   1.57892
 Alpha virt. eigenvalues --    1.58109   1.58540   1.58674   1.58894   1.59070
 Alpha virt. eigenvalues --    1.59606   1.59742   1.60098   1.60353   1.60872
 Alpha virt. eigenvalues --    1.61434   1.61736   1.62152   1.62293   1.62782
 Alpha virt. eigenvalues --    1.62904   1.63152   1.63290   1.63616   1.64101
 Alpha virt. eigenvalues --    1.64292   1.64603   1.65165   1.65441   1.65507
 Alpha virt. eigenvalues --    1.66296   1.66571   1.66801   1.66899   1.67380
 Alpha virt. eigenvalues --    1.67674   1.68139   1.68519   1.68886   1.68989
 Alpha virt. eigenvalues --    1.69473   1.69985   1.70113   1.70584   1.70812
 Alpha virt. eigenvalues --    1.71344   1.71918   1.72463   1.72674   1.73099
 Alpha virt. eigenvalues --    1.73432   1.73792   1.74106   1.74445   1.74565
 Alpha virt. eigenvalues --    1.75213   1.75498   1.76586   1.76930   1.77448
 Alpha virt. eigenvalues --    1.78644   1.79212   1.79802   1.80199   1.80439
 Alpha virt. eigenvalues --    1.80831   1.81383   1.82484   1.82785   1.83417
 Alpha virt. eigenvalues --    1.83657   1.83982   1.84184   1.84352   1.84758
 Alpha virt. eigenvalues --    1.85425   1.86254   1.86787   1.87095   1.87272
 Alpha virt. eigenvalues --    1.87655   1.87894   1.88301   1.88737   1.89012
 Alpha virt. eigenvalues --    1.89874   1.90176   1.90667   1.90820   1.91673
 Alpha virt. eigenvalues --    1.92063   1.92379   1.92926   1.93477   1.94144
 Alpha virt. eigenvalues --    1.94830   1.95467   1.95622   1.95864   1.96457
 Alpha virt. eigenvalues --    1.97251   1.97515   1.97708   1.98012   1.98417
 Alpha virt. eigenvalues --    1.98798   1.99258   1.99361   1.99660   2.00493
 Alpha virt. eigenvalues --    2.01041   2.01252   2.01454   2.01611   2.02415
 Alpha virt. eigenvalues --    2.03353   2.04034   2.04411   2.04779   2.05331
 Alpha virt. eigenvalues --    2.05629   2.06570   2.06898   2.07136   2.07364
 Alpha virt. eigenvalues --    2.08352   2.08976   2.09275   2.09706   2.10039
 Alpha virt. eigenvalues --    2.10512   2.11237   2.11367   2.11697   2.12344
 Alpha virt. eigenvalues --    2.12811   2.13043   2.13306   2.13785   2.14173
 Alpha virt. eigenvalues --    2.14573   2.15256   2.15637   2.16142   2.16475
 Alpha virt. eigenvalues --    2.17157   2.17344   2.18243   2.18518   2.19275
 Alpha virt. eigenvalues --    2.19598   2.19758   2.20299   2.20834   2.21166
 Alpha virt. eigenvalues --    2.21640   2.21897   2.22252   2.22538   2.23172
 Alpha virt. eigenvalues --    2.23615   2.24388   2.25054   2.25380   2.25550
 Alpha virt. eigenvalues --    2.26339   2.26436   2.27239   2.27754   2.28424
 Alpha virt. eigenvalues --    2.28645   2.29309   2.29484   2.29689   2.29859
 Alpha virt. eigenvalues --    2.30373   2.30785   2.31672   2.32110   2.32394
 Alpha virt. eigenvalues --    2.32647   2.32724   2.33212   2.33942   2.34599
 Alpha virt. eigenvalues --    2.35099   2.35445   2.35799   2.36302   2.36339
 Alpha virt. eigenvalues --    2.36807   2.37162   2.37362   2.37682   2.38177
 Alpha virt. eigenvalues --    2.38377   2.39148   2.39575   2.39981   2.40134
 Alpha virt. eigenvalues --    2.40662   2.41039   2.41991   2.42374   2.42967
 Alpha virt. eigenvalues --    2.43320   2.43650   2.44317   2.44466   2.45348
 Alpha virt. eigenvalues --    2.45519   2.45654   2.46370   2.46631   2.47496
 Alpha virt. eigenvalues --    2.47929   2.48050   2.48535   2.49072   2.49234
 Alpha virt. eigenvalues --    2.49921   2.50445   2.50896   2.51283   2.51610
 Alpha virt. eigenvalues --    2.52223   2.52821   2.53034   2.53281   2.53652
 Alpha virt. eigenvalues --    2.54129   2.54522   2.54751   2.55032   2.55629
 Alpha virt. eigenvalues --    2.55995   2.56638   2.57102   2.57399   2.57646
 Alpha virt. eigenvalues --    2.57819   2.58535   2.58830   2.59043   2.59516
 Alpha virt. eigenvalues --    2.59835   2.60245   2.60718   2.61010   2.61591
 Alpha virt. eigenvalues --    2.62089   2.62358   2.62620   2.62800   2.63585
 Alpha virt. eigenvalues --    2.63795   2.64112   2.65261   2.65300   2.65782
 Alpha virt. eigenvalues --    2.66308   2.66924   2.67080   2.67264   2.67766
 Alpha virt. eigenvalues --    2.67952   2.68078   2.68582   2.69233   2.69393
 Alpha virt. eigenvalues --    2.69714   2.70187   2.70796   2.71189   2.71876
 Alpha virt. eigenvalues --    2.72184   2.72264   2.72714   2.72993   2.73206
 Alpha virt. eigenvalues --    2.73443   2.73748   2.74738   2.75336   2.75619
 Alpha virt. eigenvalues --    2.75718   2.76200   2.76520   2.76715   2.77962
 Alpha virt. eigenvalues --    2.78595   2.78928   2.79373   2.80127   2.80303
 Alpha virt. eigenvalues --    2.80883   2.81342   2.81810   2.81946   2.82402
 Alpha virt. eigenvalues --    2.83054   2.83187   2.83314   2.83936   2.84177
 Alpha virt. eigenvalues --    2.84695   2.85498   2.85629   2.85893   2.86579
 Alpha virt. eigenvalues --    2.87001   2.87120   2.87498   2.87889   2.88654
 Alpha virt. eigenvalues --    2.89003   2.89222   2.89364   2.89554   2.89886
 Alpha virt. eigenvalues --    2.90187   2.91066   2.91349   2.91494   2.91949
 Alpha virt. eigenvalues --    2.92291   2.93198   2.93701   2.93982   2.94329
 Alpha virt. eigenvalues --    2.94546   2.95061   2.95185   2.95645   2.95905
 Alpha virt. eigenvalues --    2.96558   2.96813   2.97286   2.97517   2.97862
 Alpha virt. eigenvalues --    2.98998   2.99132   2.99229   2.99773   3.00163
 Alpha virt. eigenvalues --    3.00369   3.01170   3.01277   3.01524   3.01818
 Alpha virt. eigenvalues --    3.02777   3.02950   3.03229   3.03331   3.03770
 Alpha virt. eigenvalues --    3.04130   3.04516   3.05094   3.05452   3.05668
 Alpha virt. eigenvalues --    3.06307   3.06646   3.06996   3.07399   3.07723
 Alpha virt. eigenvalues --    3.08363   3.08739   3.08776   3.09191   3.09723
 Alpha virt. eigenvalues --    3.09916   3.10258   3.10345   3.10682   3.10869
 Alpha virt. eigenvalues --    3.11833   3.12043   3.12112   3.12683   3.12938
 Alpha virt. eigenvalues --    3.13377   3.13581   3.14011   3.14142   3.14223
 Alpha virt. eigenvalues --    3.14871   3.15738   3.15854   3.15988   3.16208
 Alpha virt. eigenvalues --    3.16692   3.16816   3.17017   3.17695   3.17962
 Alpha virt. eigenvalues --    3.18418   3.18892   3.19018   3.19346   3.19894
 Alpha virt. eigenvalues --    3.20064   3.20209   3.20658   3.20908   3.21080
 Alpha virt. eigenvalues --    3.21369   3.21743   3.22242   3.22286   3.22778
 Alpha virt. eigenvalues --    3.22982   3.23096   3.23754   3.24128   3.24204
 Alpha virt. eigenvalues --    3.24266   3.24704   3.25029   3.25418   3.25676
 Alpha virt. eigenvalues --    3.26107   3.26294   3.26615   3.27095   3.27484
 Alpha virt. eigenvalues --    3.27623   3.28113   3.28406   3.28783   3.28865
 Alpha virt. eigenvalues --    3.29203   3.29342   3.29584   3.29679   3.30041
 Alpha virt. eigenvalues --    3.30405   3.30616   3.30684   3.31198   3.31373
 Alpha virt. eigenvalues --    3.31765   3.32229   3.32581   3.32836   3.33236
 Alpha virt. eigenvalues --    3.33365   3.34087   3.34258   3.34357   3.34682
 Alpha virt. eigenvalues --    3.34903   3.35211   3.35621   3.35819   3.36052
 Alpha virt. eigenvalues --    3.36253   3.36433   3.36885   3.36996   3.37398
 Alpha virt. eigenvalues --    3.37564   3.37850   3.38074   3.38118   3.38681
 Alpha virt. eigenvalues --    3.39162   3.39303   3.39659   3.39856   3.40608
 Alpha virt. eigenvalues --    3.40680   3.41003   3.41473   3.41836   3.42185
 Alpha virt. eigenvalues --    3.42589   3.42837   3.43241   3.43457   3.43846
 Alpha virt. eigenvalues --    3.44326   3.44877   3.44921   3.45344   3.45848
 Alpha virt. eigenvalues --    3.46300   3.46711   3.46805   3.47450   3.47682
 Alpha virt. eigenvalues --    3.47798   3.48217   3.48864   3.49260   3.49781
 Alpha virt. eigenvalues --    3.50523   3.50702   3.50875   3.51635   3.52053
 Alpha virt. eigenvalues --    3.52700   3.53128   3.53529   3.54249   3.54331
 Alpha virt. eigenvalues --    3.54740   3.55385   3.55797   3.56020   3.56490
 Alpha virt. eigenvalues --    3.56644   3.57396   3.57809   3.58056   3.58288
 Alpha virt. eigenvalues --    3.58649   3.59289   3.60126   3.60953   3.61044
 Alpha virt. eigenvalues --    3.61494   3.62212   3.62492   3.63094   3.63347
 Alpha virt. eigenvalues --    3.63972   3.64871   3.65105   3.65623   3.66001
 Alpha virt. eigenvalues --    3.66539   3.67556   3.67692   3.67873   3.68934
 Alpha virt. eigenvalues --    3.69018   3.69737   3.70103   3.70435   3.70699
 Alpha virt. eigenvalues --    3.71307   3.71470   3.71804   3.72145   3.73050
 Alpha virt. eigenvalues --    3.73154   3.73686   3.73937   3.74151   3.74559
 Alpha virt. eigenvalues --    3.75121   3.75465   3.75816   3.76466   3.76983
 Alpha virt. eigenvalues --    3.77513   3.77698   3.78633   3.79291   3.79712
 Alpha virt. eigenvalues --    3.80339   3.80548   3.80834   3.81597   3.81823
 Alpha virt. eigenvalues --    3.82651   3.83704   3.84359   3.84735   3.84961
 Alpha virt. eigenvalues --    3.85144   3.85860   3.86457   3.87119   3.87675
 Alpha virt. eigenvalues --    3.88107   3.88996   3.89410   3.89731   3.90459
 Alpha virt. eigenvalues --    3.91008   3.91420   3.91841   3.92373   3.93077
 Alpha virt. eigenvalues --    3.93272   3.94486   3.95470   3.96110   3.96218
 Alpha virt. eigenvalues --    3.97145   3.97323   3.97947   3.98159   3.99024
 Alpha virt. eigenvalues --    3.99282   3.99637   4.00869   4.01509   4.02376
 Alpha virt. eigenvalues --    4.02448   4.03059   4.03748   4.04223   4.04879
 Alpha virt. eigenvalues --    4.05155   4.05877   4.06351   4.06743   4.07113
 Alpha virt. eigenvalues --    4.08008   4.08908   4.09726   4.10807   4.11382
 Alpha virt. eigenvalues --    4.11585   4.12080   4.12505   4.12821   4.13515
 Alpha virt. eigenvalues --    4.14224   4.14655   4.15119   4.15218   4.15625
 Alpha virt. eigenvalues --    4.16603   4.16888   4.17038   4.17814   4.18456
 Alpha virt. eigenvalues --    4.19293   4.19770   4.20279   4.20547   4.21124
 Alpha virt. eigenvalues --    4.21613   4.22460   4.23403   4.23846   4.24675
 Alpha virt. eigenvalues --    4.25291   4.26038   4.26635   4.27250   4.27549
 Alpha virt. eigenvalues --    4.27611   4.27879   4.28385   4.28994   4.30517
 Alpha virt. eigenvalues --    4.31487   4.31816   4.31917   4.32163   4.32912
 Alpha virt. eigenvalues --    4.33603   4.33934   4.34599   4.35172   4.36112
 Alpha virt. eigenvalues --    4.36821   4.37753   4.38256   4.38799   4.39773
 Alpha virt. eigenvalues --    4.40055   4.41284   4.41590   4.41724   4.42278
 Alpha virt. eigenvalues --    4.42868   4.43496   4.43912   4.44084   4.44777
 Alpha virt. eigenvalues --    4.45282   4.45699   4.46384   4.46681   4.47536
 Alpha virt. eigenvalues --    4.47799   4.48500   4.49677   4.50772   4.51184
 Alpha virt. eigenvalues --    4.51855   4.53148   4.53968   4.54601   4.54951
 Alpha virt. eigenvalues --    4.55278   4.56546   4.57823   4.58074   4.59392
 Alpha virt. eigenvalues --    4.59785   4.62023   4.63259   4.63974   4.64226
 Alpha virt. eigenvalues --    4.65090   4.65418   4.67001   4.67824   4.67969
 Alpha virt. eigenvalues --    4.69339   4.69792   4.70648   4.72174   4.72332
 Alpha virt. eigenvalues --    4.73044   4.73255   4.73833   4.75042   4.76002
 Alpha virt. eigenvalues --    4.76744   4.77792   4.78759   4.79950   4.80329
 Alpha virt. eigenvalues --    4.81253   4.82344   4.83209   4.83736   4.84259
 Alpha virt. eigenvalues --    4.85033   4.85262   4.86085   4.87572   4.88164
 Alpha virt. eigenvalues --    4.88976   4.89109   4.90361   4.91827   4.92126
 Alpha virt. eigenvalues --    4.92827   4.93346   4.95165   4.95400   4.95799
 Alpha virt. eigenvalues --    4.97110   4.97801   4.98703   4.99219   4.99524
 Alpha virt. eigenvalues --    5.01479   5.01702   5.02718   5.03271   5.03434
 Alpha virt. eigenvalues --    5.05178   5.05300   5.06523   5.07540   5.08116
 Alpha virt. eigenvalues --    5.08759   5.09924   5.10191   5.11410   5.12206
 Alpha virt. eigenvalues --    5.13159   5.14637   5.15430   5.16790   5.17588
 Alpha virt. eigenvalues --    5.18318   5.20418   5.21050   5.21945   5.22617
 Alpha virt. eigenvalues --    5.22872   5.23529   5.25205   5.27008   5.28177
 Alpha virt. eigenvalues --    5.28789   5.30599   5.32288   5.34032   5.35079
 Alpha virt. eigenvalues --    5.35405   5.36414   5.36792   5.37935   5.39133
 Alpha virt. eigenvalues --    5.39765   5.39911   5.41308   5.42152   5.42955
 Alpha virt. eigenvalues --    5.43583   5.45133   5.47057   5.47539   5.49853
 Alpha virt. eigenvalues --    5.50652   5.51609   5.51883   5.52689   5.53841
 Alpha virt. eigenvalues --    5.54863   5.55911   5.56766   5.59090   5.60284
 Alpha virt. eigenvalues --    5.61255   5.61870   5.62559   5.63790   5.65353
 Alpha virt. eigenvalues --    5.66159   5.66637   5.67624   5.68718   5.71898
 Alpha virt. eigenvalues --    5.74150   5.74976   5.76440   5.76898   5.78804
 Alpha virt. eigenvalues --    5.86529   5.89788   5.91562   5.91805   5.95600
 Alpha virt. eigenvalues --    5.98423   5.99831   6.00173   6.08295   6.09433
 Alpha virt. eigenvalues --    6.10232   6.11054   6.13277   6.17090   6.17102
 Alpha virt. eigenvalues --    6.21874   6.25126   6.28959   6.31745   6.35737
 Alpha virt. eigenvalues --    6.50452   6.51208   6.54305   6.67346   6.96320
 Alpha virt. eigenvalues --    7.28763  22.35660  22.36380  22.44143  22.46091
 Alpha virt. eigenvalues --   22.46736  22.52301  22.53542  22.60598  22.61956
 Alpha virt. eigenvalues --   22.77534  22.78911  22.84643  22.86648  22.89148
 Alpha virt. eigenvalues --   22.90008  22.92118  22.94347  22.98465  23.00153
 Alpha virt. eigenvalues --   23.06542  23.08371  23.23823  23.26154  23.27889
 Alpha virt. eigenvalues --   23.29363  23.38331  23.40935  23.49733  23.50736
 Alpha virt. eigenvalues --   23.55406  23.68809  23.73016  23.77173  23.83608
 Alpha virt. eigenvalues --   32.41178  32.76542  32.88071  32.93969  33.00490
 Alpha virt. eigenvalues --   33.10190  44.08411
  Beta  occ. eigenvalues -- -256.15311 -29.96293 -25.81738 -25.80416 -25.80275
  Beta  occ. eigenvalues --  -19.16517 -14.41836 -14.35018 -14.31699 -14.31653
  Beta  occ. eigenvalues --  -14.31525 -14.31352 -10.25653 -10.23716 -10.21100
  Beta  occ. eigenvalues --  -10.20837 -10.20794 -10.20653 -10.20626 -10.20582
  Beta  occ. eigenvalues --  -10.20523 -10.20466 -10.20433 -10.20364 -10.19438
  Beta  occ. eigenvalues --  -10.19373 -10.18810 -10.18791 -10.18731 -10.18661
  Beta  occ. eigenvalues --  -10.18608 -10.18500 -10.18447 -10.18444 -10.18374
  Beta  occ. eigenvalues --  -10.18366 -10.18343 -10.18297 -10.18250 -10.18145
  Beta  occ. eigenvalues --  -10.18139 -10.18120 -10.18059 -10.18055 -10.18037
  Beta  occ. eigenvalues --  -10.18029  -3.30883  -2.07057  -2.06210  -2.06030
  Beta  occ. eigenvalues --   -1.05260  -1.04656  -0.96284  -0.95385  -0.95260
  Beta  occ. eigenvalues --   -0.94338  -0.90791  -0.81940  -0.81585  -0.81278
  Beta  occ. eigenvalues --   -0.80478  -0.80282  -0.80082  -0.79289  -0.79198
  Beta  occ. eigenvalues --   -0.76531  -0.75428  -0.74088  -0.73602  -0.72967
  Beta  occ. eigenvalues --   -0.71818  -0.70692  -0.69845  -0.68069  -0.67631
  Beta  occ. eigenvalues --   -0.67534  -0.64557  -0.63818  -0.63726  -0.61338
  Beta  occ. eigenvalues --   -0.60391  -0.60166  -0.59737  -0.57546  -0.56153
  Beta  occ. eigenvalues --   -0.55856  -0.54152  -0.53243  -0.52945  -0.52266
  Beta  occ. eigenvalues --   -0.50723  -0.50624  -0.50194  -0.48444  -0.47827
  Beta  occ. eigenvalues --   -0.47608  -0.47455  -0.47017  -0.44812  -0.44575
  Beta  occ. eigenvalues --   -0.44356  -0.44298  -0.43982  -0.43344  -0.43244
  Beta  occ. eigenvalues --   -0.43172  -0.43010  -0.42810  -0.42747  -0.42466
  Beta  occ. eigenvalues --   -0.42408  -0.42149  -0.41698  -0.41460  -0.41318
  Beta  occ. eigenvalues --   -0.41176  -0.40908  -0.40010  -0.39959  -0.39808
  Beta  occ. eigenvalues --   -0.39348  -0.39014  -0.38819  -0.38740  -0.38251
  Beta  occ. eigenvalues --   -0.37888  -0.37474  -0.37326  -0.36796  -0.36390
  Beta  occ. eigenvalues --   -0.36066  -0.35479  -0.35217  -0.35056  -0.34246
  Beta  occ. eigenvalues --   -0.33766  -0.33597  -0.33459  -0.33057  -0.31541
  Beta  occ. eigenvalues --   -0.31151  -0.30398  -0.29734  -0.28879  -0.28400
  Beta  occ. eigenvalues --   -0.27812  -0.26240  -0.26061  -0.24127  -0.22798
  Beta  occ. eigenvalues --   -0.22502  -0.21894  -0.21534  -0.18006  -0.17487
  Beta  occ. eigenvalues --   -0.13818
  Beta virt. eigenvalues --   -0.07089  -0.06878  -0.02015   0.00138   0.00394
  Beta virt. eigenvalues --    0.01876   0.02150   0.02997   0.03248   0.03303
  Beta virt. eigenvalues --    0.04517   0.04664   0.05587   0.05732   0.06085
  Beta virt. eigenvalues --    0.06342   0.06475   0.07075   0.08064   0.08314
  Beta virt. eigenvalues --    0.08356   0.08488   0.08881   0.09246   0.09593
  Beta virt. eigenvalues --    0.09777   0.10141   0.10295   0.10633   0.11121
  Beta virt. eigenvalues --    0.11355   0.11622   0.11743   0.12087   0.12298
  Beta virt. eigenvalues --    0.12381   0.12614   0.13033   0.13141   0.13517
  Beta virt. eigenvalues --    0.13663   0.13844   0.13984   0.14312   0.14475
  Beta virt. eigenvalues --    0.14652   0.14779   0.14861   0.15077   0.15396
  Beta virt. eigenvalues --    0.15658   0.15938   0.16129   0.16191   0.16329
  Beta virt. eigenvalues --    0.16444   0.16903   0.17078   0.17256   0.17562
  Beta virt. eigenvalues --    0.17883   0.18094   0.18364   0.18726   0.18984
  Beta virt. eigenvalues --    0.19590   0.19849   0.20260   0.20501   0.20637
  Beta virt. eigenvalues --    0.20739   0.21210   0.21272   0.21560   0.21711
  Beta virt. eigenvalues --    0.22327   0.22612   0.22807   0.23050   0.23526
  Beta virt. eigenvalues --    0.23702   0.24219   0.24301   0.24636   0.24993
  Beta virt. eigenvalues --    0.25678   0.25793   0.25957   0.26124   0.26268
  Beta virt. eigenvalues --    0.26435   0.26755   0.27115   0.27426   0.27632
  Beta virt. eigenvalues --    0.27919   0.28002   0.28217   0.28487   0.28855
  Beta virt. eigenvalues --    0.29392   0.29613   0.29827   0.29902   0.30329
  Beta virt. eigenvalues --    0.30544   0.30867   0.31204   0.31322   0.31620
  Beta virt. eigenvalues --    0.31853   0.32060   0.32325   0.32658   0.32886
  Beta virt. eigenvalues --    0.33095   0.33412   0.33809   0.34136   0.34478
  Beta virt. eigenvalues --    0.34804   0.35039   0.35189   0.35666   0.35779
  Beta virt. eigenvalues --    0.36153   0.36495   0.36579   0.36975   0.37382
  Beta virt. eigenvalues --    0.37441   0.37712   0.37941   0.38115   0.38334
  Beta virt. eigenvalues --    0.38675   0.38863   0.39119   0.39347   0.39670
  Beta virt. eigenvalues --    0.39998   0.40169   0.40532   0.40618   0.40806
  Beta virt. eigenvalues --    0.40927   0.40985   0.41156   0.41573   0.41798
  Beta virt. eigenvalues --    0.42155   0.42303   0.42453   0.42581   0.42701
  Beta virt. eigenvalues --    0.42902   0.43101   0.43381   0.43491   0.44075
  Beta virt. eigenvalues --    0.44156   0.44408   0.44785   0.45037   0.45229
  Beta virt. eigenvalues --    0.45324   0.45673   0.45820   0.46053   0.46293
  Beta virt. eigenvalues --    0.46530   0.46860   0.46929   0.47088   0.47393
  Beta virt. eigenvalues --    0.47505   0.47764   0.48028   0.48135   0.48288
  Beta virt. eigenvalues --    0.48733   0.48865   0.49041   0.49143   0.49333
  Beta virt. eigenvalues --    0.49761   0.49888   0.50056   0.50303   0.50487
  Beta virt. eigenvalues --    0.50816   0.50955   0.51249   0.51395   0.51679
  Beta virt. eigenvalues --    0.52003   0.52179   0.52318   0.52540   0.52639
  Beta virt. eigenvalues --    0.53070   0.53268   0.53478   0.53875   0.54039
  Beta virt. eigenvalues --    0.54353   0.54611   0.54878   0.55231   0.55399
  Beta virt. eigenvalues --    0.55685   0.56093   0.56478   0.56647   0.56903
  Beta virt. eigenvalues --    0.57196   0.57429   0.57642   0.57678   0.57828
  Beta virt. eigenvalues --    0.58212   0.58234   0.58648   0.59044   0.59219
  Beta virt. eigenvalues --    0.59459   0.59749   0.60287   0.60872   0.61238
  Beta virt. eigenvalues --    0.61433   0.61653   0.62153   0.62479   0.62743
  Beta virt. eigenvalues --    0.62892   0.63279   0.63785   0.64105   0.64278
  Beta virt. eigenvalues --    0.64399   0.64964   0.65265   0.65756   0.65925
  Beta virt. eigenvalues --    0.65969   0.66297   0.66421   0.66764   0.67048
  Beta virt. eigenvalues --    0.67292   0.67937   0.68281   0.68582   0.68786
  Beta virt. eigenvalues --    0.69095   0.69282   0.69632   0.69987   0.70273
  Beta virt. eigenvalues --    0.70631   0.70885   0.71000   0.71538   0.71780
  Beta virt. eigenvalues --    0.72272   0.72360   0.72650   0.73065   0.73485
  Beta virt. eigenvalues --    0.73755   0.74035   0.74177   0.74292   0.74746
  Beta virt. eigenvalues --    0.75352   0.75637   0.75916   0.75953   0.76657
  Beta virt. eigenvalues --    0.77066   0.77419   0.78059   0.78200   0.78545
  Beta virt. eigenvalues --    0.78952   0.79117   0.79660   0.79817   0.80131
  Beta virt. eigenvalues --    0.80781   0.81025   0.81333   0.81773   0.82082
  Beta virt. eigenvalues --    0.82417   0.82785   0.83132   0.83683   0.84147
  Beta virt. eigenvalues --    0.84719   0.85113   0.85272   0.85877   0.86334
  Beta virt. eigenvalues --    0.86799   0.87094   0.87182   0.87867   0.88235
  Beta virt. eigenvalues --    0.88408   0.88511   0.89244   0.89690   0.89828
  Beta virt. eigenvalues --    0.90157   0.90635   0.90968   0.91284   0.91776
  Beta virt. eigenvalues --    0.91961   0.92332   0.92819   0.92962   0.93413
  Beta virt. eigenvalues --    0.93814   0.94204   0.94262   0.94543   0.94741
  Beta virt. eigenvalues --    0.95757   0.96003   0.96205   0.96575   0.96720
  Beta virt. eigenvalues --    0.97491   0.97715   0.97905   0.98078   0.98683
  Beta virt. eigenvalues --    0.98988   0.99323   0.99621   0.99816   1.00127
  Beta virt. eigenvalues --    1.00600   1.00981   1.01310   1.01694   1.01914
  Beta virt. eigenvalues --    1.02049   1.02370   1.02738   1.03202   1.03316
  Beta virt. eigenvalues --    1.03413   1.03884   1.04101   1.04595   1.04823
  Beta virt. eigenvalues --    1.05416   1.05747   1.06110   1.06771   1.07295
  Beta virt. eigenvalues --    1.07513   1.08025   1.08159   1.08486   1.08980
  Beta virt. eigenvalues --    1.09774   1.10063   1.10729   1.11293   1.11529
  Beta virt. eigenvalues --    1.11667   1.12462   1.12772   1.13363   1.13671
  Beta virt. eigenvalues --    1.13811   1.14231   1.14354   1.14751   1.15063
  Beta virt. eigenvalues --    1.15604   1.15924   1.16305   1.17222   1.17563
  Beta virt. eigenvalues --    1.17646   1.18089   1.18680   1.19039   1.19306
  Beta virt. eigenvalues --    1.19562   1.19908   1.20328   1.20930   1.21041
  Beta virt. eigenvalues --    1.21374   1.21748   1.22560   1.22836   1.23062
  Beta virt. eigenvalues --    1.23245   1.24202   1.24370   1.24795   1.25364
  Beta virt. eigenvalues --    1.25492   1.26327   1.26533   1.26788   1.27302
  Beta virt. eigenvalues --    1.27676   1.28024   1.28636   1.29134   1.29572
  Beta virt. eigenvalues --    1.29648   1.30508   1.30916   1.31013   1.31244
  Beta virt. eigenvalues --    1.31514   1.31859   1.32263   1.32366   1.33162
  Beta virt. eigenvalues --    1.34552   1.34775   1.35192   1.35680   1.35865
  Beta virt. eigenvalues --    1.36648   1.37319   1.37821   1.38148   1.38376
  Beta virt. eigenvalues --    1.39535   1.40199   1.40299   1.41332   1.41549
  Beta virt. eigenvalues --    1.41808   1.42167   1.42747   1.43122   1.44020
  Beta virt. eigenvalues --    1.44656   1.45185   1.45377   1.45927   1.46014
  Beta virt. eigenvalues --    1.46279   1.46734   1.47027   1.47731   1.47895
  Beta virt. eigenvalues --    1.48149   1.48532   1.49091   1.49387   1.49539
  Beta virt. eigenvalues --    1.49889   1.50472   1.50624   1.50862   1.51162
  Beta virt. eigenvalues --    1.51668   1.51848   1.52068   1.52359   1.52470
  Beta virt. eigenvalues --    1.52787   1.53129   1.53204   1.53887   1.54122
  Beta virt. eigenvalues --    1.54501   1.54823   1.54981   1.55227   1.55578
  Beta virt. eigenvalues --    1.55729   1.56350   1.56410   1.56664   1.56702
  Beta virt. eigenvalues --    1.57141   1.57278   1.57655   1.58002   1.58200
  Beta virt. eigenvalues --    1.58630   1.58761   1.58954   1.59110   1.59728
  Beta virt. eigenvalues --    1.59827   1.60174   1.60457   1.60959   1.61489
  Beta virt. eigenvalues --    1.61817   1.62250   1.62413   1.62860   1.62990
  Beta virt. eigenvalues --    1.63251   1.63357   1.63692   1.64192   1.64392
  Beta virt. eigenvalues --    1.64688   1.65230   1.65548   1.65579   1.66357
  Beta virt. eigenvalues --    1.66634   1.66922   1.66950   1.67490   1.67798
  Beta virt. eigenvalues --    1.68201   1.68656   1.68956   1.69076   1.69560
  Beta virt. eigenvalues --    1.70097   1.70204   1.70695   1.70907   1.71462
  Beta virt. eigenvalues --    1.72020   1.72540   1.72870   1.73224   1.73498
  Beta virt. eigenvalues --    1.73868   1.74213   1.74582   1.74754   1.75281
  Beta virt. eigenvalues --    1.75655   1.76704   1.76989   1.77531   1.78716
  Beta virt. eigenvalues --    1.79269   1.79930   1.80263   1.80558   1.80893
  Beta virt. eigenvalues --    1.81454   1.82580   1.82857   1.83463   1.83802
  Beta virt. eigenvalues --    1.84079   1.84299   1.84434   1.84849   1.85494
  Beta virt. eigenvalues --    1.86340   1.86885   1.87180   1.87411   1.87730
  Beta virt. eigenvalues --    1.87975   1.88402   1.88831   1.89119   1.90055
  Beta virt. eigenvalues --    1.90317   1.90846   1.90996   1.91849   1.92161
  Beta virt. eigenvalues --    1.92690   1.92995   1.93881   1.94296   1.94947
  Beta virt. eigenvalues --    1.95555   1.95700   1.96028   1.96676   1.97470
  Beta virt. eigenvalues --    1.97647   1.97956   1.98174   1.98651   1.98964
  Beta virt. eigenvalues --    1.99407   1.99559   1.99739   2.00623   2.01072
  Beta virt. eigenvalues --    2.01460   2.01591   2.01844   2.02632   2.03435
  Beta virt. eigenvalues --    2.04220   2.04560   2.04889   2.05569   2.05727
  Beta virt. eigenvalues --    2.06695   2.07160   2.07474   2.07563   2.08478
  Beta virt. eigenvalues --    2.09091   2.09411   2.09878   2.10189   2.10585
  Beta virt. eigenvalues --    2.11356   2.11526   2.11781   2.12553   2.12926
  Beta virt. eigenvalues --    2.13284   2.13495   2.13934   2.14267   2.14702
  Beta virt. eigenvalues --    2.15468   2.15779   2.16205   2.16732   2.17282
  Beta virt. eigenvalues --    2.17567   2.18365   2.18769   2.19441   2.19801
  Beta virt. eigenvalues --    2.20035   2.20376   2.20960   2.21352   2.21725
  Beta virt. eigenvalues --    2.22091   2.22473   2.22698   2.23292   2.23829
  Beta virt. eigenvalues --    2.24469   2.25144   2.25580   2.25627   2.26441
  Beta virt. eigenvalues --    2.26505   2.27381   2.27948   2.28492   2.28726
  Beta virt. eigenvalues --    2.29395   2.29560   2.29782   2.29950   2.30448
  Beta virt. eigenvalues --    2.30901   2.31789   2.32170   2.32492   2.32793
  Beta virt. eigenvalues --    2.32985   2.33317   2.34108   2.34975   2.35169
  Beta virt. eigenvalues --    2.35495   2.35873   2.36366   2.36413   2.36917
  Beta virt. eigenvalues --    2.37217   2.37469   2.37815   2.38300   2.38484
  Beta virt. eigenvalues --    2.39253   2.39713   2.40084   2.40263   2.40724
  Beta virt. eigenvalues --    2.41262   2.42260   2.42625   2.43107   2.43499
  Beta virt. eigenvalues --    2.43889   2.44418   2.44634   2.45456   2.45589
  Beta virt. eigenvalues --    2.45837   2.46668   2.46898   2.47780   2.48088
  Beta virt. eigenvalues --    2.48287   2.48700   2.49176   2.49484   2.50049
  Beta virt. eigenvalues --    2.50599   2.51125   2.51484   2.51732   2.52424
  Beta virt. eigenvalues --    2.52857   2.53239   2.53546   2.53871   2.54530
  Beta virt. eigenvalues --    2.54693   2.54904   2.55155   2.55715   2.56178
  Beta virt. eigenvalues --    2.56801   2.57188   2.57529   2.57799   2.58005
  Beta virt. eigenvalues --    2.58703   2.58914   2.59327   2.59787   2.60042
  Beta virt. eigenvalues --    2.60338   2.61030   2.61142   2.61691   2.62160
  Beta virt. eigenvalues --    2.62457   2.62788   2.63001   2.63798   2.63906
  Beta virt. eigenvalues --    2.64347   2.65374   2.65536   2.65985   2.66477
  Beta virt. eigenvalues --    2.67145   2.67201   2.67385   2.67865   2.68016
  Beta virt. eigenvalues --    2.68158   2.68649   2.69355   2.69550   2.69896
  Beta virt. eigenvalues --    2.70417   2.70931   2.71469   2.71987   2.72276
  Beta virt. eigenvalues --    2.72400   2.72879   2.73117   2.73417   2.73563
  Beta virt. eigenvalues --    2.73900   2.74988   2.75469   2.75770   2.75833
  Beta virt. eigenvalues --    2.76457   2.76659   2.76938   2.78191   2.78805
  Beta virt. eigenvalues --    2.79051   2.79465   2.80343   2.80436   2.81023
  Beta virt. eigenvalues --    2.81624   2.82022   2.82287   2.82602   2.83295
  Beta virt. eigenvalues --    2.83370   2.83497   2.84038   2.84405   2.84790
  Beta virt. eigenvalues --    2.85694   2.85858   2.85988   2.86680   2.87159
  Beta virt. eigenvalues --    2.87331   2.87678   2.88006   2.88798   2.89138
  Beta virt. eigenvalues --    2.89300   2.89436   2.89661   2.90020   2.90509
  Beta virt. eigenvalues --    2.91170   2.91490   2.91751   2.92080   2.92450
  Beta virt. eigenvalues --    2.93329   2.93831   2.94089   2.94430   2.94627
  Beta virt. eigenvalues --    2.95129   2.95365   2.95770   2.96042   2.96768
  Beta virt. eigenvalues --    2.96869   2.97430   2.97697   2.97994   2.99082
  Beta virt. eigenvalues --    2.99262   2.99370   2.99911   3.00260   3.00580
  Beta virt. eigenvalues --    3.01263   3.01433   3.01842   3.01970   3.02926
  Beta virt. eigenvalues --    3.03055   3.03386   3.03510   3.03848   3.04292
  Beta virt. eigenvalues --    3.04705   3.05230   3.05562   3.05779   3.06400
  Beta virt. eigenvalues --    3.06771   3.07074   3.07563   3.07821   3.08463
  Beta virt. eigenvalues --    3.08827   3.08854   3.09293   3.09809   3.10034
  Beta virt. eigenvalues --    3.10333   3.10450   3.10748   3.11026   3.11953
  Beta virt. eigenvalues --    3.12119   3.12281   3.12779   3.12987   3.13479
  Beta virt. eigenvalues --    3.13723   3.14087   3.14238   3.14318   3.14978
  Beta virt. eigenvalues --    3.15897   3.15946   3.16104   3.16302   3.16781
  Beta virt. eigenvalues --    3.16905   3.17093   3.17782   3.18112   3.18494
  Beta virt. eigenvalues --    3.18986   3.19130   3.19440   3.19969   3.20175
  Beta virt. eigenvalues --    3.20313   3.20776   3.20973   3.21180   3.21424
  Beta virt. eigenvalues --    3.21853   3.22338   3.22392   3.22851   3.23050
  Beta virt. eigenvalues --    3.23258   3.23886   3.24174   3.24308   3.24410
  Beta virt. eigenvalues --    3.24776   3.25083   3.25504   3.25744   3.26200
  Beta virt. eigenvalues --    3.26394   3.26783   3.27169   3.27560   3.27709
  Beta virt. eigenvalues --    3.28184   3.28524   3.28855   3.28991   3.29340
  Beta virt. eigenvalues --    3.29434   3.29681   3.29754   3.30153   3.30475
  Beta virt. eigenvalues --    3.30685   3.30763   3.31246   3.31443   3.31907
  Beta virt. eigenvalues --    3.32296   3.32681   3.32915   3.33325   3.33459
  Beta virt. eigenvalues --    3.34183   3.34329   3.34486   3.34781   3.34989
  Beta virt. eigenvalues --    3.35370   3.35712   3.35927   3.36134   3.36317
  Beta virt. eigenvalues --    3.36486   3.36987   3.37106   3.37488   3.37688
  Beta virt. eigenvalues --    3.37941   3.38184   3.38214   3.38817   3.39279
  Beta virt. eigenvalues --    3.39417   3.39737   3.39931   3.40716   3.40876
  Beta virt. eigenvalues --    3.41112   3.41664   3.41929   3.42333   3.42681
  Beta virt. eigenvalues --    3.42960   3.43361   3.43749   3.44219   3.44540
  Beta virt. eigenvalues --    3.44976   3.45063   3.45462   3.45948   3.46395
  Beta virt. eigenvalues --    3.46874   3.47022   3.47531   3.47868   3.47900
  Beta virt. eigenvalues --    3.48332   3.49047   3.49312   3.49981   3.50686
  Beta virt. eigenvalues --    3.50857   3.51026   3.51756   3.52146   3.52992
  Beta virt. eigenvalues --    3.53325   3.53794   3.54398   3.54530   3.54888
  Beta virt. eigenvalues --    3.55514   3.55897   3.56136   3.56696   3.56911
  Beta virt. eigenvalues --    3.57522   3.57947   3.58207   3.58417   3.58869
  Beta virt. eigenvalues --    3.59420   3.60194   3.61079   3.61167   3.61678
  Beta virt. eigenvalues --    3.62390   3.62611   3.63225   3.63481   3.64116
  Beta virt. eigenvalues --    3.65057   3.65234   3.65906   3.66147   3.66704
[...]
                                                    218(r),1473(r)
   142. CR (   1) C  67                  0.99970   -10.05983  1527(v),1525(v),1324(v)
                                                    1332(v)
   143. CR (   1) N  71                  0.99969   -14.22248  1326(v),1352(v),1320(v)
                                                    1523(v),1327(v)
   144. CR (   1) C  73                  0.99957   -10.08951  1527(g),1409(v),1532(v)
                                                    1254(v),1297(v)
   145. CR (   1) C  74                  0.99966   -10.12386  1383(v),149(r),1524(v)
                                                    1531(v),1377(v),1381(v)
                                                    150(r),155(r)
   146. CR (   1) N  76                  0.99971   -14.13196  149(r),150(r),153(r),1350(v)
                                                    1407(v),1528(v),168(r)
                                                    171(r),148(r)
   147. CR (   1) C  77                  0.99948   -10.05986  1324(v),1523(v),1527(g)
                                                    1383(v),149(r),150(r),155(r)
   163. LP (   1) N  76                  0.83109    -0.36524  149(r),150(r),153(r),1526(v)
                                                    1527(v),1350(v),1528(v)
                                                    1529(g),1532(v),1407(v)
                                                    1531(g),1384(g),1381(g)
                                                    170(r),148(r),195(r),273(r)
                                                    220(r),176(r),272(r),155(r)
                                                    247(r),245(r),175(r),1440(r)
                                                    1448(r),219(r),221(r)
                                                    1439(r),1444(r),1446(r)
                                                    1438(r),1447(r),1449(r)
                                                    1441(r),1443(r),193(r)
                                                    154(r)
   164. LP (   1) C  77                  0.52242    -0.11194  90(v),1530(v),1328(v)
                                                    1382(v),1408(g),148(r)
  1252. RY*(   1) C  67                  0.00058     1.16381   
  1253. RY*(   2) C  67                  0.00039     2.01170   
  1254. RY*(   3) C  67                  0.00025     1.31300   
  1255. RY*(   4) C  67                  0.00006     1.27747   
  1256. RY*(   5) C  67                  0.00004     1.80811   
  1257. RY*(   6) C  67                  0.00002     1.77863   
  1258. RY*(   7) C  67                  0.00000     1.77681   
  1259. RY*(   8) C  67                  0.00000     1.77908   
  1260. RY*(   9) C  67                  0.00000     1.39059   
  1261. RY*(  10) C  67                  0.00000     2.22541   
  1262. RY*(  11) C  67                  0.00000     2.73988   
  1263. RY*(  12) C  67                  0.00000     3.42562   
  1264. RY*(  13) C  67                  0.00000     2.46466   
  1265. RY*(  14) C  67                  0.00000     1.79512   
  1266. RY*(  15) C  67                  0.00000     2.50769   
  1267. RY*(  16) C  67                  0.00000     2.70301   
  1268. RY*(  17) C  67                  0.00000     2.47000   
  1269. RY*(  18) C  67                  0.00000    21.59464   
  1270. RY*(  19) C  67                  0.00000     2.65565   
  1271. RY*(  20) C  67                  0.00000     3.53511   
  1272. RY*(  21) C  67                  0.00000     3.57940   
  1273. RY*(  22) C  67                  0.00000     3.37531   
  1274. RY*(  23) C  67                  0.00000     3.40744   
  1275. RY*(  24) C  67                  0.00000     3.62736   
  1276. RY*(  25) C  67                  0.00000     3.26806   
  1277. RY*(  26) C  67                  0.00000     3.40143   
  1278. RY*(   1) H  68                  0.00012     1.44543   
  1279. RY*(   2) H  68                  0.00006     1.70510   
  1280. RY*(   3) H  68                  0.00004     2.05706   
  1281. RY*(   4) H  68                  0.00000     2.93518   
  1282. RY*(   5) H  68                  0.00001     1.51549   
  1283. RY*(   1) H  69                  0.00037     1.00664   
  1284. RY*(   2) H  69                  0.00007     1.69141   
  1285. RY*(   3) H  69                  0.00004     1.96613   
  1286. RY*(   4) H  69                  0.00003     2.00521   
  1287. RY*(   5) H  69                  0.00000     2.88786   
  1288. RY*(   1) H  70                  0.00036     1.00399   
  1289. RY*(   2) H  70                  0.00007     1.68735   
  1290. RY*(   3) H  70                  0.00003     1.91110   
  1291. RY*(   4) H  70                  0.00004     2.06949   
  1292. RY*(   5) H  70                  0.00000     2.88475   
  1293. RY*(   1) N  71                  0.00135     0.71875   
  1294. RY*(   2) N  71                  0.00108     1.84613   
  1295. RY*(   3) N  71                  0.00051     2.16129   
  1296. RY*(   4) N  71                  0.00039     2.28321   
  1297. RY*(   5) N  71                  0.00026     1.09338   
  1298. RY*(   6) N  71                  0.00010     2.12394   
  1299. RY*(   7) N  71                  0.00006     2.32658   
  1300. RY*(   8) N  71                  0.00003     2.55465   
  1301. RY*(   9) N  71                  0.00003     3.86513   
  1302. RY*(  10) N  71                  0.00001     2.88990   
  1303. RY*(  11) N  71                  0.00000     4.49682   
  1304. RY*(  12) N  71                  0.00000    30.68002   
  1305. RY*(  13) N  71                  0.00000     4.39553   
  1306. RY*(  14) N  71                  0.00001     1.60250   
  1307. RY*(  15) N  71                  0.00001     4.28294   
  1308. RY*(  16) N  71                  0.00000     2.48282   
  1309. RY*(  17) N  71                  0.00000     4.39069   
  1310. RY*(  18) N  71                  0.00001     2.60867   
  1311. RY*(  19) N  71                  0.00000     2.51681   
  1312. RY*(  20) N  71                  0.00000     4.62037   
  1313. RY*(  21) N  71                  0.00000     4.47455   
  1314. RY*(  22) N  71                  0.00000     4.58748   
  1315. RY*(  23) N  71                  0.00000     4.34782   
  1316. RY*(  24) N  71                  0.00000     4.57809   
  1317. RY*(  25) N  71                  0.00000     4.44017   
  1318. RY*(  26) N  71                  0.00000     4.43094   
  1319. RY*(   1) H  72                  0.00029     2.17740   
  1320. RY*(   2) H  72                  0.00020     2.12962   
  1321. RY*(   3) H  72                  0.00010     2.70647   
  1322. RY*(   4) H  72                  0.00009     1.14297   
  1323. RY*(   5) H  72                  0.00000     3.08214   
  1324. RY*(   1) C  73                  0.00194     1.69226   
  1325. RY*(   2) C  73                  0.00176     1.20517   
  1326. RY*(   3) C  73                  0.00094     1.49800   
  1327. RY*(   4) C  73                  0.00080     2.09343   
  1328. RY*(   5) C  73                  0.00066     1.88815   
  1329. RY*(   6) C  73                  0.00048     1.77285   
  1330. RY*(   7) C  73                  0.00021     2.61882   
  1331. RY*(   8) C  73                  0.00010     2.70186   
  1332. RY*(   9) C  73                  0.00008     2.57961   
  1333. RY*(  10) C  73                  0.00003     3.67140   
  1334. RY*(  11) C  73                  0.00001     3.52387   
  1335. RY*(  12) C  73                  0.00001     1.74696   
  1336. RY*(  13) C  73                  0.00000    21.46783   
  1337. RY*(  14) C  73                  0.00000     1.54819   
  1338. RY*(  15) C  73                  0.00000     2.71440   
  1339. RY*(  16) C  73                  0.00000     1.07764   
  1340. RY*(  17) C  73                  0.00000     1.61867   
  1341. RY*(  18) C  73                  0.00000     1.96910   
  1342. RY*(  19) C  73                  0.00001     2.06702   
  1343. RY*(  20) C  73                  0.00000     3.99068   
  1344. RY*(  21) C  73                  0.00000     3.85317   
  1345. RY*(  22) C  73                  0.00000     3.73206   
  1346. RY*(  23) C  73                  0.00000     3.56732   
  1347. RY*(  24) C  73                  0.00000     3.73239   
  1348. RY*(  25) C  73                  0.00000     3.53933   
  1349. RY*(  26) C  73                  0.00000     3.71016   
  1350. RY*(   1) C  74                  0.00221     1.66461   
  1351. RY*(   2) C  74                  0.00180     0.63457   
  1352. RY*(   3) C  74                  0.00119     1.73697   
  1353. RY*(   4) C  74                  0.00062     1.50318   
  1354. RY*(   5) C  74                  0.00054     2.66316   
  1355. RY*(   6) C  74                  0.00031     1.91263   
  1356. RY*(   7) C  74                  0.00014     1.79093   
  1357. RY*(   8) C  74                  0.00010     1.27651   
  1358. RY*(   9) C  74                  0.00011     1.65167   
  1359. RY*(  10) C  74                  0.00004     2.60097   
  1360. RY*(  11) C  74                  0.00005     1.64893   
  1361. RY*(  12) C  74                  0.00002     2.18683   
  1362. RY*(  13) C  74                  0.00002     2.62698   
  1363. RY*(  14) C  74                  0.00002     2.10842   
  1364. RY*(  15) C  74                  0.00002     2.02093   
  1365. RY*(  16) C  74                  0.00002     3.39850   
  1366. RY*(  17) C  74                  0.00000     3.32274   
  1367. RY*(  18) C  74                  0.00000     3.60808   
  1368. RY*(  19) C  74                  0.00000    21.12429   
  1369. RY*(  20) C  74                  0.00000     3.53288   
  1370. RY*(  21) C  74                  0.00000     3.49132   
  1371. RY*(  22) C  74                  0.00000     3.77631   
  1372. RY*(  23) C  74                  0.00000     3.64068   
  1373. RY*(  24) C  74                  0.00000     3.64668   
  1374. RY*(  25) C  74                  0.00000     3.38563   
  1375. RY*(  26) C  74                  0.00000     3.81417   
  1376. RY*(   1) H  75                  0.00029     0.71946   
  1377. RY*(   2) H  75                  0.00018     2.38258   
  1378. RY*(   3) H  75                  0.00008     2.26412   
  1379. RY*(   4) H  75                  0.00002     2.63590   
  1380. RY*(   5) H  75                  0.00000     3.07005   
  1381. RY*(   1) N  76                  0.00313     1.32636   
  1382. RY*(   2) N  76                  0.00138     0.88792   
  1383. RY*(   3) N  76                  0.00124     1.09897   
  1384. RY*(   4) N  76                  0.00055     1.62516   
  1385. RY*(   5) N  76                  0.00029     1.70532   
  1386. RY*(   6) N  76                  0.00026     2.11198   
  1387. RY*(   7) N  76                  0.00024     2.71878   
  1388. RY*(   8) N  76                  0.00015     3.07545   
  1389. RY*(   9) N  76                  0.00005     3.66662   
  1390. RY*(  10) N  76                  0.00006     2.22409   
  1391. RY*(  11) N  76                  0.00003     3.31416   
  1392. RY*(  12) N  76                  0.00001     4.80734   
  1393. RY*(  13) N  76                  0.00001     2.96240   
  1394. RY*(  14) N  76                  0.00001     4.40371   
  1395. RY*(  15) N  76                  0.00001     4.80375   
  1396. RY*(  16) N  76                  0.00001     3.36666   
  1397. RY*(  17) N  76                  0.00001     3.32593   
  1398. RY*(  18) N  76                  0.00000     4.82795   
  1399. RY*(  19) N  76                  0.00000    31.80759   
  1400. RY*(  20) N  76                  0.00000     4.30088   
  1401. RY*(  21) N  76                  0.00001     4.82707   
  1402. RY*(  22) N  76                  0.00000     4.50760   
  1403. RY*(  23) N  76                  0.00000     4.73312   
  1404. RY*(  24) N  76                  0.00000     4.66361   
  1405. RY*(  25) N  76                  0.00000     4.50922   
  1406. RY*(  26) N  76                  0.00000     4.59406   
  1407. RY*(   1) C  77                  0.00200     1.47553   
  1408. RY*(   2) C  77                  0.00125     0.72828   
  1409. RY*(   3) C  77                  0.00086     1.80592   
  1410. RY*(   4) C  77                  0.00030     1.76937   
  1411. RY*(   5) C  77                  0.00028     1.77070   
  1412. RY*(   6) C  77                  0.00020     2.20023   
  1413. RY*(   7) C  77                  0.00017     2.03180   
  1414. RY*(   8) C  77                  0.00012     1.72379   
  1415. RY*(   9) C  77                  0.00011     1.79069   
  1416. RY*(  10) C  77                  0.00007     1.62374   
  1417. RY*(  11) C  77                  0.00005     1.40668   
  1418. RY*(  12) C  77                  0.00002     2.51959   
  1419. RY*(  13) C  77                  0.00003     2.54767   
  1420. RY*(  14) C  77                  0.00002     1.56273   
  1421. RY*(  15) C  77                  0.00001     2.76331   
  1422. RY*(  16) C  77                  0.00002     3.00090   
  1423. RY*(  17) C  77                  0.00000     3.39012   
  1424. RY*(  18) C  77                  0.00000     3.50912   
  1425. RY*(  19) C  77                  0.00000    21.39482   
  1426. RY*(  20) C  77                  0.00000     3.86989   
  1427. RY*(  21) C  77                  0.00000     3.68215   
  1428. RY*(  22) C  77                  0.00000     3.62403   
  1429. RY*(  23) C  77                  0.00000     3.44240   
  1430. RY*(  24) C  77                  0.00000     3.66008   
  1431. RY*(  25) C  77                  0.00000     3.42650   
  1432. RY*(  26) C  77                  0.00000     3.74366   
  1433. RY*(   1) H  78                  0.00031     0.95018   
  1434. RY*(   2) H  78                  0.00018     2.17322   
  1435. RY*(   3) H  78                  0.00012     2.32907   
  1436. RY*(   4) H  78                  0.00004     2.74469   
  1437. RY*(   5) H  78                  0.00000     3.16788   
  1520. BD*(   1) C  67 - H  68          0.00172     0.37209   
  1521. BD*(   1) C  67 - H  69          0.00602     0.35868   
  1522. BD*(   1) C  67 - H  70          0.00586     0.35827   
  1523. BD*(   1) C  67 - C  73          0.00683     0.38882   
  1524. BD*(   1) N  71 - H  72          0.00710     0.36672   
  1525. BD*(   1) N  71 - C  73          0.01355     0.42899   
  1526. BD*(   1) N  71 - C  74          0.01155     0.44760   
  1527. BD*(   1) C  73 - C  77          0.01070     0.56625   
  1528. BD*(   1) C  74 - H  75          0.00918     0.39034   
  1529. BD*(   1) C  74 - N  76          0.00768     0.52990   
  1530. BD*(   2) C  74 - N  76          0.20616    -0.00495  90(v),154(r),1351(g),1382(g)
                                                    155(r),148(r),152(r),1445(r)
                                                    1448(r),1458(r)
  1531. BD*(   1) N  76 - C  77          0.00762     0.47818   
  1532. BD*(   1) C  77 - H  78          0.00759     0.43228   
       -------------------------------
              Total Lewis   21.09964  ( 96.6720%)
        Valence non-Lewis    0.69073  (  3.1647%)
        Rydberg non-Lewis    0.03563  (  0.1633%)
       -------------------------------
            Total unit  4   21.82600  (100.0000%)
           Charge unit  4    0.17400
 Unable to Open any file for archive entry.
 1\1\GINC-BGN1033\SP\UAPFD\def2TZVP\C34H36Fe1N6O1(5)\BEBJONES\27-Oct-20
 24\0\\# apfd/def2TZVP guess=read scf=maxcycle=999 geom=check pop=nbo\\
 1cyf_II_Q\\0,5\Fe,0,36.50558886,28.6630433198,7.0347108531\N,0,36.3974
 729554,29.1856631476,8.9622682914\N,0,34.7219070444,29.5857364426,6.69
 8558873\N,0,36.5965175079,28.1852982194,5.0897673801\N,0,38.3502457579
 ,27.9301191845,7.3601708318\C,0,37.1542486447,28.6610421944,9.96681247
 57\C,0,36.6908586948,29.1270397254,11.2525726075\C,0,35.5369047655,29.
 8066847024,11.0142546573\C,0,35.3114999448,29.7333398195,9.5867388467\
 C,0,33.9516550841,30.2325701838,7.6180881529\C,0,32.8294163703,30.8782
 202582,6.9849960693\C,0,32.9572630182,30.6371313228,5.6434410234\C,0,3
 4.2015326895,29.90467224,5.4873204244\C,0,35.7380832761,28.5706353997,
 4.1067628461\C,0,36.3496698988,28.4014264622,2.8085240505\C,0,37.51597
 42018,27.7181534247,3.0234416345\C,0,37.6217093447,27.5477870502,4.464
 9049717\C,0,39.042830057,27.1984825894,6.4497642788\C,0,40.0346279988,
 26.3698834563,7.1022302771\C,0,39.9937376947,26.6988223223,8.420249842
 9\C,0,38.9030304213,27.6381093887,8.5717877196\C,0,38.3168699624,27.93
 22530289,9.7896669063\H,0,38.8236472681,27.5876543465,10.67889904\C,0,
 34.2712444558,30.3903061528,8.9564268854\H,0,33.5602660904,30.90861795
 ,9.5820007909\C,0,34.607174845,29.3521662382,4.287696175\H,0,34.044710
 4815,29.6149832244,3.4048105834\C,0,38.7772687565,27.1164329151,5.0917
 898574\H,0,39.4881170602,26.5665625252,4.4920101419\C,0,34.6255752432,
 30.4854514705,11.9794340243\H,0,34.5437267514,31.5483141319,11.7496779
 778\H,0,34.9961223117,30.3843215984,12.9965479336\H,0,33.6256814493,30
 .0529681513,11.9343521109\C,0,37.3795481928,28.8554371496,12.546056158
 4\H,0,38.3947831885,29.2520188203,12.5290453686\H,0,37.4398345233,27.7
 825673102,12.7309452204\H,0,36.8458181102,29.3163237495,13.373663094\C
 ,0,31.7850307712,31.6759051664,7.6853808993\H,0,32.2271379893,32.28428
 88335,8.4729949706\H,0,31.0365986788,31.025839834,8.1421037921\H,0,31.
 2831101334,32.333794473,6.9789452823\C,0,32.1152530802,31.0715850296,4
 .5522027495\H,0,32.630189509,31.3121201668,3.6291698617\C,0,30.7911652
 623,31.1811626798,4.5979486673\H,0,30.224404744,30.9112009815,5.471960
 2224\H,0,30.2238418837,31.5236674454,3.748469185\C,0,35.7969031999,28.
 9051123288,1.5211974071\H,0,35.3520729038,29.8906745178,1.6502130279\H
 ,0,35.0261034564,28.2344649543,1.1377480681\H,0,36.5901917822,28.97762
 33633,0.7802196423\C,0,38.5121021471,27.2806945133,2.069201934\H,0,39.
 5363430169,27.2853751204,2.4230545054\C,0,38.264520441,26.8741213893,0
 .8281721039\H,0,37.2648556212,26.8022764049,0.4367419906\H,0,39.058858
 8678,26.5724497335,0.1655055058\C,0,40.9384348123,25.4167747093,6.3976
 283837\H,0,41.5673342973,25.9419112908,5.6778379693\H,0,40.3593928569,
 24.6684599731,5.8562223361\H,0,41.5837838861,24.9025134503,7.105629571
 6\C,0,40.805052852,26.1657224361,9.551737828\H,0,41.6600354903,25.6035
 170392,9.1835553066\H,0,40.2061715572,25.5051226863,10.1805536603\H,0,
 41.1720935278,26.9820479459,10.1726661989\O,0,37.466,30.673,6.643\H,0,
 37.472,31.131,7.483\H,0,37.708,31.012,5.857\C,0,35.1831882818,23.25883
 20267,7.4830104702\H,0,36.0484245922,22.9271047822,6.9175905983\H,0,34
 .2817625243,22.9181409051,6.9732685958\H,0,35.2118600772,22.7969920335
 ,8.4699254858\N,0,34.2388600639,25.4407480307,8.2719504383\H,0,33.4478
 634783,25.0426794768,8.750952167\C,0,35.199800062,24.7394861607,7.5919
 527387\C,0,34.5453038231,26.7544682414,8.1754119405\H,0,33.9639285389,
 27.5398530481,8.612318019\N,0,35.6419380583,26.9273958185,7.4776153022
 \C,0,36.0598853327,25.6825900404,7.1069120347\H,0,36.9453529449,25.549
 9923181,6.5204884199\\Version=ES64L-G16RevC.02\State=5-A\HF=-2983.9833
 253\S2=6.028812\S2-1=0.\S2A=6.000223\RMSD=2.487e-09\Dipole=-0.6469264,
 -1.1124761,1.0725891\Quadrupole=-2.5398914,5.092225,-2.5523336,5.59320
 71,-5.2812955,-4.8950695\PG=C01 [X(C34H36Fe1N6O1)]\\@
 The archive entry for this job was punched.


 THOSE WHO TRY TO PASS CHEMISTRY OFF AS A NEW SCIENCE
 SHOW HOW LITTLE KNOWLEDGE THEY HAVE OF THE CHARACTER
 AND LITERATURE OF THE ANCIENTS.
   -- NICOLAS LEFEVRE
 "COURS DE CHYMIE" J.-N.LELOUP, PARIS, 1751
 Job cpu time:       1 days 15 hours 48 minutes 54.6 seconds.
 Elapsed time:       0 days  0 hours 36 minutes 35.6 seconds.
 File lengths (MBytes):  RWF=   2166 Int=      0 D2E=      0 Chk=    197 Scr=      1
 Normal termination of Gaussian 16 at Sun Oct 27 10:31:22 2024.
