 Entering Gaussian System, Link 0=g16
 Input=1dt101.com
 Output=1dt101.log
 Initial command:
 /sw/chem/gaussian/g16_C02/a100/g16/l1.exe "/local/bebjones_7921895/Gau-800582.inp" -scrdir="/local/bebjones_7921895/"
 Entering Link 1 = /sw/chem/gaussian/g16_C02/a100/g16/l1.exe PID=    800583.
  
 Copyright (c) 1988-2021, Gaussian, Inc.  All Rights Reserved.
  
 This is part of the Gaussian(R) 16 program.  It is based on
 the Gaussian(R) 09 system (copyright 2009, Gaussian, Inc.),
 the Gaussian(R) 03 system (copyright 2003, Gaussian, Inc.),
 the Gaussian(R) 98 system (copyright 1998, Gaussian, Inc.),
 the Gaussian(R) 94 system (copyright 1995, Gaussian, Inc.),
 the Gaussian 92(TM) system (copyright 1992, Gaussian, Inc.),
 the Gaussian 90(TM) system (copyright 1990, Gaussian, Inc.),
 the Gaussian 88(TM) system (copyright 1988, Gaussian, Inc.),
 the Gaussian 86(TM) system (copyright 1986, Carnegie Mellon
 University), and the Gaussian 82(TM) system (copyright 1983,
 Carnegie Mellon University). Gaussian is a federally registered
 trademark of Gaussian, Inc.
  
 This software contains proprietary and confidential information,
 including trade secrets, belonging to Gaussian, Inc.
  
 This software is provided under written license and may be
 used, copied, transmitted, or stored only in accord with that
 written license.
  
 The following legend is applicable only to US Government
 contracts under FAR:
  
                    RESTRICTED RIGHTS LEGEND
  
 Use, reproduction and disclosure by the US Government is
 subject to restrictions as set forth in subparagraphs (a)
 and (c) of the Commercial Computer Software - Restricted
 Rights clause in FAR 52.227-19.
  
 Gaussian, Inc.
 340 Quinnipiac St., Bldg. 40, Wallingford CT 06492
  
  
 ---------------------------------------------------------------
 Warning -- This program may not be used in any manner that
 competes with the business of Gaussian, Inc. or will provide
 assistance to any competitor of Gaussian, Inc.  The licensee
 of this program is prohibited from giving any competitor of
 Gaussian, Inc. access to this program.  By using this program,
 the user acknowledges that Gaussian, Inc. is engaged in the
 business of creating and licensing software in the field of
 computational chemistry and represents and warrants to the
 licensee that it is not a competitor of Gaussian, Inc. and that
 it will not use this program in any manner prohibited above.
 ---------------------------------------------------------------
  

 Cite this work as:
 Gaussian 16, Revision C.02,
 M. J. Frisch, G. W. Trucks, H. B. Schlegel, G. E. Scuseria, 
 M. A. Robb, J. R. Cheeseman, G. Scalmani, V. Barone, 
 G. A. Petersson, H. Nakatsuji, X. Li, M. Caricato, A. V. Marenich, 
 J. Bloino, B. G. Janesko, R. Gomperts, B. Mennucci, H. P. Hratchian, 
 J. V. Ortiz, A. F. Izmaylov, J. L. Sonnenberg, D. Williams-Young, 
 F. Ding, F. Lipparini, F. Egidi, J. Goings, B. Peng, A. Petrone, 
 T. Henderson, D. Ranasinghe, V. G. Zakrzewski, J. Gao, N. Rega, 
 G. Zheng, W. Liang, M. Hada, M. Ehara, K. Toyota, R. Fukuda, 
 J. Hasegawa, M. Ishida, T. Nakajima, Y. Honda, O. Kitao, H. Nakai, 
 T. Vreven, K. Throssell, J. A. Montgomery, Jr., J. E. Peralta, 
 F. Ogliaro, M. J. Bearpark, J. J. Heyd, E. N. Brothers, K. N. Kudin, 
 V. N. Staroverov, T. A. Keith, R. Kobayashi, J. Normand, 
 K. Raghavachari, A. P. Rendell, J. C. Burant, S. S. Iyengar, 
 J. Tomasi, M. Cossi, J. M. Millam, M. Klene, C. Adamo, R. Cammi, 
 J. W. Ochterski, R. L. Martin, K. Morokuma, O. Farkas, 
 J. B. Foresman, and D. J. Fox, Gaussian, Inc., Wallingford CT, 2019.
 
 ******************************************
 Gaussian 16:  ES64L-G16RevC.02  7-Dec-2021
                 3-Jul-2024 
 ******************************************
 %mem=16GB
 %CPU=0-71
 SetSPE:  set environment variable "OMP_PROC_BIND" = "true"
 SetSPE:  set environment variable "OMP_PLACES" = "{0},{1},{2},{3},{4},{5},{6},{7},{8},{9},{10},{11},{12},{13},{14},{15},{16},{17},{18},{19},{20},{21},{22},{23},{24},{25},{26},{27},{28},{29},{30},{31},{32},{33},{34},{35},{36},{37},{38},{39},{40},{41},{42},{43},{44},{45},{46},{47},{48},{49},{50},{51},{52},{53},{54},{55},{56},{57},{58},{59},{60},{61},{62},{63},{64},{65},{66},{67},{68},{69},{70},{71}"
 Will use up to   72 processors via shared memory.
 %gpucpu=0,1,2,3=0,1,2,3
 Will use    4 GPUs:
 Thread  CPU   GPU
      0    0     0
      1    1     1
      2    2     2
      3    3     3
      4    4    -1
      5    5    -1
      6    6    -1
      7    7    -1
      8    8    -1
      9    9    -1
     10   10    -1
     11   11    -1
     12   12    -1
     13   13    -1
     14   14    -1
     15   15    -1
     16   16    -1
     17   17    -1
     18   18    -1
     19   19    -1
     20   20    -1
     21   21    -1
     22   22    -1
     23   23    -1
     24   24    -1
     25   25    -1
     26   26    -1
     27   27    -1
     28   28    -1
     29   29    -1
     30   30    -1
     31   31    -1
     32   32    -1
     33   33    -1
     34   34    -1
     35   35    -1
     36   36    -1
     37   37    -1
     38   38    -1
     39   39    -1
     40   40    -1
     41   41    -1
     42   42    -1
     43   43    -1
     44   44    -1
     45   45    -1
     46   46    -1
     47   47    -1
     48   48    -1
     49   49    -1
     50   50    -1
     51   51    -1
     52   52    -1
     53   53    -1
     54   54    -1
     55   55    -1
     56   56    -1
     57   57    -1
     58   58    -1
     59   59    -1
     60   60    -1
     61   61    -1
     62   62    -1
     63   63    -1
     64   64    -1
     65   65    -1
     66   66    -1
     67   67    -1
     68   68    -1
     69   69    -1
     70   70    -1
     71   71    -1
 SetGPE:  set environment variable "OMP_PROC_BIND" = "true"
 SetGPE:  set environment variable "OMP_PLACES" = "{0},{1},{2},{3},{4},{5},{6},{7},{8},{9},{10},{11},{12},{13},{14},{15},{16},{17},{18},{19},{20},{21},{22},{23},{24},{25},{26},{27},{28},{29},{30},{31},{32},{33},{34},{35},{36},{37},{38},{39},{40},{41},{42},{43},{44},{45},{46},{47},{48},{49},{50},{51},{52},{53},{54},{55},{56},{57},{58},{59},{60},{61},{62},{63},{64},{65},{66},{67},{68},{69},{70},{71}"
 %chk=1dt1_II_O.chk
 Properties for Device   0
 Minimum vector length:                              32
 Maximum vector length:                            1024
 Number of SMPs:                                    108
 Maximum number of threads per SMP:                2048
 Number of ASync Engines:                             5
 Memory:                                           9207742464
 Properties for Device   1
 Minimum vector length:                              32
 Maximum vector length:                            1024
 Number of SMPs:                                    108
 Maximum number of threads per SMP:                2048
 Number of ASync Engines:                             5
 Memory:                                           9207742464
 Properties for Device   2
 Minimum vector length:                              32
 Maximum vector length:                            1024
 Number of SMPs:                                    108
 Maximum number of threads per SMP:                2048
 Number of ASync Engines:                             5
 Memory:                                           9207742464
 Properties for Device   3
 Minimum vector length:                              32
 Maximum vector length:                            1024
 Number of SMPs:                                    108
 Maximum number of threads per SMP:                2048
 Number of ASync Engines:                             5
 Memory:                                           9207742464
   8286968217 words of memory will be used on each GPU.
 ------------------------------------------
 # polar def2tzvp apfd int=(grid=ultrafine)
 ------------------------------------------
 1/38=1,172=1/1;
 2/12=2,17=6,18=5,40=1/2;
 3/5=44,7=101,11=2,25=1,30=1,74=-44,75=-5/1,2,3;
 4//1;
 5/5=2,38=5,98=1/2;
 8/6=4,10=90,11=11/1;
 10/6=1,13=10/2;
 6/7=2,8=2,9=2,10=2,28=1/1;
 99/5=1,9=1/99;
 ---------
 1dt1_II_S
 ---------
 Symbolic Z-matrix:
 Charge =  0 Multiplicity = 1
 Fe                    25.102    24.442    0.198 
 N                     23.732    23.774   -1.175 
 N                     23.582    25.21     1.377 
 N                     26.449    25.236    1.549 
 N                     26.649    23.813   -0.98 
 C                     24.024    23.056   -2.261 
 C                     22.88     22.77    -2.985 
 C                     21.844    23.382   -2.281 
 C                     22.408    23.984   -1.171 
 C                     22.274    25.193    1.073 
 C                     21.542    25.755    2.123 
 C                     22.465    26.038    3.137 
 C                     23.704    25.716    2.61 
 C                     26.22     25.657    2.817 
 C                     27.413    25.905    3.489 
 C                     28.436    25.659    2.562 
 C                     27.784    25.23     1.403 
 C                     27.949    24.086   -0.836 
 C                     28.68     23.489   -1.851 
 C                     27.778    22.761   -2.613 
 C                     26.531    23.014   -2.039 
 C                     25.3      22.504   -2.497 
 H                     25.338    21.592   -3.093 
 C                     21.75     24.736   -0.153 
 H                     20.709    24.99    -0.348 
 C                     24.914    25.865    3.282 
 H                     24.835    26.19     4.319 
 C                     28.469    24.854    0.218 
 H                     29.499    25.195    0.116 
 C                     22.844    21.897   -4.228 
 H                     23.385    21.03    -3.793 
 H                     23.556    22.499   -4.831 
 H                     22.022    21.522   -4.874 
 C                     20.355    23.406   -2.654 
 H                     20.246    24.512   -2.666 
 H                     19.996    23.019   -1.676 
 H                     19.748    22.975   -3.479 
 C                     27.982    21.805   -3.777 
 H                     28.429    22.593   -4.42 
 H                     27.485    21.051   -4.424 
 H                     28.789    21.324   -3.184 
 C                     30.073    23.58    -2.048 
 H                     30.761    22.938   -1.497 
 C                     30.58     23.831   -3.402 
 H                     30.013    24.461   -4.103 
 H                     31.533    23.392   -3.732 
 C                     29.958    25.848    2.691 
 H                     30.105    26.58     1.868 
 H                     30.212    24.832    2.319 
 H                     30.623    26.12     3.538 
 C                     27.584    26.276    4.843 
 H                     26.844    25.752    5.447 
 C                     28.294    27.516    5.22 
 H                     29.027    27.97     4.536 
 H                     28.098    27.999    6.188 
 C                     22.133    26.639    4.493 
 H                     21.523    27.443    4.028 
 H                     22.646    27.048    5.39 
 H                     21.463    25.803    4.787 
 C                     20.035    26.035    2.226 
 H                     20.167    27.115    2.449 
 H                     19.928    25.48     3.182 
 H                     19.122    25.904    1.607 
 C                     26.623    19.533    2.307 
 H                     27.693    19.697    2.059 
 H                     26.26     18.637    1.759 
 H                     26.527    19.373    3.402 
 N                     24.458    20.855    2.083 
 H                     23.891    20.147    2.502 
 C                     25.819    20.743    1.896 
 C                     24.023    22.025    1.63 
 H                     22.988    22.361    1.657 
 N                     25.071    22.678    1.155 
 C                     26.2      21.902    1.31 
 H                     27.172    22.253    0.986 
 C                     23.891    28.434    0.436 
 H                     23.864    28.108    1.498 
 H                     22.996    28.029   -0.082 
 H                     23.871    29.544    0.405 
 C                     25.159    27.919   -0.238 
 H                     25.948    27.799    0.534 
 H                     25.503    28.676   -0.974 
 S                     24.885    26.348   -1.071 
 C                     26.147    26.413   -2.342 
 H                     27.166    26.39    -1.9 
 H                     26.049    27.349   -2.932 
 H                     26.049    25.542   -3.024 
 
 Stoichiometry    C37H42FeN6S
 Framework group  C1[X(C37H42FeN6S)]
 Deg. of freedom   255
 Full point group                 C1      NOp   1
 Largest Abelian subgroup         C1      NOp   1
 Largest concise Abelian subgroup C1      NOp   1
                         Standard orientation:                         
 ---------------------------------------------------------------------
 Center     Atomic      Atomic             Coordinates (Angstroms)
 Number     Number       Type             X           Y           Z
 ---------------------------------------------------------------------
      1         26           0       -0.052416   -0.201518   -0.048649
      2          7           0        0.452341   -2.189200   -0.099579
      3          7           0       -2.065256   -0.688754   -0.011993
      4          7           0       -0.611974    1.786563   -0.115556
      5          7           0        1.911298    0.342336   -0.205438
      6          6           0        1.698580   -2.663970   -0.058772
      7          6           0        1.701466   -4.046452   -0.117442
      8          6           0        0.358661   -4.406929   -0.219361
      9          6           0       -0.378181   -3.236777   -0.199115
     10          6           0       -2.568621   -1.932176   -0.075991
     11          6           0       -3.961913   -1.878927    0.024364
     12          6           0       -4.287907   -0.535720    0.247376
     13          6           0       -3.088514    0.152325    0.179678
     14          6           0       -1.814965    2.332829    0.187613
     15          6           0       -1.737167    3.720807    0.249268
     16          6           0       -0.412816    4.047542   -0.075867
     17          6           0        0.230700    2.821638   -0.264207
     18          6           0        2.405165    1.561052   -0.442271
     19          6           0        3.789443    1.516010   -0.494643
     20          6           0        4.154093    0.208567   -0.208542
     21          6           0        2.948941   -0.479321   -0.057172
     22          6           0        2.820276   -1.855256    0.217553
     23          1           0        3.672708   -2.342907    0.690797
     24          6           0       -1.794838   -3.092007   -0.282274
     25          1           0       -2.350137   -3.993301   -0.538270
     26          6           0       -2.956193    1.530448    0.325119
     27          1           0       -3.871362    2.062520    0.583190
     28          6           0        1.607398    2.706823   -0.590316
     29          1           0        2.092590    3.594483   -0.995572
     30          6           0        2.946523   -4.909970   -0.004996
     31          1           0        3.337371   -4.452653    0.928649
     32          1           0        3.486410   -4.474126   -0.871898
     33          1           0        3.113594   -6.007344    0.033521
     34          6           0       -0.215333   -5.825390   -0.343157
     35          1           0       -0.771333   -5.654041   -1.290133
     36          1           0       -0.919628   -5.728067    0.511027
     37          1           0        0.220993   -6.847217   -0.361175
     38          6           0        5.514566   -0.436043    0.001313
     39          1           0        5.851064   -0.195413   -1.029739
     40          1           0        6.034766   -1.355610    0.344710
     41          1           0        5.766331    0.414955    0.669651
     42          6           0        4.655546    2.597269   -0.755954
     43          1           0        4.944198    3.289333    0.035776
     44          6           0        5.765935    2.401830   -1.695213
     45          1           0        5.654284    1.732357   -2.560736
     46          1           0        6.723115    2.922411   -1.544777
     47          6           0        0.252541    5.422918   -0.261571
     48          1           0        0.574257    5.310548   -1.319226
     49          1           0        1.115547    5.201709    0.402841
     50          1           0       -0.094593    6.465442   -0.099520
     51          6           0       -2.756205    4.630464    0.615714
     52          1           0       -3.347822    4.190745    1.417978
     53          6           0       -3.191818    5.709683   -0.294977
     54          1           0       -2.516363    6.086587   -1.077897
     55          1           0       -4.195559    6.148255   -0.200695
     56          6           0       -5.691272    0.012588    0.447594
     57          1           0       -6.070627   -0.532357   -0.443398
     58          1           0       -6.219765    0.986990    0.526932
     59          1           0       -5.885740   -0.599687    1.353979
     60          6           0       -4.994574   -3.012101   -0.073541
     61          1           0       -5.569404   -2.529129   -0.891993
     62          1           0       -5.467625   -2.757038    0.898352
     63          1           0       -5.007863   -4.112483   -0.224780
     64          6           0        1.554872    0.928880    5.147353
     65          1           0        2.244697    1.733835    4.816463
     66          1           0        2.144823    0.135833    5.655214
     67          1           0        0.810906    1.358348    5.851563
     68          7           0       -0.088423   -0.662408    4.028215
     69          1           0       -0.371479   -1.095502    4.882979
     70          6           0        0.845539    0.348078    3.947789
     71          6           0       -0.546215   -0.967223    2.819559
     72          1           0       -1.290427   -1.732558    2.606815
     73          7           0        0.066908   -0.175691    1.954749
     74          6           0        0.936686    0.652261    2.632114
     75          1           0        1.540110    1.383030    2.107884
     76          6           0       -2.707497   -0.121797   -3.274081
     77          1           0       -3.314634    0.308290   -2.448697
     78          1           0       -2.656400   -1.223052   -3.139918
     79          1           0       -3.202861    0.114985   -4.239488
     80          6           0       -1.301562    0.470023   -3.253573
     81          1           0       -1.349152    1.483105   -2.801571
     82          1           0       -0.943010    0.570989   -4.299674
     83         16           0       -0.155943   -0.555219   -2.318993
     84          6           0        1.398752   -0.126655   -3.101020
     85          1           0        1.664305    0.935936   -2.914913
     86          1           0        1.329502   -0.276626   -4.199434
     87          1           0        2.217294   -0.760452   -2.698950
 ---------------------------------------------------------------------
 Rotational constants (GHZ):           0.0837899           0.0801555           0.0581473
 Standard basis: def2TZVP (5D, 7F)
 There are  1894 symmetry adapted cartesian basis functions of A   symmetry.
 There are  1667 symmetry adapted basis functions of A   symmetry.
  1667 basis functions,  2700 primitive gaussians,  1894 cartesian basis functions
   174 alpha electrons      174 beta electrons
       nuclear repulsion energy      7143.1243701354 Hartrees.
 NAtoms=   87 NActive=   87 NUniq=   87 SFac= 1.00D+00 NAtFMM=   60 NAOKFM=T Big=T
 Integral buffers will be    131072 words long.
 Raffenetti 2 integral format.
 Two-electron integral symmetry is turned on.
 R6APFD:  NTU= -4 IXU= 1 FactS= 1.050
 Nuclear repulsion after empirical dispersion term =     7142.9407962287 Hartrees.
 One-electron integrals computed using PRISM.
   1 Symmetry operations used in ECPInt.
 ECPInt:  NShTT=  224115 NPrTT=  692067 LenC2=  178177 LenP2D=  362666.
 LDataN:  DoStor=T MaxTD1= 6 Len=  172
 Number of processors reduced to  21 by ecpmxn.
 NBasis=  1667 RedAO= T EigKep=  2.60D-06  NBF=  1667
 NBsUse=  1667 1.00D-06 EigRej= -1.00D+00 NBFU=  1667
 ExpMin= 4.20D-02 ExpMax= 3.01D+05 ExpMxC= 2.91D+03 IAcc=3 IRadAn=         5 AccDes= 0.00D+00
 Harris functional with IExCor= 3731 and IRadAn=       5 diagonalized for initial guess.
 HarFok:  IExCor= 3731 AccDes= 0.00D+00 IRadAn=         5 IDoV= 1 UseB2=F ITyADJ=14
 ICtDFT=  3500011 ScaDFX=  1.000000  1.000000  1.000000  1.000000
 FoFCou: FMM=F IPFlag=           0 FMFlag=      100000 FMFlg1=        2001
         NFxFlg=           0 DoJE=T BraDBF=F KetDBF=T FulRan=T
         wScrn=  0.000000 ICntrl=       500 IOpCl=  0 I1Cent=   200000004 NGrid=           0
         NMat0=    1 NMatS0=      1 NMatT0=    0 NMatD0=    1 NMtDS0=    0 NMtDT0=    0
 Petite list used in FoFCou.
 Requested convergence on RMS density matrix=1.00D-08 within 128 cycles.
 Requested convergence on MAX density matrix=1.00D-06.
 Requested convergence on             energy=1.00D-06.
 No special actions if energy rises.
 EnCoef did     3 forward-backward iterations
 EnCoef did   100 forward-backward iterations
 EnCoef did   100 forward-backward iterations
 EnCoef did   100 forward-backward iterations
 EnCoef did     6 forward-backward iterations
 EnCoef did   100 forward-backward iterations
 EnCoef did     2 forward-backward iterations
 Restarting incremental Fock formation.
 SCF Done:  E(RAPFD) =  -3424.54641754     A.U. after   28 cycles
            NFock= 28  Conv=0.20D-08     -V/T= 2.0036
 DoSCS=F DFT=T ScalE2(SS,OS)=  1.000000  1.000000
 Range of M.O.s used for correlation:     1  1667
 NBasis=  1667 NAE=   174 NBE=   174 NFC=     0 NFV=     0
 NROrb=   1667 NOA=   174 NOB=   174 NVA=  1493 NVB=  1493

 **** Warning!!: The largest alpha MO coefficient is  0.46283718D+02


 **** Warning!!: The smallest alpha delta epsilon is  0.98808881D-01

          Differentiating once with respect to electric field.
                with respect to dipole field.
          Electric field/nuclear overlap derivatives assumed to be zero.
          There are     3 degrees of freedom in the 1st order CPHF.  IDoFFX=0 NUNeed=     3.
      3 vectors produced by pass  0 Test12= 8.66D-12 3.33D-08 XBig12= 2.11D+03 2.25D+01.
 AX will form     3 AO Fock derivatives at one time.
      3 vectors produced by pass  1 Test12= 8.66D-12 3.33D-08 XBig12= 1.74D+03 9.45D+00.
      3 vectors produced by pass  2 Test12= 8.66D-12 3.33D-08 XBig12= 5.67D+02 5.63D+00.
      3 vectors produced by pass  3 Test12= 8.66D-12 3.33D-08 XBig12= 6.85D+02 8.01D+00.
      3 vectors produced by pass  4 Test12= 8.66D-12 3.33D-08 XBig12= 3.66D+02 3.58D+00.
      3 vectors produced by pass  5 Test12= 8.66D-12 3.33D-08 XBig12= 1.80D+02 2.40D+00.
      3 vectors produced by pass  6 Test12= 8.66D-12 3.33D-08 XBig12= 1.09D+02 2.14D+00.
      3 vectors produced by pass  7 Test12= 8.66D-12 3.33D-08 XBig12= 6.65D+01 2.10D+00.
      3 vectors produced by pass  8 Test12= 8.66D-12 3.33D-08 XBig12= 3.19D+01 1.05D+00.
      3 vectors produced by pass  9 Test12= 8.66D-12 3.33D-08 XBig12= 2.05D+01 7.34D-01.
      3 vectors produced by pass 10 Test12= 8.66D-12 3.33D-08 XBig12= 8.19D+00 5.74D-01.
      3 vectors produced by pass 11 Test12= 8.66D-12 3.33D-08 XBig12= 4.54D+00 3.23D-01.
      3 vectors produced by pass 12 Test12= 8.66D-12 3.33D-08 XBig12= 2.12D+00 2.45D-01.
      3 vectors produced by pass 13 Test12= 8.66D-12 3.33D-08 XBig12= 9.98D-01 2.14D-01.
      3 vectors produced by pass 14 Test12= 8.66D-12 3.33D-08 XBig12= 5.42D-01 1.70D-01.
      3 vectors produced by pass 15 Test12= 8.66D-12 3.33D-08 XBig12= 1.69D-01 6.18D-02.
      3 vectors produced by pass 16 Test12= 8.66D-12 3.33D-08 XBig12= 4.67D-02 3.55D-02.
      3 vectors produced by pass 17 Test12= 8.66D-12 3.33D-08 XBig12= 1.13D-02 1.44D-02.
      3 vectors produced by pass 18 Test12= 8.66D-12 3.33D-08 XBig12= 3.21D-03 8.37D-03.
      3 vectors produced by pass 19 Test12= 8.66D-12 3.33D-08 XBig12= 7.73D-04 4.02D-03.
      3 vectors produced by pass 20 Test12= 8.66D-12 3.33D-08 XBig12= 1.77D-04 2.34D-03.
      3 vectors produced by pass 21 Test12= 8.66D-12 3.33D-08 XBig12= 3.91D-05 1.41D-03.
      3 vectors produced by pass 22 Test12= 8.66D-12 3.33D-08 XBig12= 1.05D-05 5.98D-04.
      3 vectors produced by pass 23 Test12= 8.66D-12 3.33D-08 XBig12= 2.55D-06 3.53D-04.
      3 vectors produced by pass 24 Test12= 8.66D-12 3.33D-08 XBig12= 5.12D-07 1.34D-04.
      3 vectors produced by pass 25 Test12= 8.66D-12 3.33D-08 XBig12= 9.55D-08 5.08D-05.
      3 vectors produced by pass 26 Test12= 8.66D-12 3.33D-08 XBig12= 1.64D-08 2.21D-05.
      3 vectors produced by pass 27 Test12= 8.66D-12 3.33D-08 XBig12= 3.24D-09 7.61D-06.
      3 vectors produced by pass 28 Test12= 8.66D-12 3.33D-08 XBig12= 4.36D-10 2.81D-06.
      3 vectors produced by pass 29 Test12= 8.66D-12 3.33D-08 XBig12= 7.82D-11 1.47D-06.
      3 vectors produced by pass 30 Test12= 8.66D-12 3.33D-08 XBig12= 1.41D-11 7.72D-07.
      3 vectors produced by pass 31 Test12= 8.66D-12 3.33D-08 XBig12= 1.68D-12 3.34D-07.
      3 vectors produced by pass 32 Test12= 8.66D-12 3.33D-08 XBig12= 3.44D-13 1.71D-07.
      2 vectors produced by pass 33 Test12= 8.66D-12 3.33D-08 XBig12= 6.05D-14 6.94D-08.
 InvSVY:  IOpt=1 It=  1 EMax= 3.55D-14
 Solved reduced A of dimension   101 with     3 vectors.
 Isotropic polarizability for W=    0.000000      632.26 Bohr**3.
 End of Minotr F.D. properties file   721 does not exist.
 End of Minotr F.D. properties file   722 does not exist.
 End of Minotr F.D. properties file   788 does not exist.

 **********************************************************************

            Population analysis using the SCF Density.

 **********************************************************************

 Orbital symmetries:
       Occupied  (A) (A) (A) (A) (A) (A) (A) (A) (A) (A) (A) (A)
                 (A) (A) (A) (A) (A) (A) (A) (A) (A) (A) (A) (A)
                 (A) (A) (A) (A) (A) (A) (A) (A) (A) (A) (A) (A)
                 (A) (A) (A) (A) (A) (A) (A) (A) (A) (A) (A) (A)
                 (A) (A) (A) (A) (A) (A) (A) (A) (A) (A) (A) (A)
                 (A) (A) (A) (A) (A) (A) (A) (A) (A) (A) (A) (A)
                 (A) (A) (A) (A) (A) (A) (A) (A) (A) (A) (A) (A)
                 (A) (A) (A) (A) (A) (A) (A) (A) (A) (A) (A) (A)
                 (A) (A) (A) (A) (A) (A) (A) (A) (A) (A) (A) (A)
                 (A) (A) (A) (A) (A) (A) (A) (A) (A) (A) (A) (A)
                 (A) (A) (A) (A) (A) (A) (A) (A) (A) (A) (A) (A)
                 (A) (A) (A) (A) (A) (A) (A) (A) (A) (A) (A) (A)
                 (A) (A) (A) (A) (A) (A) (A) (A) (A) (A) (A) (A)
                 (A) (A) (A) (A) (A) (A) (A) (A) (A) (A) (A) (A)
                 (A) (A) (A) (A) (A) (A)
       Virtual   (A) (A) (A) (A) (A) (A) (A) (A) (A) (A) (A) (A)
                 (A) (A) (A) (A) (A) (A) (A) (A) (A) (A) (A) (A)
                 (A) (A) (A) (A) (A) (A) (A) (A) (A) (A) (A) (A)
                 (A) (A) (A) (A) (A) (A) (A) (A) (A) (A) (A) (A)
                 (A) (A) (A) (A) (A) (A) (A) (A) (A) (A) (A) (A)
                 (A) (A) (A) (A) (A) (A) (A) (A) (A) (A) (A) (A)
                 (A) (A) (A) (A) (A) (A) (A) (A) (A) (A) (A) (A)
                 (A) (A) (A) (A) (A) (A) (A) (A) (A) (A) (A) (A)
                 (A) (A) (A) (A) (A) (A) (A) (A) (A) (A) (A) (A)
                 (A) (A) (A) (A) (A) (A) (A) (A) (A) (A) (A) (A)
                 (A) (A) (A) (A) (A) (A) (A) (A) (A) (A) (A) (A)
                 (A) (A) (A) (A) (A) (A) (A) (A) (A) (A) (A) (A)
                 (A) (A) (A) (A) (A) (A) (A) (A) (A) (A) (A) (A)
                 (A) (A) (A) (A) (A) (A) (A) (A) (A) (A) (A) (A)
                 (A) (A) (A) (A) (A) (A) (A) (A) (A) (A) (A) (A)
                 (A) (A) (A) (A) (A) (A) (A) (A) (A) (A) (A) (A)
                 (A) (A) (A) (A) (A) (A) (A) (A) (A) (A) (A) (A)
                 (A) (A) (A) (A) (A) (A) (A) (A) (A) (A) (A) (A)
                 (A) (A) (A) (A) (A) (A) (A) (A) (A) (A) (A) (A)
                 (A) (A) (A) (A) (A) (A) (A) (A) (A) (A) (A) (A)
                 (A) (A) (A) (A) (A) (A) (A) (A) (A) (A) (A) (A)
                 (A) (A) (A) (A) (A) (A) (A) (A) (A) (A) (A) (A)
                 (A) (A) (A) (A) (A) (A) (A) (A) (A) (A) (A) (A)
                 (A) (A) (A) (A) (A) (A) (A) (A) (A) (A) (A) (A)
                 (A) (A) (A) (A) (A) (A) (A) (A) (A) (A) (A) (A)
                 (A) (A) (A) (A) (A) (A) (A) (A) (A) (A) (A) (A)
                 (A) (A) (A) (A) (A) (A) (A) (A) (A) (A) (A) (A)
                 (A) (A) (A) (A) (A) (A) (A) (A) (A) (A) (A) (A)
                 (A) (A) (A) (A) (A) (A) (A) (A) (A) (A) (A) (A)
                 (A) (A) (A) (A) (A) (A) (A) (A) (A) (A) (A) (A)
                 (A) (A) (A) (A) (A) (A) (A) (A) (A) (A) (A) (A)
                 (A) (A) (A) (A) (A) (A) (A) (A) (A) (A) (A) (A)
                 (A) (A) (A) (A) (A) (A) (A) (A) (A) (A) (A) (A)
                 (A) (A) (A) (A) (A) (A) (A) (A) (A) (A) (A) (A)
                 (A) (A) (A) (A) (A) (A) (A) (A) (A) (A) (A) (A)
                 (A) (A) (A) (A) (A) (A) (A) (A) (A) (A) (A) (A)
                 (A) (A) (A) (A) (A) (A) (A) (A) (A) (A) (A) (A)
                 (A) (A) (A) (A) (A) (A) (A) (A) (A) (A) (A) (A)
                 (A) (A) (A) (A) (A) (A) (A) (A) (A) (A) (A) (A)
                 (A) (A) (A) (A) (A) (A) (A) (A) (A) (A) (A) (A)
                 (A) (A) (A) (A) (A) (A) (A) (A) (A) (A) (A) (A)
                 (A) (A) (A) (A) (A) (A) (A) (A) (A) (A) (A) (A)
                 (A) (A) (A) (A) (A) (A) (A) (A) (A) (A) (A) (A)
                 (A) (A) (A) (A) (A) (A) (A) (A) (A) (A) (A) (A)
                 (A) (A) (A) (A) (A) (A) (A) (A) (A) (A) (A) (A)
                 (A) (A) (A) (A) (A) (A) (A) (A) (A) (A) (A) (A)
                 (A) (A) (A) (A) (A) (A) (A) (A) (A) (A) (A) (A)
                 (A) (A) (A) (A) (A) (A) (A) (A) (A) (A) (A) (A)
                 (A) (A) (A) (A) (A) (A) (A) (A) (A) (A) (A) (A)
                 (A) (A) (A) (A) (A) (A) (A) (A) (A) (A) (A) (A)
                 (A) (A) (A) (A) (A) (A) (A) (A) (A) (A) (A) (A)
                 (A) (A) (A) (A) (A) (A) (A) (A) (A) (A) (A) (A)
                 (A) (A) (A) (A) (A) (A) (A) (A) (A) (A) (A) (A)
                 (A) (A) (A) (A) (A) (A) (A) (A) (A) (A) (A) (A)
                 (A) (A) (A) (A) (A) (A) (A) (A) (A) (A) (A) (A)
                 (A) (A) (A) (A) (A) (A) (A) (A) (A) (A) (A) (A)
                 (A) (A) (A) (A) (A) (A) (A) (A) (A) (A) (A) (A)
                 (A) (A) (A) (A) (A) (A) (A) (A) (A) (A) (A) (A)
                 (A) (A) (A) (A) (A) (A) (A) (A) (A) (A) (A) (A)
                 (A) (A) (A) (A) (A) (A) (A) (A) (A) (A) (A) (A)
                 (A) (A) (A) (A) (A) (A) (A) (A) (A) (A) (A) (A)
                 (A) (A) (A) (A) (A) (A) (A) (A) (A) (A) (A) (A)
                 (A) (A) (A) (A) (A) (A) (A) (A) (A) (A) (A) (A)
                 (A) (A) (A) (A) (A) (A) (A) (A) (A) (A) (A) (A)
                 (A) (A) (A) (A) (A) (A) (A) (A) (A) (A) (A) (A)
                 (A) (A) (A) (A) (A) (A) (A) (A) (A) (A) (A) (A)
                 (A) (A) (A) (A) (A) (A) (A) (A) (A) (A) (A) (A)
                 (A) (A) (A) (A) (A) (A) (A) (A) (A) (A) (A) (A)
                 (A) (A) (A) (A) (A) (A) (A) (A) (A) (A) (A) (A)
                 (A) (A) (A) (A) (A) (A) (A) (A) (A) (A) (A) (A)
                 (A) (A) (A) (A) (A) (A) (A) (A) (A) (A) (A) (A)
                 (A) (A) (A) (A) (A) (A) (A) (A) (A) (A) (A) (A)
                 (A) (A) (A) (A) (A) (A) (A) (A) (A) (A) (A) (A)
                 (A) (A) (A) (A) (A) (A) (A) (A) (A) (A) (A) (A)
                 (A) (A) (A) (A) (A) (A) (A) (A) (A) (A) (A) (A)
                 (A) (A) (A) (A) (A) (A) (A) (A) (A) (A) (A) (A)
                 (A) (A) (A) (A) (A) (A) (A) (A) (A) (A) (A) (A)
                 (A) (A) (A) (A) (A) (A) (A) (A) (A) (A) (A) (A)
                 (A) (A) (A) (A) (A) (A) (A) (A) (A) (A) (A) (A)
                 (A) (A) (A) (A) (A) (A) (A) (A) (A) (A) (A) (A)
                 (A) (A) (A) (A) (A) (A) (A) (A) (A) (A) (A) (A)
                 (A) (A) (A) (A) (A) (A) (A) (A) (A) (A) (A) (A)
                 (A) (A) (A) (A) (A) (A) (A) (A) (A) (A) (A) (A)
                 (A) (A) (A) (A) (A) (A) (A) (A) (A) (A) (A) (A)
                 (A) (A) (A) (A) (A) (A) (A) (A) (A) (A) (A) (A)
                 (A) (A) (A) (A) (A) (A) (A) (A) (A) (A) (A) (A)
                 (A) (A) (A) (A) (A) (A) (A) (A) (A) (A) (A) (A)
                 (A) (A) (A) (A) (A) (A) (A) (A) (A) (A) (A) (A)
                 (A) (A) (A) (A) (A) (A) (A) (A) (A) (A) (A) (A)
                 (A) (A) (A) (A) (A) (A) (A) (A) (A) (A) (A) (A)
                 (A) (A) (A) (A) (A) (A) (A) (A) (A) (A) (A) (A)
                 (A) (A) (A) (A) (A) (A) (A) (A) (A) (A) (A) (A)
                 (A) (A) (A) (A) (A) (A) (A) (A) (A) (A) (A) (A)
                 (A) (A) (A) (A) (A) (A) (A) (A) (A) (A) (A) (A)
                 (A) (A) (A) (A) (A) (A) (A) (A) (A) (A) (A) (A)
                 (A) (A) (A) (A) (A) (A) (A) (A) (A) (A) (A) (A)
                 (A) (A) (A) (A) (A) (A) (A) (A) (A) (A) (A) (A)
                 (A) (A) (A) (A) (A) (A) (A) (A) (A) (A) (A) (A)
                 (A) (A) (A) (A) (A) (A) (A) (A) (A) (A) (A) (A)
                 (A) (A) (A) (A) (A) (A) (A) (A) (A) (A) (A) (A)
                 (A) (A) (A) (A) (A) (A) (A) (A) (A) (A) (A) (A)
                 (A) (A) (A) (A) (A) (A) (A) (A) (A) (A) (A) (A)
                 (A) (A) (A) (A) (A) (A) (A) (A) (A) (A) (A) (A)
                 (A) (A) (A) (A) (A) (A) (A) (A) (A) (A) (A) (A)
                 (A) (A) (A) (A) (A) (A) (A) (A) (A) (A) (A) (A)
                 (A) (A) (A) (A) (A) (A) (A) (A) (A) (A) (A) (A)
                 (A) (A) (A) (A) (A) (A) (A) (A) (A) (A) (A) (A)
                 (A) (A) (A) (A) (A) (A) (A) (A) (A) (A) (A) (A)
                 (A) (A) (A) (A) (A) (A) (A) (A) (A) (A) (A) (A)
                 (A) (A) (A) (A) (A) (A) (A) (A) (A) (A) (A) (A)
                 (A) (A) (A) (A) (A) (A) (A) (A) (A) (A) (A) (A)
                 (A) (A) (A) (A) (A) (A) (A) (A) (A) (A) (A) (A)
                 (A) (A) (A) (A) (A) (A) (A) (A) (A) (A) (A) (A)
                 (A) (A) (A) (A) (A) (A) (A) (A) (A) (A) (A) (A)
                 (A) (A) (A) (A) (A) (A) (A) (A) (A) (A) (A) (A)
                 (A) (A) (A) (A) (A) (A) (A) (A) (A) (A) (A) (A)
                 (A) (A) (A) (A) (A) (A) (A) (A) (A) (A) (A) (A)
                 (A) (A) (A) (A) (A) (A) (A) (A) (A) (A) (A) (A)
                 (A) (A) (A) (A) (A) (A) (A) (A) (A) (A) (A) (A)
                 (A) (A) (A) (A) (A) (A) (A) (A) (A) (A) (A) (A)
                 (A) (A) (A) (A) (A) (A) (A) (A) (A) (A) (A) (A)
                 (A) (A) (A) (A) (A) (A) (A) (A) (A) (A) (A) (A)
                 (A) (A) (A) (A) (A) (A) (A) (A) (A) (A) (A) (A)
                 (A) (A) (A) (A) (A) (A) (A) (A) (A) (A) (A) (A)
                 (A) (A) (A) (A) (A)
 The electronic state is 1-A.
 Alpha  occ. eigenvalues -- -256.17161 -88.93644 -30.02109 -25.86185 -25.85946
 Alpha  occ. eigenvalues --  -25.85886 -14.41591 -14.35816 -14.32330 -14.32094
 Alpha  occ. eigenvalues --  -14.32025 -14.31924 -10.25710 -10.23783 -10.22023
 Alpha  occ. eigenvalues --  -10.21290 -10.20961 -10.20902 -10.20856 -10.20821
 Alpha  occ. eigenvalues --  -10.20735 -10.20621 -10.20598 -10.20542 -10.20514
 Alpha  occ. eigenvalues --  -10.20470 -10.20414 -10.20261 -10.20183 -10.20112
 Alpha  occ. eigenvalues --  -10.19996 -10.19843 -10.19789 -10.19514 -10.19412
 Alpha  occ. eigenvalues --  -10.19370 -10.19313 -10.19296 -10.19229 -10.19208
 Alpha  occ. eigenvalues --  -10.19154 -10.19046 -10.18970 -10.18759 -10.18604
 Alpha  occ. eigenvalues --  -10.18368 -10.18286 -10.17926 -10.17921  -7.96380
 Alpha  occ. eigenvalues --   -5.90983  -5.90677  -5.90124  -3.39582  -2.16083
 Alpha  occ. eigenvalues --   -2.15512  -2.15425  -1.05478  -0.97976  -0.97190
 Alpha  occ. eigenvalues --   -0.96859  -0.96128  -0.89827  -0.82005  -0.81819
 Alpha  occ. eigenvalues --   -0.81534  -0.80855  -0.80693  -0.80263  -0.79553
 Alpha  occ. eigenvalues --   -0.79459  -0.79156  -0.76340  -0.74165  -0.74094
 Alpha  occ. eigenvalues --   -0.73293  -0.72997  -0.72506  -0.71493  -0.70339
 Alpha  occ. eigenvalues --   -0.69422  -0.68220  -0.67887  -0.67196  -0.64502
 Alpha  occ. eigenvalues --   -0.64351  -0.64223  -0.64058  -0.61447  -0.61286
 Alpha  occ. eigenvalues --   -0.60686  -0.58089  -0.57164  -0.56545  -0.55681
 Alpha  occ. eigenvalues --   -0.55046  -0.53829  -0.53535  -0.51706  -0.51286
 Alpha  occ. eigenvalues --   -0.50901  -0.50418  -0.48335  -0.47916  -0.47732
 Alpha  occ. eigenvalues --   -0.47477  -0.47363  -0.46355  -0.45913  -0.45290
 Alpha  occ. eigenvalues --   -0.44781  -0.44487  -0.44156  -0.44030  -0.43758
 Alpha  occ. eigenvalues --   -0.43375  -0.43206  -0.42964  -0.42620  -0.42554
 Alpha  occ. eigenvalues --   -0.42381  -0.42090  -0.41900  -0.41592  -0.41426
 Alpha  occ. eigenvalues --   -0.41248  -0.41129  -0.40959  -0.40634  -0.40570
 Alpha  occ. eigenvalues --   -0.40094  -0.39845  -0.39636  -0.39179  -0.38995
 Alpha  occ. eigenvalues --   -0.38632  -0.38416  -0.38063  -0.37591  -0.37324
 Alpha  occ. eigenvalues --   -0.36892  -0.36631  -0.36484  -0.35979  -0.35593
 Alpha  occ. eigenvalues --   -0.35427  -0.34265  -0.33723  -0.33696  -0.33083
 Alpha  occ. eigenvalues --   -0.32514  -0.32245  -0.31913  -0.31667  -0.31066
 Alpha  occ. eigenvalues --   -0.30434  -0.29614  -0.28897  -0.28363  -0.27382
 Alpha  occ. eigenvalues --   -0.26929  -0.25790  -0.25117  -0.24587  -0.23882
 Alpha  occ. eigenvalues --   -0.22686  -0.21881  -0.21528  -0.20786  -0.18846
 Alpha  occ. eigenvalues --   -0.18751  -0.17480  -0.17190  -0.17170
 Alpha virt. eigenvalues --   -0.07289  -0.06983  -0.03483  -0.02521  -0.00490
 Alpha virt. eigenvalues --    0.01644   0.02011   0.03325   0.03665   0.03997
 Alpha virt. eigenvalues --    0.04729   0.04841   0.05109   0.05529   0.06164
 Alpha virt. eigenvalues --    0.06296   0.06364   0.06732   0.07238   0.07556
 Alpha virt. eigenvalues --    0.07726   0.07968   0.08030   0.08539   0.08617
 Alpha virt. eigenvalues --    0.08894   0.09012   0.09215   0.09413   0.09803
 Alpha virt. eigenvalues --    0.09983   0.10231   0.10336   0.10540   0.10596
 Alpha virt. eigenvalues --    0.10883   0.11212   0.11425   0.11455   0.11929
 Alpha virt. eigenvalues --    0.12013   0.12091   0.12392   0.12518   0.12908
 Alpha virt. eigenvalues --    0.13052   0.13304   0.13440   0.13829   0.13985
 Alpha virt. eigenvalues --    0.14153   0.14263   0.14420   0.14760   0.15067
 Alpha virt. eigenvalues --    0.15408   0.15617   0.15822   0.16032   0.16248
 Alpha virt. eigenvalues --    0.16742   0.16913   0.17065   0.17351   0.17517
 Alpha virt. eigenvalues --    0.18080   0.18287   0.18700   0.19035   0.19136
 Alpha virt. eigenvalues --    0.19327   0.19575   0.19614   0.19954   0.20075
 Alpha virt. eigenvalues --    0.20432   0.20630   0.20825   0.21343   0.21402
 Alpha virt. eigenvalues --    0.21552   0.21858   0.21945   0.22308   0.22408
 Alpha virt. eigenvalues --    0.22524   0.22845   0.23088   0.23347   0.23597
 Alpha virt. eigenvalues --    0.23790   0.24341   0.24478   0.24696   0.25167
 Alpha virt. eigenvalues --    0.25297   0.25480   0.25715   0.25723   0.25977
 Alpha virt. eigenvalues --    0.26163   0.26529   0.26921   0.27078   0.27211
 Alpha virt. eigenvalues --    0.27227   0.27394   0.27773   0.28271   0.28532
 Alpha virt. eigenvalues --    0.28804   0.29040   0.29089   0.29277   0.29703
 Alpha virt. eigenvalues --    0.29880   0.30320   0.30388   0.30597   0.30814
 Alpha virt. eigenvalues --    0.31040   0.31468   0.31592   0.32068   0.32318
 Alpha virt. eigenvalues --    0.32369   0.32825   0.33239   0.33399   0.33688
 Alpha virt. eigenvalues --    0.33935   0.34246   0.34445   0.34838   0.34905
 Alpha virt. eigenvalues --    0.35058   0.35632   0.35711   0.36156   0.36455
 Alpha virt. eigenvalues --    0.36868   0.36961   0.37069   0.37344   0.37476
 Alpha virt. eigenvalues --    0.37781   0.37981   0.38310   0.38497   0.38714
 Alpha virt. eigenvalues --    0.38978   0.39093   0.39424   0.39847   0.40251
 Alpha virt. eigenvalues --    0.40409   0.40460   0.40631   0.40782   0.41107
 Alpha virt. eigenvalues --    0.41268   0.41514   0.41624   0.41958   0.42288
 Alpha virt. eigenvalues --    0.42462   0.42695   0.42847   0.42872   0.43114
 Alpha virt. eigenvalues --    0.43125   0.43291   0.43609   0.43786   0.43941
 Alpha virt. eigenvalues --    0.44117   0.44188   0.44534   0.44612   0.44869
 Alpha virt. eigenvalues --    0.44944   0.45172   0.45272   0.45505   0.45679
 Alpha virt. eigenvalues --    0.46075   0.46218   0.46369   0.46529   0.46819
 Alpha virt. eigenvalues --    0.46888   0.47015   0.47228   0.47337   0.47577
 Alpha virt. eigenvalues --    0.47685   0.47830   0.48133   0.48395   0.48443
 Alpha virt. eigenvalues --    0.48507   0.48741   0.49039   0.49071   0.49350
 Alpha virt. eigenvalues --    0.49644   0.49787   0.50033   0.50160   0.50449
 Alpha virt. eigenvalues --    0.50613   0.50712   0.51181   0.51263   0.51432
 Alpha virt. eigenvalues --    0.51634   0.51768   0.52047   0.52098   0.52300
 Alpha virt. eigenvalues --    0.52589   0.52802   0.53091   0.53272   0.53734
 Alpha virt. eigenvalues --    0.53851   0.54073   0.54205   0.54432   0.54635
 Alpha virt. eigenvalues --    0.54687   0.54877   0.55115   0.55503   0.55704
 Alpha virt. eigenvalues --    0.55980   0.56188   0.56282   0.56694   0.56942
 Alpha virt. eigenvalues --    0.57110   0.57553   0.57636   0.57934   0.58569
 Alpha virt. eigenvalues --    0.58686   0.59108   0.59234   0.59480   0.59676
 Alpha virt. eigenvalues --    0.60055   0.60372   0.60686   0.60888   0.61617
 Alpha virt. eigenvalues --    0.61960   0.62114   0.62298   0.62761   0.62983
 Alpha virt. eigenvalues --    0.63150   0.63602   0.63945   0.64302   0.64924
 Alpha virt. eigenvalues --    0.65254   0.65290   0.65606   0.65930   0.66353
 Alpha virt. eigenvalues --    0.66537   0.66988   0.67312   0.67609   0.67974
 Alpha virt. eigenvalues --    0.68286   0.68758   0.68965   0.69083   0.69317
 Alpha virt. eigenvalues --    0.69862   0.69988   0.70380   0.70652   0.70803
 Alpha virt. eigenvalues --    0.71031   0.71337   0.71623   0.71697   0.71985
 Alpha virt. eigenvalues --    0.72426   0.72562   0.73283   0.73611   0.73996
 Alpha virt. eigenvalues --    0.74184   0.74349   0.74678   0.74983   0.75355
 Alpha virt. eigenvalues --    0.75681   0.75910   0.76088   0.76668   0.76805
 Alpha virt. eigenvalues --    0.77501   0.77559   0.77789   0.78418   0.78603
 Alpha virt. eigenvalues --    0.78913   0.79214   0.79435   0.79831   0.79933
 Alpha virt. eigenvalues --    0.80354   0.81051   0.81290   0.81547   0.82067
 Alpha virt. eigenvalues --    0.82637   0.82800   0.83095   0.83264   0.83931
 Alpha virt. eigenvalues --    0.84533   0.84680   0.84900   0.85571   0.85936
 Alpha virt. eigenvalues --    0.86163   0.86393   0.87062   0.87402   0.87744
 Alpha virt. eigenvalues --    0.87928   0.88158   0.88258   0.88928   0.89561
 Alpha virt. eigenvalues --    0.89700   0.90058   0.90392   0.90665   0.90862
 Alpha virt. eigenvalues --    0.91212   0.91555   0.91921   0.92099   0.92369
 Alpha virt. eigenvalues --    0.92750   0.93326   0.93392   0.93814   0.94021
 Alpha virt. eigenvalues --    0.94120   0.94463   0.94573   0.94772   0.95387
 Alpha virt. eigenvalues --    0.95615   0.95991   0.96010   0.96684   0.96850
 Alpha virt. eigenvalues --    0.97458   0.97636   0.97707   0.97888   0.98223
 Alpha virt. eigenvalues --    0.98483   0.98612   0.98708   0.99381   0.99654
 Alpha virt. eigenvalues --    0.99816   1.00132   1.00239   1.00709   1.01134
 Alpha virt. eigenvalues --    1.01360   1.01639   1.01882   1.02065   1.02080
 Alpha virt. eigenvalues --    1.02550   1.02891   1.03228   1.03590   1.03847
 Alpha virt. eigenvalues --    1.04433   1.04679   1.05166   1.05312   1.05347
 Alpha virt. eigenvalues --    1.05808   1.06294   1.06586   1.06746   1.07203
 Alpha virt. eigenvalues --    1.07407   1.07714   1.07956   1.08265   1.08749
 Alpha virt. eigenvalues --    1.09251   1.09467   1.10064   1.10294   1.10376
 Alpha virt. eigenvalues --    1.10903   1.11126   1.11297   1.11371   1.11989
 Alpha virt. eigenvalues --    1.12544   1.12963   1.13088   1.13789   1.14189
 Alpha virt. eigenvalues --    1.14465   1.15088   1.15814   1.16186   1.16618
 Alpha virt. eigenvalues --    1.16832   1.16916   1.17307   1.17708   1.18446
 Alpha virt. eigenvalues --    1.18575   1.19095   1.19373   1.19515   1.19922
 Alpha virt. eigenvalues --    1.20373   1.20602   1.21270   1.21558   1.21765
 Alpha virt. eigenvalues --    1.22249   1.22716   1.22894   1.23067   1.23294
 Alpha virt. eigenvalues --    1.23381   1.24011   1.24349   1.24551   1.24765
 Alpha virt. eigenvalues --    1.25241   1.25410   1.25951   1.26165   1.26450
 Alpha virt. eigenvalues --    1.27023   1.27256   1.27713   1.28241   1.28550
 Alpha virt. eigenvalues --    1.29206   1.29474   1.29825   1.29918   1.30349
 Alpha virt. eigenvalues --    1.30871   1.31828   1.32396   1.32467   1.32755
 Alpha virt. eigenvalues --    1.33211   1.33668   1.33884   1.34258   1.34714
 Alpha virt. eigenvalues --    1.35410   1.35847   1.36283   1.36557   1.37033
 Alpha virt. eigenvalues --    1.37896   1.38062   1.38409   1.38956   1.39592
 Alpha virt. eigenvalues --    1.40079   1.40483   1.41179   1.41821   1.42331
 Alpha virt. eigenvalues --    1.42511   1.43064   1.43761   1.44105   1.44481
 Alpha virt. eigenvalues --    1.45075   1.45328   1.45888   1.46242   1.46448
 Alpha virt. eigenvalues --    1.46924   1.47319   1.47783   1.48217   1.48718
 Alpha virt. eigenvalues --    1.48965   1.49139   1.49679   1.49930   1.50219
 Alpha virt. eigenvalues --    1.50418   1.50611   1.50891   1.51241   1.51554
 Alpha virt. eigenvalues --    1.51848   1.52139   1.52311   1.52755   1.53118
 Alpha virt. eigenvalues --    1.53231   1.53677   1.53847   1.54127   1.54278
 Alpha virt. eigenvalues --    1.54717   1.54940   1.55227   1.55630   1.55853
 Alpha virt. eigenvalues --    1.55918   1.56218   1.56452   1.56998   1.57342
 Alpha virt. eigenvalues --    1.57643   1.58016   1.58236   1.58476   1.58691
 Alpha virt. eigenvalues --    1.58783   1.59039   1.59317   1.59868   1.60133
 Alpha virt. eigenvalues --    1.60393   1.60576   1.61053   1.61739   1.61822
 Alpha virt. eigenvalues --    1.62117   1.62435   1.62790   1.63001   1.63299
 Alpha virt. eigenvalues --    1.63436   1.63663   1.63703   1.64313   1.64759
 Alpha virt. eigenvalues --    1.64935   1.65369   1.65848   1.65965   1.66087
 Alpha virt. eigenvalues --    1.66310   1.66884   1.67017   1.67155   1.67444
 Alpha virt. eigenvalues --    1.67742   1.68069   1.68519   1.68867   1.68997
 Alpha virt. eigenvalues --    1.69435   1.69473   1.69799   1.70486   1.70720
 Alpha virt. eigenvalues --    1.71001   1.71395   1.71429   1.71968   1.71987
 Alpha virt. eigenvalues --    1.72405   1.72952   1.73307   1.73957   1.74105
 Alpha virt. eigenvalues --    1.74537   1.74790   1.75340   1.75555   1.75836
 Alpha virt. eigenvalues --    1.76074   1.76667   1.76786   1.77227   1.77790
 Alpha virt. eigenvalues --    1.78010   1.78481   1.78782   1.79226   1.79436
 Alpha virt. eigenvalues --    1.80160   1.80705   1.80904   1.81427   1.81913
 Alpha virt. eigenvalues --    1.82200   1.82284   1.82716   1.83056   1.83413
 Alpha virt. eigenvalues --    1.83507   1.83683   1.84372   1.84613   1.85079
 Alpha virt. eigenvalues --    1.85382   1.86015   1.86091   1.86444   1.86785
 Alpha virt. eigenvalues --    1.87456   1.88135   1.88393   1.88827   1.89196
 Alpha virt. eigenvalues --    1.89466   1.89718   1.90189   1.90658   1.91202
 Alpha virt. eigenvalues --    1.91902   1.92413   1.92502   1.93225   1.93802
 Alpha virt. eigenvalues --    1.93996   1.94191   1.94594   1.95075   1.95409
 Alpha virt. eigenvalues --    1.95597   1.95875   1.96424   1.96817   1.97739
 Alpha virt. eigenvalues --    1.98167   1.98483   1.98587   1.99119   1.99279
 Alpha virt. eigenvalues --    1.99835   2.00534   2.00966   2.01104   2.01493
 Alpha virt. eigenvalues --    2.01815   2.02099   2.02472   2.02749   2.03050
 Alpha virt. eigenvalues --    2.03296   2.03581   2.03928   2.04307   2.04746
 Alpha virt. eigenvalues --    2.05397   2.05716   2.06011   2.06081   2.06660
 Alpha virt. eigenvalues --    2.06992   2.07134   2.07277   2.07787   2.08546
 Alpha virt. eigenvalues --    2.09065   2.09308   2.09834   2.10063   2.10582
 Alpha virt. eigenvalues --    2.11019   2.11253   2.11501   2.11682   2.12137
 Alpha virt. eigenvalues --    2.12303   2.12936   2.12953   2.13460   2.13750
 Alpha virt. eigenvalues --    2.14372   2.14762   2.15014   2.15277   2.15797
 Alpha virt. eigenvalues --    2.16131   2.16444   2.16943   2.17141   2.17934
 Alpha virt. eigenvalues --    2.18276   2.18513   2.18662   2.19554   2.19817
 Alpha virt. eigenvalues --    2.20360   2.20599   2.21414   2.21632   2.21827
 Alpha virt. eigenvalues --    2.22709   2.23113   2.23317   2.24107   2.24416
 Alpha virt. eigenvalues --    2.24669   2.25080   2.26031   2.26209   2.26670
 Alpha virt. eigenvalues --    2.27034   2.27592   2.27822   2.28563   2.28678
 Alpha virt. eigenvalues --    2.28990   2.29915   2.30402   2.30892   2.31076
 Alpha virt. eigenvalues --    2.31145   2.31808   2.32074   2.32557   2.32878
 Alpha virt. eigenvalues --    2.33118   2.33746   2.33930   2.34064   2.34626
 Alpha virt. eigenvalues --    2.35319   2.35479   2.35910   2.36001   2.36677
 Alpha virt. eigenvalues --    2.36983   2.37450   2.37595   2.37804   2.38138
 Alpha virt. eigenvalues --    2.38661   2.39148   2.39350   2.39887   2.40718
 Alpha virt. eigenvalues --    2.40934   2.41578   2.42131   2.42636   2.43007
 Alpha virt. eigenvalues --    2.43409   2.43701   2.44493   2.44633   2.44787
 Alpha virt. eigenvalues --    2.45481   2.45890   2.46301   2.46812   2.46992
 Alpha virt. eigenvalues --    2.47676   2.47988   2.48681   2.49229   2.49348
 Alpha virt. eigenvalues --    2.49894   2.50291   2.50507   2.51137   2.51524
 Alpha virt. eigenvalues --    2.51761   2.51907   2.52223   2.52742   2.52936
 Alpha virt. eigenvalues --    2.53244   2.53546   2.53613   2.54238   2.54413
 Alpha virt. eigenvalues --    2.54617   2.54908   2.55305   2.55352   2.55807
 Alpha virt. eigenvalues --    2.56297   2.56488   2.56974   2.57098   2.57372
 Alpha virt. eigenvalues --    2.57633   2.58182   2.58344   2.58477   2.58937
 Alpha virt. eigenvalues --    2.59415   2.59717   2.59852   2.60123   2.60304
 Alpha virt. eigenvalues --    2.60964   2.61134   2.61337   2.61593   2.61781
 Alpha virt. eigenvalues --    2.62591   2.62749   2.62802   2.63183   2.63496
 Alpha virt. eigenvalues --    2.63746   2.63992   2.64534   2.64660   2.64890
 Alpha virt. eigenvalues --    2.65510   2.65709   2.66280   2.66552   2.66947
 Alpha virt. eigenvalues --    2.67357   2.67833   2.68287   2.68496   2.68876
 Alpha virt. eigenvalues --    2.69264   2.69516   2.70329   2.70565   2.70761
 Alpha virt. eigenvalues --    2.70906   2.71379   2.71510   2.72209   2.72475
 Alpha virt. eigenvalues --    2.73176   2.73541   2.74177   2.74833   2.74915
 Alpha virt. eigenvalues --    2.75443   2.75727   2.76502   2.76657   2.76945
 Alpha virt. eigenvalues --    2.77158   2.77763   2.78005   2.78378   2.78534
 Alpha virt. eigenvalues --    2.79131   2.79304   2.79676   2.80172   2.80868
 Alpha virt. eigenvalues --    2.81158   2.81453   2.82007   2.82356   2.82412
 Alpha virt. eigenvalues --    2.82872   2.83084   2.83285   2.83545   2.84168
 Alpha virt. eigenvalues --    2.84435   2.84760   2.85038   2.85585   2.85790
 Alpha virt. eigenvalues --    2.86162   2.87019   2.87721   2.87907   2.88060
 Alpha virt. eigenvalues --    2.88868   2.89397   2.89549   2.89999   2.90167
 Alpha virt. eigenvalues --    2.90642   2.91286   2.91634   2.92003   2.92636
 Alpha virt. eigenvalues --    2.93062   2.93165   2.93648   2.94021   2.94294
 Alpha virt. eigenvalues --    2.94688   2.94886   2.95877   2.96194   2.96879
 Alpha virt. eigenvalues --    2.97020   2.97522   2.97736   2.98205   2.98355
 Alpha virt. eigenvalues --    2.99004   3.00012   3.00137   3.00451   3.01305
 Alpha virt. eigenvalues --    3.01470   3.01850   3.02138   3.02371   3.02444
 Alpha virt. eigenvalues --    3.02704   3.03176   3.03517   3.03565   3.04237
 Alpha virt. eigenvalues --    3.04423   3.05337   3.05589   3.05934   3.06179
 Alpha virt. eigenvalues --    3.06457   3.06576   3.07107   3.07582   3.07713
 Alpha virt. eigenvalues --    3.08056   3.08238   3.08688   3.08996   3.09259
 Alpha virt. eigenvalues --    3.09482   3.09637   3.09706   3.10155   3.10487
 Alpha virt. eigenvalues --    3.10538   3.10858   3.11052   3.11320   3.11476
 Alpha virt. eigenvalues --    3.11823   3.11967   3.12252   3.12792   3.12965
 Alpha virt. eigenvalues --    3.13215   3.13441   3.13480   3.14006   3.14113
 Alpha virt. eigenvalues --    3.14366   3.14929   3.15163   3.15283   3.15431
 Alpha virt. eigenvalues --    3.15651   3.15925   3.16229   3.16289   3.16689
 Alpha virt. eigenvalues --    3.17363   3.17576   3.17904   3.18148   3.18459
 Alpha virt. eigenvalues --    3.18814   3.19100   3.19291   3.19551   3.20103
 Alpha virt. eigenvalues --    3.20376   3.20838   3.21025   3.21170   3.21938
 Alpha virt. eigenvalues --    3.22033   3.22115   3.22563   3.22828   3.22937
 Alpha virt. eigenvalues --    3.23151   3.23252   3.23742   3.24003   3.24166
 Alpha virt. eigenvalues --    3.24442   3.24725   3.24906   3.25407   3.25614
 Alpha virt. eigenvalues --    3.25826   3.26361   3.26402   3.26628   3.27011
 Alpha virt. eigenvalues --    3.27029   3.27409   3.27823   3.27888   3.28089
 Alpha virt. eigenvalues --    3.28529   3.28767   3.28990   3.29419   3.29636
 Alpha virt. eigenvalues --    3.30101   3.30222   3.30577   3.30950   3.31038
 Alpha virt. eigenvalues --    3.31301   3.31507   3.31597   3.32297   3.32492
 Alpha virt. eigenvalues --    3.32646   3.33024   3.33492   3.33593   3.33928
 Alpha virt. eigenvalues --    3.34224   3.34367   3.34632   3.34874   3.35400
 Alpha virt. eigenvalues --    3.36018   3.36064   3.36381   3.36763   3.37216
 Alpha virt. eigenvalues --    3.37435   3.37657   3.37755   3.38192   3.38299
 Alpha virt. eigenvalues --    3.38414   3.39152   3.39432   3.39815   3.39895
 Alpha virt. eigenvalues --    3.40364   3.40590   3.40648   3.41264   3.41471
 Alpha virt. eigenvalues --    3.41702   3.42258   3.42329   3.42469   3.43113
 Alpha virt. eigenvalues --    3.43463   3.43591   3.43645   3.43921   3.44458
 Alpha virt. eigenvalues --    3.44651   3.44814   3.45230   3.45930   3.45998
 Alpha virt. eigenvalues --    3.46090   3.46412   3.47192   3.47605   3.47848
 Alpha virt. eigenvalues --    3.48195   3.48392   3.48834   3.49069   3.49269
 Alpha virt. eigenvalues --    3.49790   3.49840   3.50026   3.50509   3.50744
 Alpha virt. eigenvalues --    3.51071   3.51194   3.52063   3.52503   3.52911
 Alpha virt. eigenvalues --    3.53154   3.53607   3.53729   3.53945   3.54497
 Alpha virt. eigenvalues --    3.54980   3.55118   3.55382   3.55938   3.56163
 Alpha virt. eigenvalues --    3.56815   3.57325   3.57850   3.58061   3.58188
 Alpha virt. eigenvalues --    3.59076   3.59823   3.60023   3.60428   3.61042
 Alpha virt. eigenvalues --    3.61117   3.61648   3.61931   3.62828   3.63423
 Alpha virt. eigenvalues --    3.64003   3.64156   3.64381   3.64591   3.65242
 Alpha virt. eigenvalues --    3.65661   3.65879   3.66550   3.66914   3.67266
 Alpha virt. eigenvalues --    3.67716   3.67854   3.68328   3.68518   3.68929
 Alpha virt. eigenvalues --    3.69528   3.69617   3.70230   3.70316   3.70632
 Alpha virt. eigenvalues --    3.71274   3.71481   3.71850   3.72280   3.72913
 Alpha virt. eigenvalues --    3.73370   3.74014   3.74755   3.75216   3.75708
 Alpha virt. eigenvalues --    3.76152   3.76517   3.77155   3.77651   3.77964
 Alpha virt. eigenvalues --    3.78476   3.79054   3.79850   3.79931   3.80394
 Alpha virt. eigenvalues --    3.80940   3.81390   3.81603   3.81770   3.82149
 Alpha virt. eigenvalues --    3.82555   3.83154   3.83817   3.84108   3.84534
 Alpha virt. eigenvalues --    3.85227   3.86065   3.86286   3.86643   3.87408
 Alpha virt. eigenvalues --    3.87916   3.88446   3.88901   3.89268   3.89635
 Alpha virt. eigenvalues --    3.90172   3.90517   3.90958   3.91460   3.92295
 Alpha virt. eigenvalues --    3.93826   3.93940   3.94137   3.95137   3.95465
 Alpha virt. eigenvalues --    3.95766   3.96276   3.96525   3.97506   3.97646
 Alpha virt. eigenvalues --    3.99135   4.00050   4.00784   4.00878   4.01483
 Alpha virt. eigenvalues --    4.02086   4.02487   4.02740   4.03672   4.04322
 Alpha virt. eigenvalues --    4.05057   4.05767   4.05906   4.06388   4.06642
 Alpha virt. eigenvalues --    4.07553   4.07825   4.08850   4.08885   4.09427
 Alpha virt. eigenvalues --    4.09726   4.10401   4.11129   4.11658   4.11973
 Alpha virt. eigenvalues --    4.13139   4.13443   4.14086   4.15159   4.15811
 Alpha virt. eigenvalues --    4.16699   4.16925   4.17079   4.18039   4.18218
 Alpha virt. eigenvalues --    4.18838   4.19242   4.19751   4.20130   4.21138
 Alpha virt. eigenvalues --    4.21695   4.21979   4.22772   4.23361   4.23599
 Alpha virt. eigenvalues --    4.24082   4.24393   4.24856   4.24900   4.25695
 Alpha virt. eigenvalues --    4.25946   4.26874   4.27464   4.27927   4.28385
 Alpha virt. eigenvalues --    4.29316   4.30206   4.30406   4.31109   4.31719
 Alpha virt. eigenvalues --    4.32016   4.32368   4.32983   4.33617   4.34003
 Alpha virt. eigenvalues --    4.34123   4.34354   4.34749   4.35122   4.35307
 Alpha virt. eigenvalues --    4.35604   4.36313   4.36507   4.36708   4.37067
 Alpha virt. eigenvalues --    4.37495   4.38033   4.38599   4.38638   4.39073
 Alpha virt. eigenvalues --    4.39426   4.39790   4.40476   4.41040   4.41209
 Alpha virt. eigenvalues --    4.42182   4.42530   4.42830   4.43427   4.43994
 Alpha virt. eigenvalues --    4.44971   4.45371   4.46511   4.47744   4.48232
 Alpha virt. eigenvalues --    4.48890   4.49869   4.50167   4.51022   4.52123
 Alpha virt. eigenvalues --    4.52461   4.53456   4.54790   4.56162   4.56989
 Alpha virt. eigenvalues --    4.57603   4.57746   4.58579   4.59277   4.59940
 Alpha virt. eigenvalues --    4.60297   4.61295   4.62352   4.63000   4.63713
 Alpha virt. eigenvalues --    4.64075   4.64996   4.65588   4.66453   4.67113
 Alpha virt. eigenvalues --    4.68841   4.69883   4.70341   4.70549   4.72294
 Alpha virt. eigenvalues --    4.72690   4.73160   4.74249   4.74332   4.74896
 Alpha virt. eigenvalues --    4.75380   4.77069   4.78167   4.79011   4.79894
 Alpha virt. eigenvalues --    4.80905   4.81125   4.81382   4.82405   4.83082
 Alpha virt. eigenvalues --    4.83839   4.84748   4.85961   4.86542   4.86939
 Alpha virt. eigenvalues --    4.88110   4.89054   4.89827   4.91490   4.92482
 Alpha virt. eigenvalues --    4.93015   4.93447   4.93743   4.94675   4.95725
 Alpha virt. eigenvalues --    4.96747   4.97232   4.97841   4.99146   4.99697
 Alpha virt. eigenvalues --    5.00754   5.01844   5.02141   5.03135   5.03532
 Alpha virt. eigenvalues --    5.04429   5.05054   5.06001   5.06146   5.06703
 Alpha virt. eigenvalues --    5.08395   5.09544   5.10506   5.11268   5.12130
 Alpha virt. eigenvalues --    5.12189   5.12498   5.13550   5.15265   5.15774
 Alpha virt. eigenvalues --    5.16767   5.17559   5.19305   5.20134   5.20639
 Alpha virt. eigenvalues --    5.22889   5.24341   5.24588   5.25965   5.27413
 Alpha virt. eigenvalues --    5.28558   5.30650   5.32045   5.33896   5.36124
 Alpha virt. eigenvalues --    5.37897   5.38935   5.39824   5.40722   5.41328
 Alpha virt. eigenvalues --    5.42165   5.42836   5.44091   5.44344   5.44434
 Alpha virt. eigenvalues --    5.45460   5.46258   5.47587   5.48000   5.52367
 Alpha virt. eigenvalues --    5.53871   5.55115   5.55994   5.56993   5.59048
 Alpha virt. eigenvalues --    5.59734   5.61378   5.63708   5.64193   5.65768
 Alpha virt. eigenvalues --    5.66555   5.67528   5.69858   5.70208   5.71591
 Alpha virt. eigenvalues --    5.74100   5.75500   5.77939   5.80338   5.83004
 Alpha virt. eigenvalues --    5.85372   5.88008   5.89093   5.91685   5.97444
 Alpha virt. eigenvalues --    5.98806   5.99991   6.01406   6.04023   6.05215
 Alpha virt. eigenvalues --    6.06556   6.13768   6.15327   6.15933   6.17669
 Alpha virt. eigenvalues --    6.18236   6.25079   6.27095   6.37799   6.41278
 Alpha virt. eigenvalues --    6.47832   9.26865   9.52171   9.64299  20.21807
 Alpha virt. eigenvalues --   22.14506  22.19405  22.30318  22.31643  22.31846
 Alpha virt. eigenvalues --   22.35281  22.36265  22.37526  22.40043  22.43191
 Alpha virt. eigenvalues --   22.45183  22.46233  22.60035  22.63063  22.77502
 Alpha virt. eigenvalues --   22.85705  22.88125  22.92413  22.93111  22.97870
 Alpha virt. eigenvalues --   22.98893  23.04680  23.06536  23.08863  23.24981
 Alpha virt. eigenvalues --   23.36399  23.36836  23.40443  23.41780  23.47172
 Alpha virt. eigenvalues --   23.47748  23.52225  23.57935  23.71843  23.85803
 Alpha virt. eigenvalues --   23.86850  23.98956  32.44538  32.76729  32.98781
 Alpha virt. eigenvalues --   33.04524  33.10184  33.12662
          Condensed to atoms (all electrons):
 Mulliken charges:
               1
     1  Fe  -0.340444
     2  N   -0.035262
     3  N    0.007679
     4  N   -0.033723
     5  N   -0.018050
     6  C    0.125323
     7  C    0.015306
     8  C   -0.019439
     9  C    0.215573
    10  C    0.197683
    11  C   -0.092904
    12  C   -0.086922
    13  C    0.216845
    14  C    0.287296
    15  C    0.054760
    16  C   -0.016372
    17  C    0.223753
    18  C    0.021113
    19  C    0.130810
    20  C   -0.100788
    21  C    0.231940
    22  C   -0.375792
    23  H    0.121133
    24  C   -0.422371
    25  H    0.128077
    26  C   -0.452811
    27  H    0.094654
    28  C   -0.507214
    29  H    0.152554
    30  C   -0.424748
    31  H    0.124240
    32  H    0.141984
    33  H    0.137645
    34  C   -0.436165
    35  H    0.133057
    36  H    0.131387
    37  H    0.139894
    38  C   -0.369121
    39  H    0.129072
    40  H    0.151558
    41  H    0.131800
    42  C   -0.255930
    43  H    0.113843
    44  C   -0.282951
    45  H    0.134957
    46  H    0.129238
    47  C   -0.430641
    48  H    0.136826
    49  H    0.144081
    50  H    0.151647
    51  C   -0.249126
    52  H    0.120207
    53  C   -0.291116
    54  H    0.143781
    55  H    0.132405
    56  C   -0.395712
    57  H    0.124384
    58  H    0.150257
    59  H    0.125746
    60  C   -0.407026
    61  H    0.127323
    62  H    0.125171
    63  H    0.145542
    64  C   -0.392001
    65  H    0.147726
    66  H    0.134671
    67  H    0.135135
    68  N   -0.215920
    69  H    0.225433
    70  C    0.163942
    71  C    0.010736
    72  H    0.173514
    73  N    0.045229
    74  C   -0.192796
    75  H    0.155154
    76  C   -0.362827
    77  H    0.133605
    78  H    0.125241
    79  H    0.117959
    80  C   -0.178033
    81  H    0.131858
    82  H    0.118342
    83  S    0.061166
    84  C   -0.387764
    85  H    0.147169
    86  H    0.142387
    87  H    0.154157
 Sum of Mulliken charges =  -0.00000
 Mulliken charges with hydrogens summed into heavy atoms:
               1
     1  Fe  -0.340444
     2  N   -0.035262
     3  N    0.007679
     4  N   -0.033723
     5  N   -0.018050
     6  C    0.125323
     7  C    0.015306
     8  C   -0.019439
     9  C    0.215573
    10  C    0.197683
    11  C   -0.092904
    12  C   -0.086922
    13  C    0.216845
    14  C    0.287296
    15  C    0.054760
    16  C   -0.016372
    17  C    0.223753
    18  C    0.021113
    19  C    0.130810
    20  C   -0.100788
    21  C    0.231940
    22  C   -0.254659
    24  C   -0.294293
    26  C   -0.358156
    28  C   -0.354660
    30  C   -0.020880
    34  C   -0.031827
    38  C    0.043309
    42  C   -0.142087
    44  C   -0.018757
    47  C    0.001913
    51  C   -0.128919
    53  C   -0.014930
    56  C    0.004675
    60  C   -0.008990
    64  C    0.025531
    68  N    0.009513
    70  C    0.163942
    71  C    0.184250
    73  N    0.045229
    74  C   -0.037642
    76  C    0.013978
    80  C    0.072166
    83  S    0.061166
    84  C    0.055948
 Electronic spatial extent (au):  <R**2>=          21662.8317
 Charge=             -0.0000 electrons
 Dipole moment (field-independent basis, Debye):
    X=              0.0832    Y=             -1.7142    Z=              4.1694  Tot=              4.5088
 Quadrupole moment (field-independent basis, Debye-Ang):
   XX=           -268.1584   YY=           -275.1217   ZZ=           -248.6773
   XY=              0.5937   XZ=              1.2136   YZ=             -6.3023
 Traceless Quadrupole moment (field-independent basis, Debye-Ang):
   XX=             -4.1726   YY=            -11.1359   ZZ=             15.3085
   XY=              0.5937   XZ=              1.2136   YZ=             -6.3023
 Octapole moment (field-independent basis, Debye-Ang**2):
  XXX=             -2.8045  YYY=            -80.3381  ZZZ=            129.2622  XYY=              2.2579
  XXY=            -18.5982  XXZ=             17.0560  XZZ=              0.7901  YZZ=            -23.5415
  YYZ=              0.2975  XYZ=             15.9017
 Hexadecapole moment (field-independent basis, Debye-Ang**3):
 XXXX=         -12699.8777 YYYY=         -11749.8313 ZZZZ=          -4402.8675 XXXY=           -130.1762
 XXXZ=             -0.8467 YYYX=            -32.0777 YYYZ=           -103.0345 ZZZX=             22.5625
 ZZZY=           -127.6258 XXYY=          -4072.8754 XXZZ=          -3021.5215 YYZZ=          -2944.3121
 XXYZ=             52.1505 YYXZ=             94.7475 ZZXY=             24.1510
 N-N= 7.142940796229D+03 E-N=-2.234092127942D+04  KE= 3.412304105642D+03
  Exact polarizability:     758.916      -8.569     738.654     -19.305     -13.659     399.222
 Approx polarizability:    1458.953      -6.801    1443.177     -54.241     -36.173     642.444

 ----------------------------------------------------------------------

 Electric dipole moment (input orientation):
 (Debye = 10**-18 statcoulomb cm , SI units = C m)
                  (au)            (Debye)         (10**-30 SI)
   Tot        0.177389D+01      0.450878D+01      0.150397D+02
   x         -0.639424D+00     -0.162525D+01     -0.542126D+01
   y         -0.158324D+01     -0.402420D+01     -0.134233D+02
   z          0.480805D+00      0.122209D+01      0.407644D+01

 Dipole polarizability, Alpha (input orientation).
 (esu units = cm**3 , SI units = C**2 m**2 J**-1)
 Alpha(0;0):
               (au)            (10**-24 esu)      (10**-40 SI)
   iso        0.632264D+03      0.936918D+02      0.104246D+03
   aniso      0.352705D+03      0.522654D+02      0.581531D+02
   xx         0.738390D+03      0.109418D+03      0.121744D+03
   yx        -0.165360D+01     -0.245038D+00     -0.272642D+00
   yy         0.486358D+03      0.720709D+02      0.801897D+02
   zx        -0.661409D+01     -0.980107D+00     -0.109052D+01
   zy         0.156056D+03      0.231252D+02      0.257302D+02
   zz         0.672043D+03      0.995865D+02      0.110805D+03

 First dipole hyperpolarizability, Beta (input orientation).
 ||, _|_  parallel and perpendicular components, (z) with respect to z axis,
 vector components x,y,z.  Values do not include the 1/n! factor of 1/2.
 (esu units = statvolt**-1 cm**4 , SI units = C**3 m**3 J**-2)
 Beta(0;0,0):
               (au)            (10**-30 esu)      (10**-50 SI)
   || (z)    -0.273642D+02     -0.236405D+00     -0.877395D-01
   _|_(z)    -0.912139D+01     -0.788017D-01     -0.292465D-01
   x          0.729842D+04      0.630527D+02      0.234014D+02
   y         -0.128158D+01     -0.110719D-01     -0.410921D-02
   z         -0.136821D+03     -0.118203D+01     -0.438697D+00
   ||         0.145994D+04      0.126128D+02      0.468110D+01
   xxx        0.140687D+04      0.121543D+02      0.451093D+01
   xxy       -0.571940D+02     -0.494112D+00     -0.183385D+00
   yxy        0.125475D+03      0.108401D+01      0.402318D+00
   yyy       -0.941695D+02     -0.813551D+00     -0.301942D+00
   xxz       -0.555509D+03     -0.479917D+01     -0.178116D+01
   yxz        0.279267D+03      0.241265D+01      0.895432D+00
   yyz        0.214552D+03      0.185356D+01      0.687930D+00
   zxz        0.900463D+03      0.777930D+01      0.288721D+01
   zyz        0.150936D+03      0.130397D+01      0.483957D+00
   zzz        0.295351D+03      0.255160D+01      0.947002D+00

 ----------------------------------------------------------------------

 Dipole orientation:
    26         31.03045401          5.56807003        -58.22205191
     7         28.09044639          3.43643650        -56.86542448
     7         28.88746164          8.82538461        -57.87810443
     7         33.85618666          7.76247724        -59.78679568
     7         33.15344766          2.39757545        -58.81832014
     6         28.18951320          0.95862585        -56.40958177
     6         25.89229095          0.08296837        -55.51877296
     6         24.32148558          2.19758813        -55.48469786
     6         25.74649611          4.22461054        -56.31568748
     6         26.46943217          8.92630278        -57.11416019
     6         25.67398062         11.44381669        -57.02561000
     6         27.79524272         12.91218883        -57.61227998
     6         29.69230238         11.20356349        -58.18309628
     6         34.13003813         10.30762139        -59.69140365
     6         36.49314609         11.04533203        -60.57813287
     6         37.71492805          8.81898233        -61.33487915
     6         36.02449413          6.87343851        -60.76083021
     6         35.32646601          2.21120125        -60.09054375
     6         36.16080349         -0.27149076        -60.10145376
     6         34.45967873         -1.63877251        -58.64946464
     6         32.61406624          0.10427953        -57.93274816
     6         30.45758180         -0.43912674        -56.46862670
     1         30.55229742         -2.10584066        -55.26158014
     6         24.96391026          6.78677914        -56.61439404
     1         22.94348204          7.13498629        -56.43357023
     6         32.13160544         11.86330988        -58.91442947
     1         32.54850557         13.87937839        -58.87761665
     6         36.55928118          4.28191205        -61.20022491
     1         38.07413632          3.85774033        -62.52922276
     6         25.40208535         -2.61208749        -54.65849238
     1         27.03093403         -2.74874252        -53.34189635
     1         25.91132661         -3.54504850        -56.46769841
     1         23.74685356         -3.57298650        -53.79696138
     6         21.52976873          2.29762585        -54.70195402
     1         20.80764769          3.10967547        -56.49926138
     1         21.77201110          3.84588159        -53.30375290
     1         20.14414954          0.89248018        -53.98410937
     6         34.47015802         -4.37392863        -57.77221282
     1         34.41359958         -5.11639858        -59.73510733
     1         33.54690642         -5.75930833        -56.49334532
     1         36.47328219         -4.09905274        -57.20692024
     6         38.34637340         -1.20586807        -61.30472174
     1         40.19600878         -1.05847673        -60.40833451
     6         38.16414863         -3.55501898        -62.76694393
     1         36.42335850         -4.02174581        -63.80234449
     1         39.76615168         -4.87710859        -62.84470414
     6         40.29454103          8.44186935        -62.62433069
     1         39.63319258          7.49980157        -64.38061702
     1         40.95804000          6.97628276        -61.27427616
     1         41.86959892          9.74422248        -63.10224155
     6         37.52811353         13.50892850        -60.62683138
     1         36.93474108         14.51198890        -58.92959705
     6         38.39634729         14.67985200        -63.00878504
     1         38.95683215         13.49583298        -64.62416340
     1         38.49217543         16.74695715        -63.19410336
     6         27.86819574         15.78199195        -57.70524567
     1         26.13198425         15.85661329        -58.88394897
     1         29.15390746         17.33801856        -58.28507524
     1         27.33165257         16.00863644        -55.68824885
     6         23.05351648         12.53587631        -56.41857328
     1         22.91277635         13.61066790        -58.21582479
     1         23.78866061         13.80798517        -54.91994417
     1         21.14558037         11.83615659        -55.89276258
     6         37.39558505          4.93492086        -49.89823837
     1         38.96351291          4.12051621        -51.03073188
     1         36.83502894          3.55225797        -48.42043972
     1         38.05513804          6.71483508        -49.00212376
     7         32.93763730          6.52519658        -50.76794173
     1         32.59976055          7.00369119        -48.97296924
     6         35.17282872          5.47979934        -51.60190473
     6         31.33142999          6.79452091        -52.67701022
     1         29.43318025          7.57213060        -52.52486804
     7         32.47350728          5.95270666        -54.73554822
     6         34.86566818          5.12673292        -54.11638454
     1         36.12611886          4.36292649        -55.53644918
     6         27.22859807          9.36461792        -64.00825567
     1         28.06213522         10.93877593        -62.89606496
     1         25.55105882          8.63336316        -62.98083800
     1         26.64261399         10.10487257        -65.88266623
     6         29.16704040          7.25804845        -64.34860085
     1         31.08888363          8.09808312        -64.28823521
     1         28.88721607          6.38612246        -66.23668337
    16         28.88620802          4.87599368        -61.93893147
     6         30.13038138          2.17449925        -63.55921778
     1         32.17124436          2.41635517        -63.98815259
     1         29.11451601          1.88650211        -65.37334429
     1         29.91617418          0.45670776        -62.37273208

 Electric dipole moment (dipole orientation):
 (Debye = 10**-18 statcoulomb cm , SI units = C m)
                  (au)            (Debye)         (10**-30 SI)
   Tot        0.177389D+01      0.450878D+01      0.150397D+02
   x          0.000000D+00      0.000000D+00      0.000000D+00
   y          0.000000D+00      0.000000D+00      0.000000D+00
   z          0.177389D+01      0.450878D+01      0.150397D+02

 Dipole polarizability, Alpha (dipole orientation).
 (esu units = cm**3 , SI units = C**2 m**2 J**-1)
 Alpha(0;0):
               (au)            (10**-24 esu)      (10**-40 SI)
   iso        0.632264D+03      0.936918D+02      0.104246D+03
   aniso      0.352705D+03      0.522654D+02      0.581531D+02
   xx         0.681616D+03      0.101005D+03      0.112383D+03
   yx        -0.171470D+02     -0.254093D+01     -0.282716D+01
   yy         0.757705D+03      0.112280D+03      0.124929D+03
   zx        -0.123909D+03     -0.183614D+02     -0.204298D+02
   zy        -0.381800D+02     -0.565769D+01     -0.629502D+01
   zz         0.457471D+03      0.677902D+02      0.754268D+02

 First dipole hyperpolarizability, Beta (dipole orientation).
 ||, _|_  parallel and perpendicular components, (z) with respect to z axis,
 vector components x,y,z.  Values do not include the 1/n! factor of 1/2.
 (esu units = statvolt**-1 cm**4 , SI units = C**3 m**3 J**-2)
 Beta(0;0,0):
               (au)            (10**-30 esu)      (10**-50 SI)
   || (z)    -0.533352D+03     -0.460774D+01     -0.171012D+01
   _|_(z)    -0.177784D+03     -0.153591D+01     -0.570040D+00
   x          0.650334D+04      0.561838D+02      0.208521D+02
   y         -0.196995D+04     -0.170188D+02     -0.631636D+01
   z         -0.266676D+04     -0.230387D+02     -0.855059D+01
   ||         0.145994D+04      0.126128D+02      0.468110D+01
   xxx        0.783692D+03      0.677049D+01      0.251280D+01
   xxy       -0.172704D+03     -0.149203D+01     -0.553752D+00
   yxy        0.107159D+04      0.925771D+01      0.343591D+01
   yyy       -0.401699D+03     -0.347037D+01     -0.128799D+01
   xxz       -0.352802D+03     -0.304793D+01     -0.113121D+01
   yxz        0.161875D+03      0.139847D+01      0.519029D+00
   yyz       -0.580039D+03     -0.501108D+01     -0.185981D+01
   zxz        0.312496D+03      0.269972D+01      0.100198D+01
   zyz       -0.822458D+02     -0.710540D+00     -0.263710D+00
   zzz        0.439206D+02      0.379440D+00      0.140825D+00

 ----------------------------------------------------------------------
 Unable to Open any file for archive entry.
 1\1\GINC-BGN1037\SP\RAPFD\def2TZVP\C37H42Fe1N6S1\BEBJONES\03-Jul-2024\
 0\\# polar def2tzvp apfd int=(grid=ultrafine)\\1dt1_II_S\\0,1\Fe,0,25.
 102,24.442,0.198\N,0,23.732,23.774,-1.175\N,0,23.582,25.21,1.377\N,0,2
 6.449,25.236,1.549\N,0,26.649,23.813,-0.98\C,0,24.024,23.056,-2.261\C,
 0,22.88,22.77,-2.985\C,0,21.844,23.382,-2.281\C,0,22.408,23.984,-1.171
 \C,0,22.274,25.193,1.073\C,0,21.542,25.755,2.123\C,0,22.465,26.038,3.1
 37\C,0,23.704,25.716,2.61\C,0,26.22,25.657,2.817\C,0,27.413,25.905,3.4
 89\C,0,28.436,25.659,2.562\C,0,27.784,25.23,1.403\C,0,27.949,24.086,-0
 .836\C,0,28.68,23.489,-1.851\C,0,27.778,22.761,-2.613\C,0,26.531,23.01
 4,-2.039\C,0,25.3,22.504,-2.497\H,0,25.338,21.592,-3.093\C,0,21.75,24.
 736,-0.153\H,0,20.709,24.99,-0.348\C,0,24.914,25.865,3.282\H,0,24.835,
 26.19,4.319\C,0,28.469,24.854,0.218\H,0,29.499,25.195,0.116\C,0,22.844
 ,21.897,-4.228\H,0,23.385,21.03,-3.793\H,0,23.556,22.499,-4.831\H,0,22
 .022,21.522,-4.874\C,0,20.355,23.406,-2.654\H,0,20.246,24.512,-2.666\H
 ,0,19.996,23.019,-1.676\H,0,19.748,22.975,-3.479\C,0,27.982,21.805,-3.
 777\H,0,28.429,22.593,-4.42\H,0,27.485,21.051,-4.424\H,0,28.789,21.324
 ,-3.184\C,0,30.073,23.58,-2.048\H,0,30.761,22.938,-1.497\C,0,30.58,23.
 831,-3.402\H,0,30.013,24.461,-4.103\H,0,31.533,23.392,-3.732\C,0,29.95
 8,25.848,2.691\H,0,30.105,26.58,1.868\H,0,30.212,24.832,2.319\H,0,30.6
 23,26.12,3.538\C,0,27.584,26.276,4.843\H,0,26.844,25.752,5.447\C,0,28.
 294,27.516,5.22\H,0,29.027,27.97,4.536\H,0,28.098,27.999,6.188\C,0,22.
 133,26.639,4.493\H,0,21.523,27.443,4.028\H,0,22.646,27.048,5.39\H,0,21
 .463,25.803,4.787\C,0,20.035,26.035,2.226\H,0,20.167,27.115,2.449\H,0,
 19.928,25.48,3.182\H,0,19.122,25.904,1.607\C,0,26.623,19.533,2.307\H,0
 ,27.693,19.697,2.059\H,0,26.26,18.637,1.759\H,0,26.527,19.373,3.402\N,
 0,24.458,20.855,2.083\H,0,23.891,20.147,2.502\C,0,25.819,20.743,1.896\
 C,0,24.023,22.025,1.63\H,0,22.988,22.361,1.657\N,0,25.071,22.678,1.155
 \C,0,26.2,21.902,1.31\H,0,27.172,22.253,0.986\C,0,23.891,28.434,0.436\
 H,0,23.864,28.108,1.498\H,0,22.996,28.029,-0.082\H,0,23.871,29.544,0.4
 05\C,0,25.159,27.919,-0.238\H,0,25.948,27.799,0.534\H,0,25.503,28.676,
 -0.974\S,0,24.885,26.348,-1.071\C,0,26.147,26.413,-2.342\H,0,27.166,26
 .39,-1.9\H,0,26.049,27.349,-2.932\H,0,26.049,25.542,-3.024\\Version=ES
 64L-G16RevC.02\State=1-A\HF=-3424.5464175\RMSD=1.982e-09\Dipole=-0.639
 4237,-1.5832411,0.4808054\Polar=738.3901527,-1.6536013,486.3583974,-6.
 6140913,156.0563543,672.0431325\HyperPolar=1406.8695396,-57.1940439,12
[...]
                                                    186(r),182(r),169(r),208(r)
                                                    235(r),183(r),288(r),286(r)
                                                    234(r),262(r),209(r)
    92. BD (   2) C  71 - N  73          1.88206    -0.32041  1651(v),1387(v),1272(v)
                                                    170(r),169(r),182(r),183(r)
                                                    197(r),196(r),166(r),168(r)
    93. BD (   1) N  73 - C  74          1.97154    -0.78007  168(r),167(r),1646(v)
                                                    1652(v),181(r),1649(v)
                                                    1650(g),1648(v),1331(v)
                                                    183(r),1653(g),1563(r)
                                                    170(r),182(r),260(r),187(r)
                                                    287(r),285(r),208(r),1503(r)
                                                    236(r),186(r),1501(r),235(r)
    94. BD (   1) C  74 - H  75          1.98013    -0.53813  1653(v),1648(v),1303(v)
                                                    168(r),1650(g),1362(v)
                                                    170(r),167(r),186(r),285(r)
                                                    187(r),1575(r),180(r),181(r)
                                                    1604(r),234(r),166(r),169(r)
   149. CR (   1) C  64                  1.99943   -10.07879  1650(v),1648(v),1303(v)
   150. CR (   1) N  68                  1.99936   -14.21571  1331(v),1305(v),1646(v)
                                                    168(r)
   151. CR (   1) C  70                  1.99906   -10.09155  1650(g),1388(v),1656(v)
                                                    1233(v),168(r)
   152. CR (   1) C  71                  1.99931   -10.12420  1361(v),1276(v),1647(v)
                                                    1655(v),168(r),1563(r)
                                                    167(r)
   153. CR (   1) N  73                  1.99937   -14.15247  168(r),167(r),1329(v)
                                                    1386(v),1652(v),1563(r)
                                                    170(r),183(r),182(r),186(r)
                                                    187(r)
   154. CR (   1) C  74                  1.99889   -10.06111  1303(v),1646(v),1650(g)
                                                    1361(v),168(r),1563(r)
                                                    167(r)
   177. LP (   1) N  68                  1.57649    -0.28500  1654(v),1651(v),1332(v)
                                                    1330(v),1298(v),1304(v)
                                                    184(r)
   178. LP (   1) N  73                  1.62579    -0.34840  168(r),167(r),1649(v)
                                                    1650(v),1329(v),1652(v)
                                                    1656(v),170(r),1653(g)
                                                    1363(g),1655(g),1386(v)
                                                    185(r),1563(r),1362(g)
                                                    193(r),189(r),207(r),262(r)
                                                    288(r),1573(r),236(r),285(r)
                                                    210(r),1566(r),233(r)
                                                    1570(r),1567(r),1571(r)
                                                    200(r),259(r),1572(r)
                                                    1569(r),1564(r),1574(r)
                                                    182(r),191(r),187(r)
  1231. RY*(   1) C  64                  0.00109     1.10199   
  1232. RY*(   2) C  64                  0.00078     1.95469   
  1233. RY*(   3) C  64                  0.00050     1.32258   
  1234. RY*(   4) C  64                  0.00010     1.21422   
  1235. RY*(   5) C  64                  0.00009     2.20244   
  1236. RY*(   6) C  64                  0.00007     1.41513   
  1237. RY*(   7) C  64                  0.00001     1.77483   
  1238. RY*(   8) C  64                  0.00001     1.90720   
  1239. RY*(   9) C  64                  0.00001     1.45615   
  1240. RY*(  10) C  64                  0.00000     3.14259   
  1241. RY*(  11) C  64                  0.00000     2.55306   
  1242. RY*(  12) C  64                  0.00001     1.69323   
  1243. RY*(  13) C  64                  0.00000     2.37186   
  1244. RY*(  14) C  64                  0.00001     2.76567   
  1245. RY*(  15) C  64                  0.00000     2.56559   
  1246. RY*(  16) C  64                  0.00000     2.40944   
  1247. RY*(  17) C  64                  0.00001     2.50776   
  1248. RY*(  18) C  64                  0.00000    21.54809   
  1249. RY*(  19) C  64                  0.00001     2.80083   
  1250. RY*(  20) C  64                  0.00001     3.58404   
  1251. RY*(  21) C  64                  0.00000     3.39077   
  1252. RY*(  22) C  64                  0.00001     3.27050   
  1253. RY*(  23) C  64                  0.00000     3.28937   
  1254. RY*(  24) C  64                  0.00000     3.74422   
  1255. RY*(  25) C  64                  0.00000     3.36624   
  1256. RY*(  26) C  64                  0.00000     3.28737   
  1257. RY*(   1) H  65                  0.00023     1.30794   
  1258. RY*(   2) H  65                  0.00011     1.78319   
  1259. RY*(   3) H  65                  0.00007     2.02926   
  1260. RY*(   4) H  65                  0.00003     1.55585   
  1261. RY*(   5) H  65                  0.00001     2.84638   
  1262. RY*(   1) H  66                  0.00070     1.03086   
  1263. RY*(   2) H  66                  0.00013     1.71551   
  1264. RY*(   3) H  66                  0.00008     1.82526   
  1265. RY*(   4) H  66                  0.00005     2.01399   
  1266. RY*(   5) H  66                  0.00000     2.85323   
  1267. RY*(   1) H  67                  0.00070     1.02271   
  1268. RY*(   2) H  67                  0.00013     1.71808   
  1269. RY*(   3) H  67                  0.00008     1.83392   
  1270. RY*(   4) H  67                  0.00005     2.00873   
  1271. RY*(   5) H  67                  0.00000     2.85454   
  1272. RY*(   1) N  68                  0.00288     0.65706   
  1273. RY*(   2) N  68                  0.00239     1.79642   
  1274. RY*(   3) N  68                  0.00106     2.08226   
  1275. RY*(   4) N  68                  0.00086     2.17695   
  1276. RY*(   5) N  68                  0.00048     1.19096   
  1277. RY*(   6) N  68                  0.00029     2.03824   
  1278. RY*(   7) N  68                  0.00020     1.85047   
  1279. RY*(   8) N  68                  0.00007     2.34915   
  1280. RY*(   9) N  68                  0.00005     2.11740   
  1281. RY*(  10) N  68                  0.00006     3.96386   
  1282. RY*(  11) N  68                  0.00004     2.92243   
  1283. RY*(  12) N  68                  0.00000    30.57284   
  1284. RY*(  13) N  68                  0.00001     3.89345   
  1285. RY*(  14) N  68                  0.00000     2.16159   
  1286. RY*(  15) N  68                  0.00001     3.94953   
  1287. RY*(  16) N  68                  0.00001     2.68369   
  1288. RY*(  17) N  68                  0.00001     3.96109   
  1289. RY*(  18) N  68                  0.00001     3.74202   
  1290. RY*(  19) N  68                  0.00000     4.62118   
  1291. RY*(  20) N  68                  0.00000     4.66170   
  1292. RY*(  21) N  68                  0.00000     4.55021   
  1293. RY*(  22) N  68                  0.00000     4.63858   
  1294. RY*(  23) N  68                  0.00000     4.32079   
  1295. RY*(  24) N  68                  0.00000     4.47303   
  1296. RY*(  25) N  68                  0.00000     4.46936   
  1297. RY*(  26) N  68                  0.00000     4.40809   
  1298. RY*(   1) H  69                  0.00055     2.16086   
  1299. RY*(   2) H  69                  0.00039     1.79466   
  1300. RY*(   3) H  69                  0.00035     1.29619   
  1301. RY*(   4) H  69                  0.00020     2.67140   
  1302. RY*(   5) H  69                  0.00001     3.08035   
  1303. RY*(   1) C  70                  0.00423     1.67180   
  1304. RY*(   2) C  70                  0.00252     0.94466   
  1305. RY*(   3) C  70                  0.00191     1.46899   
  1306. RY*(   4) C  70                  0.00161     2.12508   
  1307. RY*(   5) C  70                  0.00133     1.76724   
  1308. RY*(   6) C  70                  0.00121     1.74753   
  1309. RY*(   7) C  70                  0.00036     2.89955   
  1310. RY*(   8) C  70                  0.00022     2.75583   
  1311. RY*(   9) C  70                  0.00014     2.48075   
  1312. RY*(  10) C  70                  0.00007     3.50525   
  1313. RY*(  11) C  70                  0.00004     2.79196   
  1314. RY*(  12) C  70                  0.00001     1.64251   
  1315. RY*(  13) C  70                  0.00001     2.70251   
  1316. RY*(  14) C  70                  0.00001     1.92055   
  1317. RY*(  15) C  70                  0.00001     1.63637   
  1318. RY*(  16) C  70                  0.00001     1.05263   
  1319. RY*(  17) C  70                  0.00001     2.02984   
  1320. RY*(  18) C  70                  0.00000    21.17106   
  1321. RY*(  19) C  70                  0.00001     3.63721   
  1322. RY*(  20) C  70                  0.00000     4.04914   
  1323. RY*(  21) C  70                  0.00000     3.48183   
  1324. RY*(  22) C  70                  0.00000     3.44809   
  1325. RY*(  23) C  70                  0.00000     3.35592   
  1326. RY*(  24) C  70                  0.00000     3.78087   
  1327. RY*(  25) C  70                  0.00000     3.57409   
  1328. RY*(  26) C  70                  0.00000     3.54701   
  1329. RY*(   1) C  71                  0.00407     1.63146   
  1330. RY*(   2) C  71                  0.00343     0.58524   
  1331. RY*(   3) C  71                  0.00219     1.29018   
  1332. RY*(   4) C  71                  0.00139     2.56102   
  1333. RY*(   5) C  71                  0.00099     1.47459   
  1334. RY*(   6) C  71                  0.00045     1.76387   
  1335. RY*(   7) C  71                  0.00024     1.68432   
  1336. RY*(   8) C  71                  0.00008     2.27853   
  1337. RY*(   9) C  71                  0.00007     3.29281   
  1338. RY*(  10) C  71                  0.00003     1.90378   
  1339. RY*(  11) C  71                  0.00004     2.11234   
  1340. RY*(  12) C  71                  0.00003     2.76679   
  1341. RY*(  13) C  71                  0.00002     2.50439   
  1342. RY*(  14) C  71                  0.00002     2.58259   
  1343. RY*(  15) C  71                  0.00001     2.81790   
  1344. RY*(  16) C  71                  0.00001     3.96981   
  1345. RY*(  17) C  71                  0.00001     3.63455   
  1346. RY*(  18) C  71                  0.00001     2.71627   
  1347. RY*(  19) C  71                  0.00000    21.33067   
  1348. RY*(  20) C  71                  0.00000     3.14573   
  1349. RY*(  21) C  71                  0.00001     3.78348   
  1350. RY*(  22) C  71                  0.00001     3.89731   
  1351. RY*(  23) C  71                  0.00000     3.66376   
  1352. RY*(  24) C  71                  0.00000     3.85736   
  1353. RY*(  25) C  71                  0.00000     3.52081   
  1354. RY*(  26) C  71                  0.00000     3.49187   
  1355. RY*(   1) H  72                  0.00064     0.76736   
  1356. RY*(   2) H  72                  0.00028     2.35975   
  1357. RY*(   3) H  72                  0.00020     2.05244   
  1358. RY*(   4) H  72                  0.00011     2.34353   
  1359. RY*(   5) H  72                  0.00002     3.11186   
  1360. RY*(   1) N  73                  0.01198     0.80677   
  1361. RY*(   2) N  73                  0.00955     1.22707   
  1362. RY*(   3) N  73                  0.00714     1.33347   
  1363. RY*(   4) N  73                  0.00132     1.73348   
  1364. RY*(   5) N  73                  0.00066     1.82836   
  1365. RY*(   6) N  73                  0.00051     1.98173   
  1366. RY*(   7) N  73                  0.00037     3.24258   
  1367. RY*(   8) N  73                  0.00035     2.99041   
  1368. RY*(   9) N  73                  0.00016     3.53212   
  1369. RY*(  10) N  73                  0.00011     2.51743   
  1370. RY*(  11) N  73                  0.00008     3.74571   
  1371. RY*(  12) N  73                  0.00007     2.75058   
  1372. RY*(  13) N  73                  0.00005     3.05243   
  1373. RY*(  14) N  73                  0.00004     4.87784   
  1374. RY*(  15) N  73                  0.00004     3.59220   
  1375. RY*(  16) N  73                  0.00000    31.68499   
  1376. RY*(  17) N  73                  0.00001     4.03812   
  1377. RY*(  18) N  73                  0.00000     4.83451   
  1378. RY*(  19) N  73                  0.00001     4.44178   
  1379. RY*(  20) N  73                  0.00000     4.42897   
  1380. RY*(  21) N  73                  0.00001     4.52796   
  1381. RY*(  22) N  73                  0.00000     4.29037   
  1382. RY*(  23) N  73                  0.00000     4.63701   
  1383. RY*(  24) N  73                  0.00000     4.69088   
  1384. RY*(  25) N  73                  0.00000     4.63502   
  1385. RY*(  26) N  73                  0.00000     4.57988   
  1386. RY*(   1) C  74                  0.00404     1.51387   
  1387. RY*(   2) C  74                  0.00244     0.69947   
  1388. RY*(   3) C  74                  0.00180     1.73974   
  1389. RY*(   4) C  74                  0.00072     2.02446   
  1390. RY*(   5) C  74                  0.00066     1.46116   
  1391. RY*(   6) C  74                  0.00053     1.87187   
  1392. RY*(   7) C  74                  0.00048     2.39588   
  1393. RY*(   8) C  74                  0.00031     1.57105   
  1394. RY*(   9) C  74                  0.00026     1.37415   
  1395. RY*(  10) C  74                  0.00020     1.70270   
  1396. RY*(  11) C  74                  0.00013     1.45622   
  1397. RY*(  12) C  74                  0.00007     2.09848   
  1398. RY*(  13) C  74                  0.00005     2.52198   
  1399. RY*(  14) C  74                  0.00005     2.62956   
  1400. RY*(  15) C  74                  0.00004     1.73162   
  1401. RY*(  16) C  74                  0.00000    21.56408   
  1402. RY*(  17) C  74                  0.00000     3.28463   
  1403. RY*(  18) C  74                  0.00001     3.61927   
  1404. RY*(  19) C  74                  0.00001     3.42186   
  1405. RY*(  20) C  74                  0.00001     3.94897   
  1406. RY*(  21) C  74                  0.00001     3.68485   
  1407. RY*(  22) C  74                  0.00001     3.76966   
  1408. RY*(  23) C  74                  0.00001     3.34235   
  1409. RY*(  24) C  74                  0.00001     3.78539   
  1410. RY*(  25) C  74                  0.00000     3.63490   
  1411. RY*(  26) C  74                  0.00000     3.53334   
  1412. RY*(   1) H  75                  0.00071     0.74973   
  1413. RY*(   2) H  75                  0.00037     2.35398   
  1414. RY*(   3) H  75                  0.00023     2.30623   
  1415. RY*(   4) H  75                  0.00009     2.71432   
  1416. RY*(   5) H  75                  0.00001     3.18690   
  1643. BD*(   1) C  64 - H  65          0.00292     0.34276   
  1644. BD*(   1) C  64 - H  66          0.01094     0.33401   
  1645. BD*(   1) C  64 - H  67          0.01078     0.33474   
  1646. BD*(   1) C  64 - C  70          0.01458     0.36017   
  1647. BD*(   1) N  68 - H  69          0.01574     0.37835   
  1648. BD*(   1) N  68 - C  70          0.02834     0.41991   
  1649. BD*(   1) N  68 - C  71          0.01962     0.48264   
  1650. BD*(   1) C  70 - C  74          0.02028     0.58196   
  1651. BD*(   2) C  70 - C  74          0.29319     0.03756  1654(v),1644(v),1645(v)
                                                    1392(g),1307(g)
  1652. BD*(   1) C  71 - H  72          0.01730     0.35994   
  1653. BD*(   1) C  71 - N  73          0.01702     0.52351   
  1654. BD*(   2) C  71 - N  73          0.42631    -0.00822  1651(v),1330(g),1360(g)
                                                    170(r),169(r),1572(r)
  1655. BD*(   1) N  73 - C  74          0.01656     0.46348   
  1656. BD*(   1) C  74 - H  75          0.01424     0.41393   
       -------------------------------
              Total Lewis   42.69429  ( 97.7188%)
        Valence non-Lewis    0.90783  (  2.0778%)
        Rydberg non-Lewis    0.08884  (  0.2033%)
       -------------------------------
            Total unit  3   43.69096  (100.0000%)
           Charge unit  3    0.30904
 Unable to Open any file for archive entry.
 1\1\GINC-BGN1037\SP\RAPFD\def2TZVP\C37H42Fe1N6S1\BEBJONES\03-Jul-2024\
 0\\# apfd/def2TZVP int=(grid=ultrafine) geom=check guess=read pop=nbo 
 scf=qc\\1dt1_II_S_nbo\\0,1\Fe,0,25.102,24.442,0.198\N,0,23.732,23.774,
 -1.175\N,0,23.582,25.21,1.377\N,0,26.449,25.236,1.549\N,0,26.649,23.81
 3,-0.98\C,0,24.024,23.056,-2.261\C,0,22.88,22.77,-2.985\C,0,21.844,23.
 382,-2.281\C,0,22.408,23.984,-1.171\C,0,22.274,25.193,1.073\C,0,21.542
 ,25.755,2.123\C,0,22.465,26.038,3.137\C,0,23.704,25.716,2.61\C,0,26.22
 ,25.657,2.817\C,0,27.413,25.905,3.489\C,0,28.436,25.659,2.562\C,0,27.7
 84,25.23,1.403\C,0,27.949,24.086,-0.836\C,0,28.68,23.489,-1.851\C,0,27
 .778,22.761,-2.613\C,0,26.531,23.014,-2.039\C,0,25.3,22.504,-2.497\H,0
 ,25.338,21.592,-3.093\C,0,21.75,24.736,-0.153\H,0,20.709,24.99,-0.348\
 C,0,24.914,25.865,3.282\H,0,24.835,26.19,4.319\C,0,28.469,24.854,0.218
 \H,0,29.499,25.195,0.116\C,0,22.844,21.897,-4.228\H,0,23.385,21.03,-3.
 793\H,0,23.556,22.499,-4.831\H,0,22.022,21.522,-4.874\C,0,20.355,23.40
 6,-2.654\H,0,20.246,24.512,-2.666\H,0,19.996,23.019,-1.676\H,0,19.748,
 22.975,-3.479\C,0,27.982,21.805,-3.777\H,0,28.429,22.593,-4.42\H,0,27.
 485,21.051,-4.424\H,0,28.789,21.324,-3.184\C,0,30.073,23.58,-2.048\H,0
 ,30.761,22.938,-1.497\C,0,30.58,23.831,-3.402\H,0,30.013,24.461,-4.103
 \H,0,31.533,23.392,-3.732\C,0,29.958,25.848,2.691\H,0,30.105,26.58,1.8
 68\H,0,30.212,24.832,2.319\H,0,30.623,26.12,3.538\C,0,27.584,26.276,4.
 843\H,0,26.844,25.752,5.447\C,0,28.294,27.516,5.22\H,0,29.027,27.97,4.
 536\H,0,28.098,27.999,6.188\C,0,22.133,26.639,4.493\H,0,21.523,27.443,
 4.028\H,0,22.646,27.048,5.39\H,0,21.463,25.803,4.787\C,0,20.035,26.035
 ,2.226\H,0,20.167,27.115,2.449\H,0,19.928,25.48,3.182\H,0,19.122,25.90
 4,1.607\C,0,26.623,19.533,2.307\H,0,27.693,19.697,2.059\H,0,26.26,18.6
 37,1.759\H,0,26.527,19.373,3.402\N,0,24.458,20.855,2.083\H,0,23.891,20
 .147,2.502\C,0,25.819,20.743,1.896\C,0,24.023,22.025,1.63\H,0,22.988,2
 2.361,1.657\N,0,25.071,22.678,1.155\C,0,26.2,21.902,1.31\H,0,27.172,22
 .253,0.986\C,0,23.891,28.434,0.436\H,0,23.864,28.108,1.498\H,0,22.996,
 28.029,-0.082\H,0,23.871,29.544,0.405\C,0,25.159,27.919,-0.238\H,0,25.
 948,27.799,0.534\H,0,25.503,28.676,-0.974\S,0,24.885,26.348,-1.071\C,0
 ,26.147,26.413,-2.342\H,0,27.166,26.39,-1.9\H,0,26.049,27.349,-2.932\H
 ,0,26.049,25.542,-3.024\\Version=ES64L-G16RevC.02\State=1-A\HF=-3424.5
 464175\RMSD=1.162e-09\Dipole=-0.6394237,-1.5832411,0.4808054\Quadrupol
 e=-5.8208437,9.7700105,-3.9491669,2.5825109,-4.2917613,-5.4095764\PG=C
 01 [X(C37H42Fe1N6S1)]\\@
 The archive entry for this job was punched.


 SI MONUMENTUM REQUIRIS, CIRCUMSPICE
     -- FROM SIR CHRISTOPHER WREN'S TOMBSTONE
 Job cpu time:       0 days  1 hours  0 minutes 24.8 seconds.
 Elapsed time:       0 days  0 hours  1 minutes  9.9 seconds.
 File lengths (MBytes):  RWF=    938 Int=      0 D2E=      0 Chk=    161 Scr=      1
 Normal termination of Gaussian 16 at Wed Jul  3 19:18:13 2024.
