 Entering Gaussian System, Link 0=g16
 Input=1dt616.com
 Output=1dt616.log
 Initial command:
 /sw/chem/gaussian/g16_C02/a100/g16/l1.exe "/local/bebjones_7928800/Gau-3296832.inp" -scrdir="/local/bebjones_7928800/"
 Entering Link 1 = /sw/chem/gaussian/g16_C02/a100/g16/l1.exe PID=   3296833.
  
 Copyright (c) 1988-2021, Gaussian, Inc.  All Rights Reserved.
  
 This is part of the Gaussian(R) 16 program.  It is based on
 the Gaussian(R) 09 system (copyright 2009, Gaussian, Inc.),
 the Gaussian(R) 03 system (copyright 2003, Gaussian, Inc.),
 the Gaussian(R) 98 system (copyright 1998, Gaussian, Inc.),
 the Gaussian(R) 94 system (copyright 1995, Gaussian, Inc.),
 the Gaussian 92(TM) system (copyright 1992, Gaussian, Inc.),
 the Gaussian 90(TM) system (copyright 1990, Gaussian, Inc.),
 the Gaussian 88(TM) system (copyright 1988, Gaussian, Inc.),
 the Gaussian 86(TM) system (copyright 1986, Carnegie Mellon
 University), and the Gaussian 82(TM) system (copyright 1983,
 Carnegie Mellon University). Gaussian is a federally registered
 trademark of Gaussian, Inc.
  
 This software contains proprietary and confidential information,
 including trade secrets, belonging to Gaussian, Inc.
  
 This software is provided under written license and may be
 used, copied, transmitted, or stored only in accord with that
 written license.
  
 The following legend is applicable only to US Government
 contracts under FAR:
  
                    RESTRICTED RIGHTS LEGEND
  
 Use, reproduction and disclosure by the US Government is
 subject to restrictions as set forth in subparagraphs (a)
 and (c) of the Commercial Computer Software - Restricted
 Rights clause in FAR 52.227-19.
  
 Gaussian, Inc.
 340 Quinnipiac St., Bldg. 40, Wallingford CT 06492
  
  
 ---------------------------------------------------------------
 Warning -- This program may not be used in any manner that
 competes with the business of Gaussian, Inc. or will provide
 assistance to any competitor of Gaussian, Inc.  The licensee
 of this program is prohibited from giving any competitor of
 Gaussian, Inc. access to this program.  By using this program,
 the user acknowledges that Gaussian, Inc. is engaged in the
 business of creating and licensing software in the field of
 computational chemistry and represents and warrants to the
 licensee that it is not a competitor of Gaussian, Inc. and that
 it will not use this program in any manner prohibited above.
 ---------------------------------------------------------------
  

 Cite this work as:
 Gaussian 16, Revision C.02,
 M. J. Frisch, G. W. Trucks, H. B. Schlegel, G. E. Scuseria, 
 M. A. Robb, J. R. Cheeseman, G. Scalmani, V. Barone, 
 G. A. Petersson, H. Nakatsuji, X. Li, M. Caricato, A. V. Marenich, 
 J. Bloino, B. G. Janesko, R. Gomperts, B. Mennucci, H. P. Hratchian, 
 J. V. Ortiz, A. F. Izmaylov, J. L. Sonnenberg, D. Williams-Young, 
 F. Ding, F. Lipparini, F. Egidi, J. Goings, B. Peng, A. Petrone, 
 T. Henderson, D. Ranasinghe, V. G. Zakrzewski, J. Gao, N. Rega, 
 G. Zheng, W. Liang, M. Hada, M. Ehara, K. Toyota, R. Fukuda, 
 J. Hasegawa, M. Ishida, T. Nakajima, Y. Honda, O. Kitao, H. Nakai, 
 T. Vreven, K. Throssell, J. A. Montgomery, Jr., J. E. Peralta, 
 F. Ogliaro, M. J. Bearpark, J. J. Heyd, E. N. Brothers, K. N. Kudin, 
 V. N. Staroverov, T. A. Keith, R. Kobayashi, J. Normand, 
 K. Raghavachari, A. P. Rendell, J. C. Burant, S. S. Iyengar, 
 J. Tomasi, M. Cossi, J. M. Millam, M. Klene, C. Adamo, R. Cammi, 
 J. W. Ochterski, R. L. Martin, K. Morokuma, O. Farkas, 
 J. B. Foresman, and D. J. Fox, Gaussian, Inc., Wallingford CT, 2019.
 
 ******************************************
 Gaussian 16:  ES64L-G16RevC.02  7-Dec-2021
                11-Jul-2024 
 ******************************************
 %mem=16GB
 %CPU=0-71
 SetSPE:  set environment variable "OMP_PROC_BIND" = "true"
 SetSPE:  set environment variable "OMP_PLACES" = "{0},{1},{2},{3},{4},{5},{6},{7},{8},{9},{10},{11},{12},{13},{14},{15},{16},{17},{18},{19},{20},{21},{22},{23},{24},{25},{26},{27},{28},{29},{30},{31},{32},{33},{34},{35},{36},{37},{38},{39},{40},{41},{42},{43},{44},{45},{46},{47},{48},{49},{50},{51},{52},{53},{54},{55},{56},{57},{58},{59},{60},{61},{62},{63},{64},{65},{66},{67},{68},{69},{70},{71}"
 Will use up to   72 processors via shared memory.
 %gpucpu=0,1,2,3=0,1,2,3
 Will use    4 GPUs:
 Thread  CPU   GPU
      0    0     0
      1    1     1
      2    2     2
      3    3     3
      4    4    -1
      5    5    -1
      6    6    -1
      7    7    -1
      8    8    -1
      9    9    -1
     10   10    -1
     11   11    -1
     12   12    -1
     13   13    -1
     14   14    -1
     15   15    -1
     16   16    -1
     17   17    -1
     18   18    -1
     19   19    -1
     20   20    -1
     21   21    -1
     22   22    -1
     23   23    -1
     24   24    -1
     25   25    -1
     26   26    -1
     27   27    -1
     28   28    -1
     29   29    -1
     30   30    -1
     31   31    -1
     32   32    -1
     33   33    -1
     34   34    -1
     35   35    -1
     36   36    -1
     37   37    -1
     38   38    -1
     39   39    -1
     40   40    -1
     41   41    -1
     42   42    -1
     43   43    -1
     44   44    -1
     45   45    -1
     46   46    -1
     47   47    -1
     48   48    -1
     49   49    -1
     50   50    -1
     51   51    -1
     52   52    -1
     53   53    -1
     54   54    -1
     55   55    -1
     56   56    -1
     57   57    -1
     58   58    -1
     59   59    -1
     60   60    -1
     61   61    -1
     62   62    -1
     63   63    -1
     64   64    -1
     65   65    -1
     66   66    -1
     67   67    -1
     68   68    -1
     69   69    -1
     70   70    -1
     71   71    -1
 SetGPE:  set environment variable "OMP_PROC_BIND" = "true"
 SetGPE:  set environment variable "OMP_PLACES" = "{0},{1},{2},{3},{4},{5},{6},{7},{8},{9},{10},{11},{12},{13},{14},{15},{16},{17},{18},{19},{20},{21},{22},{23},{24},{25},{26},{27},{28},{29},{30},{31},{32},{33},{34},{35},{36},{37},{38},{39},{40},{41},{42},{43},{44},{45},{46},{47},{48},{49},{50},{51},{52},{53},{54},{55},{56},{57},{58},{59},{60},{61},{62},{63},{64},{65},{66},{67},{68},{69},{70},{71}"
 %oldchk=1dt6_III_Dre.chk
 %chk=1dt6_III_Hn.chk
 Properties for Device   0
 Minimum vector length:                              32
 Maximum vector length:                            1024
 Number of SMPs:                                    108
 Maximum number of threads per SMP:                2048
 Number of ASync Engines:                             5
 Memory:                                           9207742464
 Properties for Device   1
 Minimum vector length:                              32
 Maximum vector length:                            1024
 Number of SMPs:                                    108
 Maximum number of threads per SMP:                2048
 Number of ASync Engines:                             5
 Memory:                                           9207742464
 Properties for Device   2
 Minimum vector length:                              32
 Maximum vector length:                            1024
 Number of SMPs:                                    108
 Maximum number of threads per SMP:                2048
 Number of ASync Engines:                             5
 Memory:                                           9207742464
 Properties for Device   3
 Minimum vector length:                              32
 Maximum vector length:                            1024
 Number of SMPs:                                    108
 Maximum number of threads per SMP:                2048
 Number of ASync Engines:                             5
 Memory:                                           9207742464
   8286968217 words of memory will be used on each GPU.
 Copying data from "1dt6_III_Dre.chk" to current chk file "1dt6_III_Hn.chk"
 IOpt=  2 FromEx=T IUOpen= 4 IOptOp= 5 NList=   0 IFRang= 0 IUIn= 4 IUOut= 2.
 --------------------------------------------------------------
 # apfd/def2TZVP guess=read scf=maxcycle=999 geom=check pop=nbo
 --------------------------------------------------------------
 1/29=2,38=1,172=1/1;
 2/12=2,40=1/2;
 3/5=44,7=101,11=2,14=-4,25=1,30=1,74=-44,116=-2/1,2,3;
 4/5=1/1;
 5/5=2,7=999,38=6/2;
 6/7=2,8=2,9=2,10=2,28=1,40=1/1,7;
 99/5=1,9=1/99;
 ----------
 1dt6_III_H
 ----------
 Structure from the checkpoint file:  "1dt6_III_Hn.chk"
 Charge =  1 Multiplicity = 6
 Z-Matrix found in chk file.
 Fe,0,-11.2976794024,-20.2459256478,-31.5524695338
 N,0,-11.2507838204,-20.5584607688,-29.5895603647
 N,0,-9.7741818915,-21.5055376949,-31.8142530501
 N,0,-11.5028977021,-20.0727064028,-33.5580560841
 N,0,-12.9306468804,-19.1071006135,-31.3340293403
 C,0,-11.9790589573,-19.9047242566,-28.6455622795
 C,0,-11.5248417463,-20.2545167966,-27.3189759838
 C,0,-10.5221135552,-21.1591696273,-27.4824401574
 C,0,-10.3531283658,-21.3238643302,-28.9079317805
 C,0,-9.0552085812,-22.1241401449,-30.8330829913
 C,0,-7.9117197055,-22.8004439978,-31.385884136
 C,0,-7.9606783386,-22.5961788119,-32.7398001166
 C,0,-9.1403261822,-21.7918818683,-32.9829535763
 C,0,-10.6495315115,-20.5772462945,-34.4937916456
 C,0,-11.0125609019,-20.1299687643,-35.8138397557
 C,0,-12.1309451487,-19.3557498127,-35.6621266131
 C,0,-12.407069089,-19.3203834766,-34.2386351908
 C,0,-13.5764139561,-18.4008716544,-32.2983478046
 C,0,-14.6282952913,-17.5915803474,-31.7239060002
 C,0,-14.6194718392,-17.8462593279,-30.3895719642
 C,0,-13.5444141572,-18.7880319137,-30.15983011
 C,0,-13.0423144562,-19.060769706,-28.9023474173
 H,0,-13.5594334337,-18.6383685419,-28.0552028856
 C,0,-9.3506629182,-22.0825079208,-29.481306736
 H,0,-8.7022542307,-22.6288604413,-28.8141497912
 C,0,-9.5598091628,-21.3878864936,-34.2351818169
 H,0,-8.962709558,-21.6946329242,-35.079378681
 C,0,-13.3135263623,-18.4597471093,-33.6524219487
 H,0,-13.918018168,-17.8452790664,-34.3001385596
 C,0,-9.7075053978,-21.8640632835,-26.4535577662
 H,0,-10.0547830977,-21.6201298919,-25.4529065248
 H,0,-8.6588526211,-21.576244876,-26.5320970308
 H,0,-9.7730697053,-22.9441476721,-26.5859291809
 C,0,-12.1051595331,-19.7041375611,-26.0625155111
 H,0,-13.1574176091,-19.9761309022,-25.9743427386
 H,0,-12.0351803704,-18.6166734468,-26.0545108626
 H,0,-11.5780580319,-20.0880424744,-25.1928272835
 C,0,-6.9389535678,-23.6147385114,-30.6079138353
 H,0,-7.4439134219,-24.1771707331,-29.8237585897
 H,0,-6.1898635174,-22.9770267093,-30.1362650696
 H,0,-6.4287958013,-24.3149947168,-31.2660574227
 C,0,-7.0599437232,-23.0689050774,-33.7687026738
 H,0,-7.5194372055,-23.3087741902,-34.7204971174
 C,0,-5.746646077,-23.2147069853,-33.6306819003
 H,0,-5.232426058,-22.9450521964,-32.7248094933
 H,0,-5.1337524573,-23.5838609938,-34.4359382342
 C,0,-10.2535374315,-20.4287527933,-37.0584079321
 H,0,-10.5062533146,-21.4189498825,-37.4410318787
 H,0,-9.1811625071,-20.4020582718,-36.8710704959
 H,0,-10.4910330933,-19.6933279742,-37.8240030742
 C,0,-12.9039118457,-18.6629566886,-36.6703482078
 H,0,-13.3420483379,-17.7206817769,-36.3641562953
 C,0,-13.1159653748,-19.0987906451,-37.9073392459
 H,0,-12.7481652068,-20.0495744182,-38.2514941265
 H,0,-13.6939404022,-18.5266704363,-38.6137758205
 C,0,-15.517735266,-16.6903385488,-32.5079710784
 H,0,-16.0899423427,-17.2599418433,-33.2405380649
 H,0,-14.9299836196,-15.943994485,-33.0422289163
 H,0,-16.2149153207,-16.1725206254,-31.8542563293
 C,0,-15.4994267971,-17.3014245669,-29.3180661854
 H,0,-16.3259712416,-16.7400039068,-29.7461966504
 H,0,-14.9377852735,-16.6354152875,-28.6618195769
 H,0,-15.9083479664,-18.1092000138,-28.7122507083
 C,0,-12.6090321017,-23.3014282718,-30.4315765587
 H,0,-11.556222369,-23.429846427,-30.2057065289
 H,0,-13.0774991114,-24.2464611697,-30.6881307186
 H,0,-13.115317795,-22.8509346983,-29.5843313234
 S,0,-12.8030715023,-22.1409031782,-31.8311519079
 H,0,-12.0382782697,-22.8402291126,-32.6766608264
 Recover connectivity data from disk.
 Stoichiometry    C31H32FeN4S(1+,6)
 Framework group  C1[X(C31H32FeN4S)]
 Deg. of freedom   201
 Full point group                 C1      NOp   1
 Largest Abelian subgroup         C1      NOp   1
 Largest concise Abelian subgroup C1      NOp   1
                         Standard orientation:                         
 ---------------------------------------------------------------------
 Center     Atomic      Atomic             Coordinates (Angstroms)
 Number     Number       Type             X           Y           Z
 ---------------------------------------------------------------------
      1         26           0       -0.079438   -0.174489   -0.229332
      2          7           0       -1.887776   -0.996952   -0.149590
      3          7           0       -0.876370    1.649097   -0.104309
      4          7           0        1.775340    0.624046   -0.100346
      5          7           0        0.752737   -1.995783   -0.189416
      6          6           0       -2.189074   -2.313104   -0.310378
      7          6           0       -3.619325   -2.501621   -0.396071
      8          6           0       -4.178314   -1.269600   -0.253814
      9          6           0       -3.080782   -0.339688   -0.118193
     10          6           0       -2.206261    1.955158   -0.106413
     11          6           0       -2.403768    3.377243   -0.202370
     12          6           0       -1.154247    3.938140   -0.238452
     13          6           0       -0.216572    2.836753   -0.165670
     14          6           0        2.075651    1.953361   -0.133984
     15          6           0        3.500729    2.156624   -0.181021
     16          6           0        4.066822    0.910934   -0.149237
     17          6           0        2.965242   -0.032112   -0.117467
     18          6           0        2.071880   -2.300450   -0.302222
     19          6           0        2.263769   -3.732279   -0.368805
     20          6           0        1.028146   -4.287501   -0.267069
     21          6           0        0.092330   -3.187673   -0.166609
     22          6           0       -1.269369   -3.343695   -0.337450
     23          1           0       -1.649496   -4.348803   -0.430999
     24          6           0       -3.236985    1.032094   -0.062974
     25          1           0       -4.245967    1.414150   -0.058259
     26          6           0        1.156293    2.985859   -0.149455
     27          1           0        1.544998    3.990849   -0.196292
     28          6           0        3.110674   -1.391111   -0.312349
     29          1           0        4.110758   -1.784577   -0.399142
     30          6           0       -5.615684   -0.878471   -0.246953
     31          1           0       -6.254506   -1.755636   -0.309372
     32          1           0       -5.840198   -0.229950   -1.094121
     33          1           0       -5.862184   -0.338609    0.667482
     34          6           0       -4.280365   -3.822940   -0.584541
     35          1           0       -4.057106   -4.486563    0.251378
     36          1           0       -3.926489   -4.299468   -1.498451
     37          1           0       -5.359225   -3.709043   -0.652843
     38          6           0       -3.724836    4.062082   -0.183357
     39          1           0       -4.406140    3.570865    0.510000
     40          1           0       -4.182975    4.047368   -1.173386
     41          1           0       -3.602691    5.098813    0.123307
     42          6           0       -0.780703    5.333642   -0.318911
     43          1           0        0.120997    5.609510    0.215336
     44          6           0       -1.444302    6.267812   -0.991236
     45          1           0       -2.316678    6.040131   -1.578484
     46          1           0       -1.117062    7.294060   -1.000248
     47          6           0        4.173968    3.478236   -0.301142
     48          1           0        4.243920    3.969953    0.670495
     49          1           0        3.620118    4.132791   -0.972412
     50          1           0        5.180019    3.348340   -0.694051
     51          6           0        5.466556    0.544671   -0.172608
     52          1           0        5.704608   -0.376652   -0.690386
     53          6           0        6.449525    1.236947    0.392715
     54          1           0        6.267363    2.131741    0.961810
     55          1           0        7.474813    0.912786    0.328417
     56          6           0        3.589678   -4.396434   -0.506515
     57          1           0        4.228817   -4.154799    0.342978
     58          1           0        4.091503   -4.062668   -1.414636
     59          1           0        3.476687   -5.476414   -0.555640
     60          6           0        0.636003   -5.724673   -0.259851
     61          1           0        1.512789   -6.363266   -0.188372
     62          1           0        0.100447   -5.981015   -1.174802
     63          1           0       -0.016126   -5.938306    0.586210
     64          6           0       -1.633047   -0.215045    2.916586
     65          1           0       -2.267716    0.480326    2.378468
     66          1           0       -1.573795    0.036790    3.970833
     67          1           0       -2.007334   -1.225984    2.794081
     68         16           0        0.050402   -0.193258    2.203280
     69          1           0        0.237482    1.120310    2.371776
 ---------------------------------------------------------------------
 Rotational constants (GHZ):           0.1111094           0.1092733           0.0596862
 Standard basis: def2TZVP (5D, 7F)
 There are  1546 symmetry adapted cartesian basis functions of A   symmetry.
 There are  1359 symmetry adapted basis functions of A   symmetry.
  1359 basis functions,  2212 primitive gaussians,  1546 cartesian basis functions
   146 alpha electrons      141 beta electrons
       nuclear repulsion energy      5035.5147618661 Hartrees.
 NAtoms=   69 NActive=   69 NUniq=   69 SFac= 1.00D+00 NAtFMM=   60 NAOKFM=T Big=T
 Integral buffers will be    131072 words long.
 Raffenetti 2 integral format.
 Two-electron integral symmetry is turned on.
 R6APFD:  NTU= -4 IXU= 1 FactS= 1.050
 Nuclear repulsion after empirical dispersion term =     5035.3800676554 Hartrees.
 One-electron integrals computed using PRISM.
   1 Symmetry operations used in ECPInt.
 ECPInt:  NShTT=  146611 NPrTT=  457451 LenC2=  115661 LenP2D=  240940.
 LDataN:  DoStor=T MaxTD1= 6 Len=  172
 Number of processors reduced to  26 by ecpmxn.
 NBasis=  1359 RedAO= T EigKep=  3.83D-06  NBF=  1359
 NBsUse=  1359 1.00D-06 EigRej= -1.00D+00 NBFU=  1359
 Initial guess from the checkpoint file:  "1dt6_III_Hn.chk"
 B after Tr=     0.000000    0.000000   -0.000000
         Rot=    1.000000   -0.000000   -0.000000    0.000000 Ang=   0.00 deg.
 Initial guess <Sx>= 0.0000 <Sy>= 0.0000 <Sz>= 2.5000 <S**2>= 8.7637 S= 2.5023
 Requested convergence on RMS density matrix=1.00D-08 within 999 cycles.
 Requested convergence on MAX density matrix=1.00D-06.
 Requested convergence on             energy=1.00D-06.
 No special actions if energy rises.
 EnCoef did     5 forward-backward iterations
 SCF Done:  E(UAPFD) =  -3080.56441703     A.U. after   18 cycles
            NFock= 18  Conv=0.84D-08     -V/T= 2.0029
 <Sx>= 0.0000 <Sy>= 0.0000 <Sz>= 2.5000 <S**2>= 8.7654 S= 2.5026
 <L.S>=  0.00000000000    
 Annihilation of the first spin contaminant:
 S**2 before annihilation     8.7654,   after     8.7501

 **********************************************************************

            Population analysis using the SCF Density.

 **********************************************************************

 Orbital symmetries:
 Alpha Orbitals:
       Occupied  (A) (A) (A) (A) (A) (A) (A) (A) (A) (A) (A) (A)
                 (A) (A) (A) (A) (A) (A) (A) (A) (A) (A) (A) (A)
                 (A) (A) (A) (A) (A) (A) (A) (A) (A) (A) (A) (A)
                 (A) (A) (A) (A) (A) (A) (A) (A) (A) (A) (A) (A)
                 (A) (A) (A) (A) (A) (A) (A) (A) (A) (A) (A) (A)
                 (A) (A) (A) (A) (A) (A) (A) (A) (A) (A) (A) (A)
                 (A) (A) (A) (A) (A) (A) (A) (A) (A) (A) (A) (A)
                 (A) (A) (A) (A) (A) (A) (A) (A) (A) (A) (A) (A)
                 (A) (A) (A) (A) (A) (A) (A) (A) (A) (A) (A) (A)
                 (A) (A) (A) (A) (A) (A) (A) (A) (A) (A) (A) (A)
                 (A) (A) (A) (A) (A) (A) (A) (A) (A) (A) (A) (A)
                 (A) (A) (A) (A) (A) (A) (A) (A) (A) (A) (A) (A)
                 (A) (A)
       Virtual   (A) (A) (A) (A) (A) (A) (A) (A) (A) (A) (A) (A)
                 (A) (A) (A) (A) (A) (A) (A) (A) (A) (A) (A) (A)
                 (A) (A) (A) (A) (A) (A) (A) (A) (A) (A) (A) (A)
                 (A) (A) (A) (A) (A) (A) (A) (A) (A) (A) (A) (A)
                 (A) (A) (A) (A) (A) (A) (A) (A) (A) (A) (A) (A)
                 (A) (A) (A) (A) (A) (A) (A) (A) (A) (A) (A) (A)
                 (A) (A) (A) (A) (A) (A) (A) (A) (A) (A) (A) (A)
                 (A) (A) (A) (A) (A) (A) (A) (A) (A) (A) (A) (A)
                 (A) (A) (A) (A) (A) (A) (A) (A) (A) (A) (A) (A)
                 (A) (A) (A) (A) (A) (A) (A) (A) (A) (A) (A) (A)
                 (A) (A) (A) (A) (A) (A) (A) (A) (A) (A) (A) (A)
                 (A) (A) (A) (A) (A) (A) (A) (A) (A) (A) (A) (A)
                 (A) (A) (A) (A) (A) (A) (A) (A) (A) (A) (A) (A)
                 (A) (A) (A) (A) (A) (A) (A) (A) (A) (A) (A) (A)
                 (A) (A) (A) (A) (A) (A) (A) (A) (A) (A) (A) (A)
                 (A) (A) (A) (A) (A) (A) (A) (A) (A) (A) (A) (A)
                 (A) (A) (A) (A) (A) (A) (A) (A) (A) (A) (A) (A)
                 (A) (A) (A) (A) (A) (A) (A) (A) (A) (A) (A) (A)
                 (A) (A) (A) (A) (A) (A) (A) (A) (A) (A) (A) (A)
                 (A) (A) (A) (A) (A) (A) (A) (A) (A) (A) (A) (A)
                 (A) (A) (A) (A) (A) (A) (A) (A) (A) (A) (A) (A)
                 (A) (A) (A) (A) (A) (A) (A) (A) (A) (A) (A) (A)
                 (A) (A) (A) (A) (A) (A) (A) (A) (A) (A) (A) (A)
                 (A) (A) (A) (A) (A) (A) (A) (A) (A) (A) (A) (A)
                 (A) (A) (A) (A) (A) (A) (A) (A) (A) (A) (A) (A)
                 (A) (A) (A) (A) (A) (A) (A) (A) (A) (A) (A) (A)
                 (A) (A) (A) (A) (A) (A) (A) (A) (A) (A) (A) (A)
                 (A) (A) (A) (A) (A) (A) (A) (A) (A) (A) (A) (A)
                 (A) (A) (A) (A) (A) (A) (A) (A) (A) (A) (A) (A)
                 (A) (A) (A) (A) (A) (A) (A) (A) (A) (A) (A) (A)
                 (A) (A) (A) (A) (A) (A) (A) (A) (A) (A) (A) (A)
                 (A) (A) (A) (A) (A) (A) (A) (A) (A) (A) (A) (A)
                 (A) (A) (A) (A) (A) (A) (A) (A) (A) (A) (A) (A)
                 (A) (A) (A) (A) (A) (A) (A) (A) (A) (A) (A) (A)
                 (A) (A) (A) (A) (A) (A) (A) (A) (A) (A) (A) (A)
                 (A) (A) (A) (A) (A) (A) (A) (A) (A) (A) (A) (A)
                 (A) (A) (A) (A) (A) (A) (A) (A) (A) (A) (A) (A)
                 (A) (A) (A) (A) (A) (A) (A) (A) (A) (A) (A) (A)
                 (A) (A) (A) (A) (A) (A) (A) (A) (A) (A) (A) (A)
                 (A) (A) (A) (A) (A) (A) (A) (A) (A) (A) (A) (A)
                 (A) (A) (A) (A) (A) (A) (A) (A) (A) (A) (A) (A)
                 (A) (A) (A) (A) (A) (A) (A) (A) (A) (A) (A) (A)
                 (A) (A) (A) (A) (A) (A) (A) (A) (A) (A) (A) (A)
                 (A) (A) (A) (A) (A) (A) (A) (A) (A) (A) (A) (A)
                 (A) (A) (A) (A) (A) (A) (A) (A) (A) (A) (A) (A)
                 (A) (A) (A) (A) (A) (A) (A) (A) (A) (A) (A) (A)
                 (A) (A) (A) (A) (A) (A) (A) (A) (A) (A) (A) (A)
                 (A) (A) (A) (A) (A) (A) (A) (A) (A) (A) (A) (A)
                 (A) (A) (A) (A) (A) (A) (A) (A) (A) (A) (A) (A)
                 (A) (A) (A) (A) (A) (A) (A) (A) (A) (A) (A) (A)
                 (A) (A) (A) (A) (A) (A) (A) (A) (A) (A) (A) (A)
                 (A) (A) (A) (A) (A) (A) (A) (A) (A) (A) (A) (A)
                 (A) (A) (A) (A) (A) (A) (A) (A) (A) (A) (A) (A)
                 (A) (A) (A) (A) (A) (A) (A) (A) (A) (A) (A) (A)
                 (A) (A) (A) (A) (A) (A) (A) (A) (A) (A) (A) (A)
                 (A) (A) (A) (A) (A) (A) (A) (A) (A) (A) (A) (A)
                 (A) (A) (A) (A) (A) (A) (A) (A) (A) (A) (A) (A)
                 (A) (A) (A) (A) (A) (A) (A) (A) (A) (A) (A) (A)
                 (A) (A) (A) (A) (A) (A) (A) (A) (A) (A) (A) (A)
                 (A) (A) (A) (A) (A) (A) (A) (A) (A) (A) (A) (A)
                 (A) (A) (A) (A) (A) (A) (A) (A) (A) (A) (A) (A)
                 (A) (A) (A) (A) (A) (A) (A) (A) (A) (A) (A) (A)
                 (A) (A) (A) (A) (A) (A) (A) (A) (A) (A) (A) (A)
                 (A) (A) (A) (A) (A) (A) (A) (A) (A) (A) (A) (A)
                 (A) (A) (A) (A) (A) (A) (A) (A) (A) (A) (A) (A)
                 (A) (A) (A) (A) (A) (A) (A) (A) (A) (A) (A) (A)
                 (A) (A) (A) (A) (A) (A) (A) (A) (A) (A) (A) (A)
                 (A) (A) (A) (A) (A) (A) (A) (A) (A) (A) (A) (A)
                 (A) (A) (A) (A) (A) (A) (A) (A) (A) (A) (A) (A)
                 (A) (A) (A) (A) (A) (A) (A) (A) (A) (A) (A) (A)
                 (A) (A) (A) (A) (A) (A) (A) (A) (A) (A) (A) (A)
                 (A) (A) (A) (A) (A) (A) (A) (A) (A) (A) (A) (A)
                 (A) (A) (A) (A) (A) (A) (A) (A) (A) (A) (A) (A)
                 (A) (A) (A) (A) (A) (A) (A) (A) (A) (A) (A) (A)
                 (A) (A) (A) (A) (A) (A) (A) (A) (A) (A) (A) (A)
                 (A) (A) (A) (A) (A) (A) (A) (A) (A) (A) (A) (A)
                 (A) (A) (A) (A) (A) (A) (A) (A) (A) (A) (A) (A)
                 (A) (A) (A) (A) (A) (A) (A) (A) (A) (A) (A) (A)
                 (A) (A) (A) (A) (A) (A) (A) (A) (A) (A) (A) (A)
                 (A) (A) (A) (A) (A) (A) (A) (A) (A) (A) (A) (A)
                 (A) (A) (A) (A) (A) (A) (A) (A) (A) (A) (A) (A)
                 (A) (A) (A) (A) (A) (A) (A) (A) (A) (A) (A) (A)
                 (A) (A) (A) (A) (A) (A) (A) (A) (A) (A) (A) (A)
                 (A) (A) (A) (A) (A) (A) (A) (A) (A) (A) (A) (A)
                 (A) (A) (A) (A) (A) (A) (A) (A) (A) (A) (A) (A)
                 (A) (A) (A) (A) (A) (A) (A) (A) (A) (A) (A) (A)
                 (A) (A) (A) (A) (A) (A) (A) (A) (A) (A) (A) (A)
                 (A) (A) (A) (A) (A) (A) (A) (A) (A) (A) (A) (A)
                 (A) (A) (A) (A) (A) (A) (A) (A) (A) (A) (A) (A)
                 (A) (A) (A) (A) (A) (A) (A) (A) (A) (A) (A) (A)
                 (A) (A) (A) (A) (A) (A) (A) (A) (A) (A) (A) (A)
                 (A) (A) (A) (A) (A) (A) (A) (A) (A) (A) (A) (A)
                 (A) (A) (A) (A) (A) (A) (A) (A) (A) (A) (A) (A)
                 (A) (A) (A) (A) (A) (A) (A) (A) (A) (A) (A) (A)
                 (A) (A) (A) (A) (A) (A) (A) (A) (A) (A) (A) (A)
                 (A) (A) (A) (A) (A) (A) (A) (A) (A) (A) (A) (A)
                 (A) (A) (A) (A) (A) (A) (A) (A) (A) (A) (A) (A)
                 (A) (A) (A) (A) (A) (A) (A) (A) (A) (A) (A) (A)
                 (A) (A) (A) (A) (A) (A) (A) (A) (A) (A) (A) (A)
                 (A) (A) (A) (A) (A) (A) (A) (A) (A) (A) (A) (A)
                 (A) (A) (A) (A) (A) (A) (A) (A) (A) (A) (A) (A)
                 (A)
 Beta  Orbitals:
       Occupied  (A) (A) (A) (A) (A) (A) (A) (A) (A) (A) (A) (A)
                 (A) (A) (A) (A) (A) (A) (A) (A) (A) (A) (A) (A)
                 (A) (A) (A) (A) (A) (A) (A) (A) (A) (A) (A) (A)
                 (A) (A) (A) (A) (A) (A) (A) (A) (A) (A) (A) (A)
                 (A) (A) (A) (A) (A) (A) (A) (A) (A) (A) (A) (A)
                 (A) (A) (A) (A) (A) (A) (A) (A) (A) (A) (A) (A)
                 (A) (A) (A) (A) (A) (A) (A) (A) (A) (A) (A) (A)
                 (A) (A) (A) (A) (A) (A) (A) (A) (A) (A) (A) (A)
                 (A) (A) (A) (A) (A) (A) (A) (A) (A) (A) (A) (A)
                 (A) (A) (A) (A) (A) (A) (A) (A) (A) (A) (A) (A)
                 (A) (A) (A) (A) (A) (A) (A) (A) (A) (A) (A) (A)
                 (A) (A) (A) (A) (A) (A) (A) (A) (A)
       Virtual   (A) (A) (A) (A) (A) (A) (A) (A) (A) (A) (A) (A)
                 (A) (A) (A) (A) (A) (A) (A) (A) (A) (A) (A) (A)
                 (A) (A) (A) (A) (A) (A) (A) (A) (A) (A) (A) (A)
                 (A) (A) (A) (A) (A) (A) (A) (A) (A) (A) (A) (A)
                 (A) (A) (A) (A) (A) (A) (A) (A) (A) (A) (A) (A)
                 (A) (A) (A) (A) (A) (A) (A) (A) (A) (A) (A) (A)
                 (A) (A) (A) (A) (A) (A) (A) (A) (A) (A) (A) (A)
                 (A) (A) (A) (A) (A) (A) (A) (A) (A) (A) (A) (A)
                 (A) (A) (A) (A) (A) (A) (A) (A) (A) (A) (A) (A)
                 (A) (A) (A) (A) (A) (A) (A) (A) (A) (A) (A) (A)
                 (A) (A) (A) (A) (A) (A) (A) (A) (A) (A) (A) (A)
                 (A) (A) (A) (A) (A) (A) (A) (A) (A) (A) (A) (A)
                 (A) (A) (A) (A) (A) (A) (A) (A) (A) (A) (A) (A)
                 (A) (A) (A) (A) (A) (A) (A) (A) (A) (A) (A) (A)
                 (A) (A) (A) (A) (A) (A) (A) (A) (A) (A) (A) (A)
                 (A) (A) (A) (A) (A) (A) (A) (A) (A) (A) (A) (A)
                 (A) (A) (A) (A) (A) (A) (A) (A) (A) (A) (A) (A)
                 (A) (A) (A) (A) (A) (A) (A) (A) (A) (A) (A) (A)
                 (A) (A) (A) (A) (A) (A) (A) (A) (A) (A) (A) (A)
                 (A) (A) (A) (A) (A) (A) (A) (A) (A) (A) (A) (A)
                 (A) (A) (A) (A) (A) (A) (A) (A) (A) (A) (A) (A)
                 (A) (A) (A) (A) (A) (A) (A) (A) (A) (A) (A) (A)
                 (A) (A) (A) (A) (A) (A) (A) (A) (A) (A) (A) (A)
                 (A) (A) (A) (A) (A) (A) (A) (A) (A) (A) (A) (A)
                 (A) (A) (A) (A) (A) (A) (A) (A) (A) (A) (A) (A)
                 (A) (A) (A) (A) (A) (A) (A) (A) (A) (A) (A) (A)
                 (A) (A) (A) (A) (A) (A) (A) (A) (A) (A) (A) (A)
                 (A) (A) (A) (A) (A) (A) (A) (A) (A) (A) (A) (A)
                 (A) (A) (A) (A) (A) (A) (A) (A) (A) (A) (A) (A)
                 (A) (A) (A) (A) (A) (A) (A) (A) (A) (A) (A) (A)
                 (A) (A) (A) (A) (A) (A) (A) (A) (A) (A) (A) (A)
                 (A) (A) (A) (A) (A) (A) (A) (A) (A) (A) (A) (A)
                 (A) (A) (A) (A) (A) (A) (A) (A) (A) (A) (A) (A)
                 (A) (A) (A) (A) (A) (A) (A) (A) (A) (A) (A) (A)
                 (A) (A) (A) (A) (A) (A) (A) (A) (A) (A) (A) (A)
                 (A) (A) (A) (A) (A) (A) (A) (A) (A) (A) (A) (A)
                 (A) (A) (A) (A) (A) (A) (A) (A) (A) (A) (A) (A)
                 (A) (A) (A) (A) (A) (A) (A) (A) (A) (A) (A) (A)
                 (A) (A) (A) (A) (A) (A) (A) (A) (A) (A) (A) (A)
                 (A) (A) (A) (A) (A) (A) (A) (A) (A) (A) (A) (A)
                 (A) (A) (A) (A) (A) (A) (A) (A) (A) (A) (A) (A)
                 (A) (A) (A) (A) (A) (A) (A) (A) (A) (A) (A) (A)
                 (A) (A) (A) (A) (A) (A) (A) (A) (A) (A) (A) (A)
                 (A) (A) (A) (A) (A) (A) (A) (A) (A) (A) (A) (A)
                 (A) (A) (A) (A) (A) (A) (A) (A) (A) (A) (A) (A)
                 (A) (A) (A) (A) (A) (A) (A) (A) (A) (A) (A) (A)
                 (A) (A) (A) (A) (A) (A) (A) (A) (A) (A) (A) (A)
                 (A) (A) (A) (A) (A) (A) (A) (A) (A) (A) (A) (A)
                 (A) (A) (A) (A) (A) (A) (A) (A) (A) (A) (A) (A)
                 (A) (A) (A) (A) (A) (A) (A) (A) (A) (A) (A) (A)
                 (A) (A) (A) (A) (A) (A) (A) (A) (A) (A) (A) (A)
                 (A) (A) (A) (A) (A) (A) (A) (A) (A) (A) (A) (A)
                 (A) (A) (A) (A) (A) (A) (A) (A) (A) (A) (A) (A)
                 (A) (A) (A) (A) (A) (A) (A) (A) (A) (A) (A) (A)
                 (A) (A) (A) (A) (A) (A) (A) (A) (A) (A) (A) (A)
                 (A) (A) (A) (A) (A) (A) (A) (A) (A) (A) (A) (A)
                 (A) (A) (A) (A) (A) (A) (A) (A) (A) (A) (A) (A)
                 (A) (A) (A) (A) (A) (A) (A) (A) (A) (A) (A) (A)
                 (A) (A) (A) (A) (A) (A) (A) (A) (A) (A) (A) (A)
                 (A) (A) (A) (A) (A) (A) (A) (A) (A) (A) (A) (A)
                 (A) (A) (A) (A) (A) (A) (A) (A) (A) (A) (A) (A)
                 (A) (A) (A) (A) (A) (A) (A) (A) (A) (A) (A) (A)
                 (A) (A) (A) (A) (A) (A) (A) (A) (A) (A) (A) (A)
                 (A) (A) (A) (A) (A) (A) (A) (A) (A) (A) (A) (A)
                 (A) (A) (A) (A) (A) (A) (A) (A) (A) (A) (A) (A)
                 (A) (A) (A) (A) (A) (A) (A) (A) (A) (A) (A) (A)
                 (A) (A) (A) (A) (A) (A) (A) (A) (A) (A) (A) (A)
                 (A) (A) (A) (A) (A) (A) (A) (A) (A) (A) (A) (A)
                 (A) (A) (A) (A) (A) (A) (A) (A) (A) (A) (A) (A)
                 (A) (A) (A) (A) (A) (A) (A) (A) (A) (A) (A) (A)
                 (A) (A) (A) (A) (A) (A) (A) (A) (A) (A) (A) (A)
                 (A) (A) (A) (A) (A) (A) (A) (A) (A) (A) (A) (A)
                 (A) (A) (A) (A) (A) (A) (A) (A) (A) (A) (A) (A)
                 (A) (A) (A) (A) (A) (A) (A) (A) (A) (A) (A) (A)
                 (A) (A) (A) (A) (A) (A) (A) (A) (A) (A) (A) (A)
                 (A) (A) (A) (A) (A) (A) (A) (A) (A) (A) (A) (A)
                 (A) (A) (A) (A) (A) (A) (A) (A) (A) (A) (A) (A)
                 (A) (A) (A) (A) (A) (A) (A) (A) (A) (A) (A) (A)
                 (A) (A) (A) (A) (A) (A) (A) (A) (A) (A) (A) (A)
                 (A) (A) (A) (A) (A) (A) (A) (A) (A) (A) (A) (A)
                 (A) (A) (A) (A) (A) (A) (A) (A) (A) (A) (A) (A)
                 (A) (A) (A) (A) (A) (A) (A) (A) (A) (A) (A) (A)
                 (A) (A) (A) (A) (A) (A) (A) (A) (A) (A) (A) (A)
                 (A) (A) (A) (A) (A) (A) (A) (A) (A) (A) (A) (A)
                 (A) (A) (A) (A) (A) (A) (A) (A) (A) (A) (A) (A)
                 (A) (A) (A) (A) (A) (A) (A) (A) (A) (A) (A) (A)
                 (A) (A) (A) (A) (A) (A) (A) (A) (A) (A) (A) (A)
                 (A) (A) (A) (A) (A) (A) (A) (A) (A) (A) (A) (A)
                 (A) (A) (A) (A) (A) (A) (A) (A) (A) (A) (A) (A)
                 (A) (A) (A) (A) (A) (A) (A) (A) (A) (A) (A) (A)
                 (A) (A) (A) (A) (A) (A) (A) (A) (A) (A) (A) (A)
                 (A) (A) (A) (A) (A) (A) (A) (A) (A) (A) (A) (A)
                 (A) (A) (A) (A) (A) (A) (A) (A) (A) (A) (A) (A)
                 (A) (A) (A) (A) (A) (A) (A) (A) (A) (A) (A) (A)
                 (A) (A) (A) (A) (A) (A) (A) (A) (A) (A) (A) (A)
                 (A) (A) (A) (A) (A) (A) (A) (A) (A) (A) (A) (A)
                 (A) (A) (A) (A) (A) (A) (A) (A) (A) (A) (A) (A)
                 (A) (A) (A) (A) (A) (A) (A) (A) (A) (A) (A) (A)
                 (A) (A) (A) (A) (A) (A) (A) (A) (A) (A) (A) (A)
                 (A) (A) (A) (A) (A) (A) (A) (A) (A) (A) (A) (A)
                 (A) (A) (A) (A) (A) (A) (A) (A) (A) (A) (A) (A)
                 (A) (A) (A) (A) (A) (A)
 The electronic state is 6-A.
 Alpha  occ. eigenvalues -- -256.44427 -89.08955 -30.34918 -26.17993 -26.17878
 Alpha  occ. eigenvalues --  -26.17856 -14.47176 -14.47120 -14.47095 -14.46878
 Alpha  occ. eigenvalues --  -10.34379 -10.34307 -10.34289 -10.34166 -10.34139
 Alpha  occ. eigenvalues --  -10.34127 -10.34016 -10.33967 -10.33668 -10.31387
 Alpha  occ. eigenvalues --  -10.31250 -10.31152 -10.31101 -10.31086 -10.31063
 Alpha  occ. eigenvalues --  -10.31017 -10.30945 -10.30909 -10.30873 -10.30797
 Alpha  occ. eigenvalues --  -10.30779 -10.29880 -10.29711 -10.29009 -10.28916
 Alpha  occ. eigenvalues --  -10.28806 -10.28737 -10.28648 -10.28605 -10.28598
 Alpha  occ. eigenvalues --  -10.28438  -8.11826  -6.06321  -6.06100  -6.05757
 Alpha  occ. eigenvalues --   -3.79949  -2.56565  -2.56528  -2.56471  -1.10792
 Alpha  occ. eigenvalues --   -1.09765  -1.09690  -1.08730  -0.95097  -0.93893
 Alpha  occ. eigenvalues --   -0.93443  -0.93081  -0.92739  -0.92568  -0.92242
 Alpha  occ. eigenvalues --   -0.92202  -0.88073  -0.86821  -0.86767  -0.85613
 Alpha  occ. eigenvalues --   -0.84104  -0.82572  -0.81608  -0.79958  -0.79777
 Alpha  occ. eigenvalues --   -0.79476  -0.78671  -0.76632  -0.76605  -0.72153
 Alpha  occ. eigenvalues --   -0.71482  -0.70452  -0.70007  -0.66634  -0.66056
 Alpha  occ. eigenvalues --   -0.65498  -0.65221  -0.63677  -0.63480  -0.63400
 Alpha  occ. eigenvalues --   -0.62967  -0.60134  -0.59993  -0.59750  -0.59101
 Alpha  occ. eigenvalues --   -0.58621  -0.57902  -0.57327  -0.57142  -0.56580
 Alpha  occ. eigenvalues --   -0.56229  -0.56003  -0.55218  -0.55184  -0.54916
 Alpha  occ. eigenvalues --   -0.54846  -0.54685  -0.54412  -0.54135  -0.53892
 Alpha  occ. eigenvalues --   -0.53552  -0.52999  -0.52272  -0.51823  -0.51790
 Alpha  occ. eigenvalues --   -0.51575  -0.51497  -0.51319  -0.51141  -0.50999
 Alpha  occ. eigenvalues --   -0.50596  -0.50463  -0.50167  -0.50030  -0.49484
 Alpha  occ. eigenvalues --   -0.49411  -0.48874  -0.48346  -0.48044  -0.47909
 Alpha  occ. eigenvalues --   -0.47140  -0.46756  -0.46282  -0.46017  -0.45043
 Alpha  occ. eigenvalues --   -0.44743  -0.44453  -0.43988  -0.43727  -0.41276
 Alpha  occ. eigenvalues --   -0.40794  -0.39625  -0.39048  -0.38339  -0.35585
 Alpha  occ. eigenvalues --   -0.35255  -0.34553  -0.34045  -0.33742  -0.31399
 Alpha  occ. eigenvalues --   -0.30393
 Alpha virt. eigenvalues --   -0.19412  -0.19368  -0.13429  -0.10616  -0.10242
 Alpha virt. eigenvalues --   -0.09135  -0.08769  -0.07329  -0.06681  -0.05177
 Alpha virt. eigenvalues --   -0.04631  -0.04259  -0.03667  -0.03499  -0.03310
 Alpha virt. eigenvalues --   -0.02224  -0.02036  -0.01590  -0.00626  -0.00524
 Alpha virt. eigenvalues --   -0.00271   0.00105   0.00687   0.00848   0.00898
 Alpha virt. eigenvalues --    0.01216   0.01656   0.01965   0.02060   0.02460
 Alpha virt. eigenvalues --    0.02498   0.02693   0.02917   0.03231   0.03647
 Alpha virt. eigenvalues --    0.03792   0.04033   0.04131   0.04270   0.04507
 Alpha virt. eigenvalues --    0.04598   0.04918   0.05372   0.05621   0.05997
 Alpha virt. eigenvalues --    0.06308   0.06449   0.06667   0.06939   0.07048
 Alpha virt. eigenvalues --    0.07076   0.07397   0.07500   0.07766   0.07941
 Alpha virt. eigenvalues --    0.08400   0.08649   0.09029   0.09278   0.09656
 Alpha virt. eigenvalues --    0.09850   0.09884   0.10259   0.10625   0.10740
 Alpha virt. eigenvalues --    0.11120   0.11367   0.11726   0.12040   0.12201
 Alpha virt. eigenvalues --    0.12380   0.12646   0.12949   0.13372   0.13741
 Alpha virt. eigenvalues --    0.14257   0.14636   0.14792   0.14995   0.15598
 Alpha virt. eigenvalues --    0.15781   0.16024   0.16309   0.16645   0.16734
 Alpha virt. eigenvalues --    0.16763   0.16940   0.17631   0.18063   0.18231
 Alpha virt. eigenvalues --    0.18464   0.18816   0.19170   0.19424   0.19744
 Alpha virt. eigenvalues --    0.20177   0.20200   0.20311   0.20393   0.20823
 Alpha virt. eigenvalues --    0.21209   0.21286   0.21796   0.22282   0.22471
 Alpha virt. eigenvalues --    0.22634   0.23114   0.23370   0.23640   0.24065
 Alpha virt. eigenvalues --    0.24248   0.24436   0.24833   0.25088   0.25323
 Alpha virt. eigenvalues --    0.25674   0.26407   0.26519   0.26721   0.27267
 Alpha virt. eigenvalues --    0.27744   0.27966   0.28185   0.28506   0.28614
 Alpha virt. eigenvalues --    0.29045   0.29208   0.29558   0.29768   0.29986
 Alpha virt. eigenvalues --    0.30024   0.30211   0.30470   0.30698   0.31142
 Alpha virt. eigenvalues --    0.31530   0.31678   0.31974   0.32045   0.32404
 Alpha virt. eigenvalues --    0.32749   0.32935   0.33510   0.33620   0.33850
 Alpha virt. eigenvalues --    0.34047   0.34252   0.34588   0.34730   0.35027
 Alpha virt. eigenvalues --    0.35201   0.35536   0.35698   0.35999   0.36177
 Alpha virt. eigenvalues --    0.36543   0.36694   0.36964   0.37366   0.37611
 Alpha virt. eigenvalues --    0.37683   0.37955   0.38152   0.38250   0.38727
 Alpha virt. eigenvalues --    0.38890   0.39073   0.39523   0.39670   0.39794
 Alpha virt. eigenvalues --    0.40007   0.40142   0.40696   0.40998   0.41056
 Alpha virt. eigenvalues --    0.41150   0.41511   0.41850   0.42086   0.42321
 Alpha virt. eigenvalues --    0.42520   0.42676   0.43023   0.43363   0.43415
 Alpha virt. eigenvalues --    0.43753   0.43796   0.43872   0.44510   0.44623
 Alpha virt. eigenvalues --    0.44887   0.44960   0.45167   0.45719   0.46187
 Alpha virt. eigenvalues --    0.46542   0.46848   0.46943   0.47318   0.47997
 Alpha virt. eigenvalues --    0.48444   0.48583   0.48964   0.49532   0.49925
 Alpha virt. eigenvalues --    0.50172   0.50455   0.50659   0.51042   0.51915
 Alpha virt. eigenvalues --    0.51954   0.52048   0.52364   0.52562   0.52707
 Alpha virt. eigenvalues --    0.53064   0.53463   0.53758   0.54055   0.54813
 Alpha virt. eigenvalues --    0.55048   0.55238   0.55447   0.55743   0.56262
 Alpha virt. eigenvalues --    0.56707   0.57156   0.57394   0.57531   0.57740
 Alpha virt. eigenvalues --    0.57919   0.58522   0.58739   0.59163   0.59395
 Alpha virt. eigenvalues --    0.59703   0.59940   0.60203   0.60541   0.60860
 Alpha virt. eigenvalues --    0.61100   0.61531   0.61724   0.62053   0.62289
 Alpha virt. eigenvalues --    0.62599   0.62696   0.63392   0.63511   0.64110
 Alpha virt. eigenvalues --    0.64273   0.64353   0.65156   0.65613   0.65961
 Alpha virt. eigenvalues --    0.66321   0.66666   0.67204   0.67507   0.67974
 Alpha virt. eigenvalues --    0.68193   0.68933   0.69108   0.69641   0.70191
 Alpha virt. eigenvalues --    0.70495   0.70590   0.71074   0.71223   0.72379
 Alpha virt. eigenvalues --    0.72446   0.73227   0.73379   0.73719   0.74013
 Alpha virt. eigenvalues --    0.74964   0.75079   0.75456   0.75840   0.76578
 Alpha virt. eigenvalues --    0.76973   0.77004   0.77619   0.77812   0.78266
 Alpha virt. eigenvalues --    0.78673   0.79040   0.79508   0.79927   0.80240
 Alpha virt. eigenvalues --    0.80673   0.81491   0.81717   0.81891   0.82310
 Alpha virt. eigenvalues --    0.82776   0.83246   0.83476   0.84195   0.84819
 Alpha virt. eigenvalues --    0.85124   0.85322   0.85769   0.85970   0.86441
 Alpha virt. eigenvalues --    0.86835   0.87055   0.87643   0.87916   0.88232
 Alpha virt. eigenvalues --    0.88456   0.89087   0.89444   0.89835   0.90187
 Alpha virt. eigenvalues --    0.90741   0.90853   0.91205   0.91328   0.91938
 Alpha virt. eigenvalues --    0.92084   0.92363   0.92487   0.93053   0.93173
 Alpha virt. eigenvalues --    0.93312   0.93796   0.94053   0.94381   0.95501
 Alpha virt. eigenvalues --    0.95745   0.96310   0.96750   0.96808   0.97555
 Alpha virt. eigenvalues --    0.97907   0.98358   0.98778   0.98946   0.99901
 Alpha virt. eigenvalues --    1.00092   1.00797   1.01689   1.02278   1.02814
 Alpha virt. eigenvalues --    1.03078   1.03229   1.04921   1.04973   1.05593
 Alpha virt. eigenvalues --    1.06121   1.06352   1.06789   1.07256   1.07756
 Alpha virt. eigenvalues --    1.07854   1.08349   1.08519   1.09174   1.09476
 Alpha virt. eigenvalues --    1.09954   1.10400   1.11059   1.11464   1.11859
 Alpha virt. eigenvalues --    1.12640   1.12832   1.13165   1.13754   1.14127
 Alpha virt. eigenvalues --    1.14417   1.15008   1.15155   1.15814   1.16397
 Alpha virt. eigenvalues --    1.16584   1.17050   1.17138   1.17425   1.17692
 Alpha virt. eigenvalues --    1.18257   1.19009   1.19352   1.19888   1.20453
 Alpha virt. eigenvalues --    1.21073   1.22069   1.22617   1.23093   1.24377
 Alpha virt. eigenvalues --    1.24924   1.25242   1.25426   1.26601   1.26767
 Alpha virt. eigenvalues --    1.27741   1.27979   1.28702   1.29551   1.30065
 Alpha virt. eigenvalues --    1.30655   1.31470   1.32068   1.32536   1.32944
 Alpha virt. eigenvalues --    1.33786   1.33846   1.34291   1.35066   1.35192
 Alpha virt. eigenvalues --    1.35831   1.35983   1.36557   1.36895   1.37440
 Alpha virt. eigenvalues --    1.37650   1.37936   1.38457   1.38824   1.39336
 Alpha virt. eigenvalues --    1.39607   1.39648   1.40180   1.40460   1.40672
 Alpha virt. eigenvalues --    1.40936   1.41551   1.41762   1.42213   1.42628
 Alpha virt. eigenvalues --    1.42956   1.43469   1.43767   1.44320   1.44740
 Alpha virt. eigenvalues --    1.44804   1.45189   1.45485   1.45763   1.45955
 Alpha virt. eigenvalues --    1.46385   1.46808   1.47373   1.47380   1.47579
 Alpha virt. eigenvalues --    1.47705   1.48092   1.48172   1.48804   1.49041
 Alpha virt. eigenvalues --    1.49379   1.49623   1.49994   1.50475   1.50805
 Alpha virt. eigenvalues --    1.50964   1.51715   1.51785   1.52174   1.52313
 Alpha virt. eigenvalues --    1.52844   1.53240   1.53530   1.53662   1.54052
 Alpha virt. eigenvalues --    1.54485   1.54640   1.55026   1.55289   1.55462
 Alpha virt. eigenvalues --    1.55713   1.56230   1.56606   1.56890   1.57306
 Alpha virt. eigenvalues --    1.57588   1.57900   1.58306   1.58784   1.58858
 Alpha virt. eigenvalues --    1.59214   1.59869   1.60162   1.60506   1.61141
 Alpha virt. eigenvalues --    1.61693   1.62111   1.62309   1.62579   1.63529
 Alpha virt. eigenvalues --    1.63783   1.64037   1.65126   1.65429   1.65594
 Alpha virt. eigenvalues --    1.66732   1.67263   1.67491   1.67681   1.68265
 Alpha virt. eigenvalues --    1.68861   1.70118   1.70577   1.70788   1.71189
 Alpha virt. eigenvalues --    1.72237   1.72421   1.72839   1.73225   1.73813
 Alpha virt. eigenvalues --    1.74444   1.74596   1.74951   1.75278   1.75444
 Alpha virt. eigenvalues --    1.76063   1.76251   1.76541   1.77100   1.77867
 Alpha virt. eigenvalues --    1.78541   1.78575   1.79143   1.79596   1.80341
 Alpha virt. eigenvalues --    1.80953   1.81780   1.82224   1.82291   1.82976
 Alpha virt. eigenvalues --    1.83863   1.84521   1.85324   1.85713   1.86069
 Alpha virt. eigenvalues --    1.86552   1.87218   1.87942   1.88651   1.88900
 Alpha virt. eigenvalues --    1.89470   1.89656   1.89783   1.90056   1.90658
 Alpha virt. eigenvalues --    1.91029   1.91288   1.91682   1.91803   1.92896
 Alpha virt. eigenvalues --    1.93441   1.94007   1.94696   1.95373   1.95509
 Alpha virt. eigenvalues --    1.96319   1.97387   1.97653   1.97989   1.98691
 Alpha virt. eigenvalues --    1.99331   1.99590   2.00297   2.00471   2.01405
 Alpha virt. eigenvalues --    2.01893   2.02033   2.02672   2.02803   2.03655
 Alpha virt. eigenvalues --    2.04133   2.04868   2.05604   2.05755   2.06254
 Alpha virt. eigenvalues --    2.07285   2.07659   2.08153   2.08625   2.09346
 Alpha virt. eigenvalues --    2.10053   2.10798   2.11118   2.11386   2.11828
 Alpha virt. eigenvalues --    2.12040   2.13001   2.13593   2.14426   2.14681
 Alpha virt. eigenvalues --    2.15149   2.15647   2.15939   2.16262   2.16583
 Alpha virt. eigenvalues --    2.16967   2.17215   2.17451   2.18340   2.18542
 Alpha virt. eigenvalues --    2.19068   2.20183   2.20720   2.20918   2.21576
 Alpha virt. eigenvalues --    2.22609   2.23007   2.23312   2.23705   2.25030
 Alpha virt. eigenvalues --    2.25086   2.25855   2.26099   2.26736   2.26946
 Alpha virt. eigenvalues --    2.27232   2.27408   2.27850   2.28133   2.28269
 Alpha virt. eigenvalues --    2.28813   2.29141   2.29323   2.29738   2.30330
 Alpha virt. eigenvalues --    2.31447   2.32040   2.32761   2.33397   2.33964
 Alpha virt. eigenvalues --    2.34236   2.34621   2.34832   2.35386   2.35725
 Alpha virt. eigenvalues --    2.36146   2.36517   2.37060   2.37324   2.37434
 Alpha virt. eigenvalues --    2.38744   2.39349   2.39676   2.40474   2.41225
 Alpha virt. eigenvalues --    2.41913   2.42074   2.42707   2.43036   2.43477
 Alpha virt. eigenvalues --    2.44236   2.44497   2.44973   2.45547   2.45719
 Alpha virt. eigenvalues --    2.46250   2.46404   2.46691   2.47079   2.47490
 Alpha virt. eigenvalues --    2.47524   2.48207   2.48293   2.49099   2.49756
 Alpha virt. eigenvalues --    2.49998   2.50219   2.50524   2.51152   2.51176
 Alpha virt. eigenvalues --    2.52000   2.52321   2.52843   2.53854   2.54569
 Alpha virt. eigenvalues --    2.54807   2.54953   2.55195   2.55793   2.55869
 Alpha virt. eigenvalues --    2.56134   2.56723   2.57030   2.57795   2.58162
 Alpha virt. eigenvalues --    2.58535   2.58969   2.59247   2.59784   2.60416
 Alpha virt. eigenvalues --    2.60610   2.60695   2.60911   2.61222   2.62100
 Alpha virt. eigenvalues --    2.62951   2.63762   2.64133   2.64253   2.65309
 Alpha virt. eigenvalues --    2.65428   2.66351   2.66912   2.67163   2.67840
 Alpha virt. eigenvalues --    2.68163   2.68734   2.69002   2.69126   2.69815
 Alpha virt. eigenvalues --    2.70030   2.70778   2.72019   2.72303   2.72871
 Alpha virt. eigenvalues --    2.73164   2.73317   2.73870   2.74621   2.74919
 Alpha virt. eigenvalues --    2.75052   2.75139   2.75750   2.76127   2.76137
 Alpha virt. eigenvalues --    2.77433   2.77690   2.77980   2.78466   2.78760
 Alpha virt. eigenvalues --    2.79054   2.79526   2.80127   2.81384   2.81836
 Alpha virt. eigenvalues --    2.82418   2.82737   2.83146   2.83371   2.83748
 Alpha virt. eigenvalues --    2.84268   2.84404   2.84988   2.85912   2.85974
 Alpha virt. eigenvalues --    2.86485   2.87330   2.87541   2.88072   2.88516
 Alpha virt. eigenvalues --    2.88850   2.88895   2.89500   2.90302   2.90665
 Alpha virt. eigenvalues --    2.91273   2.91935   2.92138   2.92767   2.93251
 Alpha virt. eigenvalues --    2.93681   2.93885   2.94390   2.94499   2.95451
 Alpha virt. eigenvalues --    2.95788   2.96019   2.96270   2.96513   2.96725
 Alpha virt. eigenvalues --    2.97552   2.97903   2.98001   2.98401   2.98824
 Alpha virt. eigenvalues --    2.99037   2.99953   3.00142   3.00472   3.00880
 Alpha virt. eigenvalues --    3.01043   3.01469   3.01879   3.02102   3.02451
 Alpha virt. eigenvalues --    3.02787   3.03051   3.03954   3.04054   3.04461
 Alpha virt. eigenvalues --    3.04892   3.05291   3.06115   3.06430   3.06881
 Alpha virt. eigenvalues --    3.07170   3.07451   3.07560   3.07735   3.07939
 Alpha virt. eigenvalues --    3.08340   3.09092   3.09265   3.09572   3.10001
 Alpha virt. eigenvalues --    3.10132   3.10455   3.10786   3.11407   3.11541
 Alpha virt. eigenvalues --    3.11659   3.11891   3.12481   3.12778   3.13350
 Alpha virt. eigenvalues --    3.13638   3.13932   3.14251   3.14412   3.14553
 Alpha virt. eigenvalues --    3.15298   3.15472   3.15962   3.16316   3.16712
 Alpha virt. eigenvalues --    3.17298   3.17768   3.18006   3.18121   3.18497
 Alpha virt. eigenvalues --    3.19072   3.19361   3.19860   3.20005   3.20276
 Alpha virt. eigenvalues --    3.20463   3.20953   3.21103   3.21257   3.21518
 Alpha virt. eigenvalues --    3.21825   3.22104   3.22512   3.22659   3.23079
 Alpha virt. eigenvalues --    3.23438   3.23617   3.23847   3.24041   3.24319
 Alpha virt. eigenvalues --    3.24546   3.24931   3.25203   3.25407   3.25790
 Alpha virt. eigenvalues --    3.26065   3.26353   3.26695   3.27125   3.27445
 Alpha virt. eigenvalues --    3.27643   3.27928   3.28635   3.29124   3.29203
 Alpha virt. eigenvalues --    3.29983   3.30236   3.30350   3.30743   3.31329
 Alpha virt. eigenvalues --    3.31568   3.32066   3.32510   3.32678   3.32892
 Alpha virt. eigenvalues --    3.33392   3.33561   3.34238   3.34594   3.35304
 Alpha virt. eigenvalues --    3.35822   3.36096   3.36899   3.37307   3.37577
 Alpha virt. eigenvalues --    3.38393   3.38702   3.39610   3.39932   3.40141
 Alpha virt. eigenvalues --    3.40969   3.41428   3.42552   3.43233   3.43476
 Alpha virt. eigenvalues --    3.43936   3.44771   3.45126   3.45484   3.45642
 Alpha virt. eigenvalues --    3.46243   3.47101   3.47263   3.47659   3.47856
 Alpha virt. eigenvalues --    3.48101   3.49098   3.49319   3.49618   3.51103
 Alpha virt. eigenvalues --    3.51704   3.52405   3.52638   3.52753   3.52911
 Alpha virt. eigenvalues --    3.54070   3.54790   3.55658   3.55985   3.56520
 Alpha virt. eigenvalues --    3.56550   3.57327   3.58301   3.58556   3.58879
 Alpha virt. eigenvalues --    3.59325   3.59817   3.60726   3.60956   3.61267
 Alpha virt. eigenvalues --    3.61494   3.61674   3.62407   3.63010   3.63277
 Alpha virt. eigenvalues --    3.63767   3.64004   3.64502   3.65029   3.65413
 Alpha virt. eigenvalues --    3.65952   3.66470   3.67309   3.67664   3.68375
 Alpha virt. eigenvalues --    3.69366   3.70209   3.70434   3.71012   3.71451
 Alpha virt. eigenvalues --    3.72278   3.72508   3.73058   3.73648   3.74990
 Alpha virt. eigenvalues --    3.75662   3.75914   3.76208   3.76840   3.78286
 Alpha virt. eigenvalues --    3.79028   3.79448   3.80133   3.80774   3.81272
 Alpha virt. eigenvalues --    3.81689   3.82678   3.83242   3.83892   3.84465
 Alpha virt. eigenvalues --    3.84939   3.85066   3.85884   3.86451   3.87435
 Alpha virt. eigenvalues --    3.87930   3.88480   3.89089   3.89203   3.89533
 Alpha virt. eigenvalues --    3.90324   3.91099   3.91576   3.93151   3.93579
 Alpha virt. eigenvalues --    3.93762   3.94579   3.95250   3.96331   3.97183
 Alpha virt. eigenvalues --    3.97543   3.98467   3.98805   3.99039   3.99963
 Alpha virt. eigenvalues --    4.00536   4.01245   4.02614   4.02931   4.03934
 Alpha virt. eigenvalues --    4.04240   4.04506   4.05240   4.05358   4.05796
 Alpha virt. eigenvalues --    4.06184   4.06893   4.07377   4.08388   4.08659
 Alpha virt. eigenvalues --    4.09050   4.10330   4.10391   4.11271   4.11314
 Alpha virt. eigenvalues --    4.13094   4.13564   4.14168   4.15755   4.16633
 Alpha virt. eigenvalues --    4.16980   4.17737   4.18103   4.18895   4.19440
 Alpha virt. eigenvalues --    4.20074   4.20762   4.21066   4.21509   4.22910
 Alpha virt. eigenvalues --    4.23465   4.23904   4.24148   4.25582   4.26354
 Alpha virt. eigenvalues --    4.27412   4.27690   4.27751   4.28258   4.29057
 Alpha virt. eigenvalues --    4.30350   4.30602   4.31524   4.32091   4.32336
 Alpha virt. eigenvalues --    4.33297   4.33456   4.34335   4.35134   4.36005
 Alpha virt. eigenvalues --    4.36388   4.38218   4.39654   4.39813   4.40620
 Alpha virt. eigenvalues --    4.40918   4.41825   4.42953   4.43735   4.43935
 Alpha virt. eigenvalues --    4.45213   4.45604   4.46282   4.47405   4.49783
 Alpha virt. eigenvalues --    4.49922   4.51237   4.52429   4.52771   4.54772
 Alpha virt. eigenvalues --    4.55614   4.55743   4.56442   4.57642   4.58985
 Alpha virt. eigenvalues --    4.59763   4.61838   4.62883   4.63062   4.63816
 Alpha virt. eigenvalues --    4.65267   4.65680   4.67199   4.68252   4.69961
 Alpha virt. eigenvalues --    4.70558   4.71582   4.72216   4.72291   4.73127
 Alpha virt. eigenvalues --    4.73365   4.74195   4.75404   4.76705   4.77328
 Alpha virt. eigenvalues --    4.77832   4.78017   4.80121   4.80967   4.82797
 Alpha virt. eigenvalues --    4.83148   4.84720   4.86129   4.87130   4.87508
 Alpha virt. eigenvalues --    4.88403   4.88580   4.89720   4.90316   4.91579
 Alpha virt. eigenvalues --    4.92832   4.94275   4.95386   4.96459   4.97495
 Alpha virt. eigenvalues --    4.99525   5.01284   5.03963   5.05598   5.06165
 Alpha virt. eigenvalues --    5.07400   5.07969   5.08416   5.09641   5.10085
 Alpha virt. eigenvalues --    5.10902   5.11423   5.13351   5.16023   5.21502
 Alpha virt. eigenvalues --    5.22449   5.23249   5.24377   5.24604   5.25175
 Alpha virt. eigenvalues --    5.26066   5.26773   5.28707   5.34155   5.34734
 Alpha virt. eigenvalues --    5.35362   5.36631   5.36764   5.38207   5.39032
 Alpha virt. eigenvalues --    5.44937   5.46746   5.48573   5.49092   5.49582
 Alpha virt. eigenvalues --    5.52798   5.53592   5.54061   5.55351   5.60702
 Alpha virt. eigenvalues --    5.61656   5.63179   5.64538   5.65288   5.71843
 Alpha virt. eigenvalues --    5.72325   5.77160   5.86701   5.86771   5.88248
 Alpha virt. eigenvalues --    5.93409   5.95991   5.97295   5.97830   6.04638
 Alpha virt. eigenvalues --    6.10437   6.19392   6.20062   6.27560   8.92962
 Alpha virt. eigenvalues --    9.02332   9.26840  19.44076  22.20775  22.25432
 Alpha virt. eigenvalues --   22.26786  22.36035  22.36583  22.42211  22.43180
 Alpha virt. eigenvalues --   22.51561  22.52242  22.69449  22.76132  22.77515
 Alpha virt. eigenvalues --   22.79891  22.80872  22.82408  22.83166  22.89222
 Alpha virt. eigenvalues --   22.89978  23.00578  23.13128  23.18040  23.18123
 Alpha virt. eigenvalues --   23.24779  23.28724  23.38112  23.38214  23.43414
 Alpha virt. eigenvalues --   23.60411  23.64864  23.65571  23.74986  32.73840
 Alpha virt. eigenvalues --   32.76487  32.78369  32.86396
  Beta  occ. eigenvalues -- -256.44272 -89.08793 -30.25615 -26.10388 -26.10016
  Beta  occ. eigenvalues --  -26.10005 -14.46863 -14.46785 -14.46779 -14.46553
  Beta  occ. eigenvalues --  -10.34362 -10.34287 -10.34272 -10.34151 -10.34123
  Beta  occ. eigenvalues --  -10.34107 -10.33999 -10.33946 -10.33675 -10.31345
  Beta  occ. eigenvalues --  -10.31205 -10.31109 -10.31097 -10.31044 -10.31022
  Beta  occ. eigenvalues --  -10.31015 -10.30913 -10.30904 -10.30829 -10.30800
  Beta  occ. eigenvalues --  -10.30738 -10.29889 -10.29720 -10.29009 -10.28916
  Beta  occ. eigenvalues --  -10.28806 -10.28737 -10.28648 -10.28605 -10.28575
  Beta  occ. eigenvalues --  -10.28417  -8.11664  -6.06211  -6.05909  -6.05374
  Beta  occ. eigenvalues --   -3.57986  -2.33774  -2.32715  -2.32686  -1.10376
  Beta  occ. eigenvalues --   -1.09353  -1.09283  -1.08293  -0.95033  -0.93662
  Beta  occ. eigenvalues --   -0.93259  -0.92802  -0.92413  -0.92284  -0.92119
  Beta  occ. eigenvalues --   -0.92028  -0.88003  -0.86736  -0.86699  -0.85543
  Beta  occ. eigenvalues --   -0.84065  -0.82462  -0.81460  -0.79810  -0.79623
  Beta  occ. eigenvalues --   -0.79258  -0.78284  -0.76535  -0.76513  -0.71948
  Beta  occ. eigenvalues --   -0.71306  -0.70304  -0.69584  -0.66494  -0.65809
  Beta  occ. eigenvalues --   -0.64938  -0.64812  -0.63261  -0.63240  -0.62776
  Beta  occ. eigenvalues --   -0.60676  -0.59713  -0.59457  -0.58616  -0.57580
  Beta  occ. eigenvalues --   -0.57232  -0.56313  -0.55774  -0.55538  -0.55141
  Beta  occ. eigenvalues --   -0.54865  -0.54648  -0.54510  -0.54470  -0.54220
  Beta  occ. eigenvalues --   -0.53509  -0.53238  -0.52300  -0.51874  -0.51760
  Beta  occ. eigenvalues --   -0.51563  -0.51462  -0.51363  -0.51180  -0.51102
  Beta  occ. eigenvalues --   -0.50806  -0.50595  -0.50319  -0.49999  -0.49526
  Beta  occ. eigenvalues --   -0.49221  -0.49008  -0.48756  -0.48399  -0.48123
  Beta  occ. eigenvalues --   -0.47853  -0.47311  -0.47057  -0.46116  -0.45635
  Beta  occ. eigenvalues --   -0.44859  -0.44419  -0.44127  -0.43501  -0.43393
  Beta  occ. eigenvalues --   -0.41301  -0.40906  -0.40632  -0.39126  -0.38865
  Beta  occ. eigenvalues --   -0.35923  -0.35419  -0.34214  -0.33642  -0.31347
  Beta  occ. eigenvalues --   -0.30285
  Beta virt. eigenvalues --   -0.23389  -0.23245  -0.21544  -0.21380  -0.18261
  Beta virt. eigenvalues --   -0.18202  -0.13507  -0.13176  -0.10241  -0.09932
  Beta virt. eigenvalues --   -0.08941  -0.07547  -0.06806  -0.06049  -0.04842
  Beta virt. eigenvalues --   -0.04517  -0.03811  -0.03419  -0.03311  -0.03178
  Beta virt. eigenvalues --   -0.02162  -0.01884  -0.01470  -0.00592  -0.00359
  Beta virt. eigenvalues --   -0.00156   0.00277   0.00937   0.00980   0.01026
  Beta virt. eigenvalues --    0.01300   0.01833   0.02059   0.02183   0.02546
  Beta virt. eigenvalues --    0.02628   0.02830   0.03002   0.03295   0.03727
  Beta virt. eigenvalues --    0.03838   0.04133   0.04272   0.04411   0.04610
  Beta virt. eigenvalues --    0.04782   0.05349   0.05460   0.05994   0.06219
  Beta virt. eigenvalues --    0.06511   0.06775   0.06913   0.07117   0.07153
  Beta virt. eigenvalues --    0.07389   0.07522   0.07611   0.08002   0.08135
  Beta virt. eigenvalues --    0.08536   0.08847   0.09249   0.09390   0.09708
  Beta virt. eigenvalues --    0.09954   0.10207   0.10441   0.10753   0.10855
  Beta virt. eigenvalues --    0.11345   0.11548   0.11925   0.12304   0.12377
  Beta virt. eigenvalues --    0.12465   0.12960   0.13219   0.13676   0.14078
  Beta virt. eigenvalues --    0.14575   0.14756   0.15020   0.15205   0.15818
  Beta virt. eigenvalues --    0.15891   0.16099   0.16629   0.16769   0.16879
  Beta virt. eigenvalues --    0.17022   0.17409   0.17755   0.18279   0.18554
  Beta virt. eigenvalues --    0.18614   0.19010   0.19415   0.19732   0.19925
  Beta virt. eigenvalues --    0.20253   0.20335   0.20444   0.20582   0.20954
  Beta virt. eigenvalues --    0.21420   0.21462   0.21946   0.22418   0.22637
  Beta virt. eigenvalues --    0.22839   0.23205   0.23494   0.23835   0.24219
  Beta virt. eigenvalues --    0.24496   0.24735   0.25041   0.25372   0.25649
  Beta virt. eigenvalues --    0.25972   0.26606   0.26733   0.26838   0.27534
  Beta virt. eigenvalues --    0.27924   0.28171   0.28418   0.28743   0.28833
  Beta virt. eigenvalues --    0.29313   0.29340   0.29694   0.29900   0.30110
  Beta virt. eigenvalues --    0.30176   0.30348   0.30633   0.30850   0.31215
  Beta virt. eigenvalues --    0.31636   0.31826   0.32137   0.32250   0.32566
  Beta virt. eigenvalues --    0.32887   0.33241   0.33689   0.33785   0.33973
  Beta virt. eigenvalues --    0.34229   0.34478   0.34711   0.34868   0.35154
  Beta virt. eigenvalues --    0.35361   0.35652   0.35836   0.36175   0.36302
  Beta virt. eigenvalues --    0.36626   0.36855   0.37040   0.37477   0.37716
  Beta virt. eigenvalues --    0.37772   0.38082   0.38221   0.38398   0.38827
  Beta virt. eigenvalues --    0.39037   0.39204   0.39658   0.39814   0.39938
  Beta virt. eigenvalues --    0.40169   0.40337   0.40904   0.41099   0.41149
  Beta virt. eigenvalues --    0.41220   0.41574   0.41938   0.42174   0.42369
  Beta virt. eigenvalues --    0.42676   0.42828   0.43123   0.43486   0.43544
  Beta virt. eigenvalues --    0.43879   0.43965   0.43989   0.44767   0.44911
  Beta virt. eigenvalues --    0.45114   0.45214   0.45387   0.45812   0.46294
  Beta virt. eigenvalues --    0.46671   0.46932   0.47217   0.47457   0.48139
  Beta virt. eigenvalues --    0.48552   0.48821   0.49151   0.49654   0.50084
  Beta virt. eigenvalues --    0.50299   0.50699   0.50988   0.51233   0.52040
  Beta virt. eigenvalues --    0.52087   0.52154   0.52588   0.52699   0.52908
  Beta virt. eigenvalues --    0.53287   0.53639   0.53918   0.54232   0.55061
  Beta virt. eigenvalues --    0.55280   0.55354   0.55583   0.55970   0.56482
  Beta virt. eigenvalues --    0.56811   0.57295   0.57611   0.57758   0.57936
  Beta virt. eigenvalues --    0.58084   0.58667   0.58947   0.59349   0.59657
  Beta virt. eigenvalues --    0.60151   0.60204   0.60427   0.60781   0.61030
  Beta virt. eigenvalues --    0.61354   0.61617   0.61918   0.62407   0.62433
  Beta virt. eigenvalues --    0.62748   0.63044   0.63609   0.63802   0.64320
  Beta virt. eigenvalues --    0.64543   0.64615   0.65266   0.65897   0.66062
  Beta virt. eigenvalues --    0.66449   0.66821   0.67368   0.67696   0.68223
  Beta virt. eigenvalues --    0.68483   0.69190   0.69259   0.69861   0.70353
  Beta virt. eigenvalues --    0.70669   0.70740   0.71471   0.71629   0.72542
  Beta virt. eigenvalues --    0.72660   0.73407   0.73806   0.74021   0.74189
  Beta virt. eigenvalues --    0.75090   0.75210   0.75697   0.76002   0.76759
  Beta virt. eigenvalues --    0.77141   0.77195   0.77765   0.77994   0.78506
  Beta virt. eigenvalues --    0.78816   0.79204   0.79634   0.80028   0.80394
  Beta virt. eigenvalues --    0.80837   0.81663   0.81866   0.81983   0.82462
  Beta virt. eigenvalues --    0.82908   0.83348   0.83752   0.84282   0.84913
  Beta virt. eigenvalues --    0.85371   0.85730   0.85982   0.86072   0.86597
  Beta virt. eigenvalues --    0.87100   0.87239   0.87825   0.88046   0.88424
  Beta virt. eigenvalues --    0.88731   0.89253   0.89934   0.90274   0.90368
  Beta virt. eigenvalues --    0.90994   0.91171   0.91389   0.91716   0.92065
  Beta virt. eigenvalues --    0.92223   0.92615   0.92777   0.93250   0.93371
  Beta virt. eigenvalues --    0.93449   0.94107   0.94345   0.94761   0.95720
  Beta virt. eigenvalues --    0.95981   0.96785   0.96958   0.97247   0.97940
  Beta virt. eigenvalues --    0.98386   0.98529   0.98872   0.99136   1.00115
  Beta virt. eigenvalues --    1.00442   1.01100   1.01886   1.02420   1.03009
  Beta virt. eigenvalues --    1.03383   1.03802   1.05160   1.05808   1.05862
  Beta virt. eigenvalues --    1.06332   1.06883   1.07003   1.07432   1.07942
  Beta virt. eigenvalues --    1.08096   1.08576   1.08902   1.09546   1.09759
  Beta virt. eigenvalues --    1.10280   1.10834   1.11535   1.11735   1.12384
  Beta virt. eigenvalues --    1.12844   1.12987   1.13349   1.13924   1.14298
  Beta virt. eigenvalues --    1.14792   1.15187   1.15513   1.16149   1.16548
  Beta virt. eigenvalues --    1.16736   1.17232   1.17415   1.17593   1.17829
  Beta virt. eigenvalues --    1.18402   1.19279   1.19704   1.20041   1.20751
  Beta virt. eigenvalues --    1.21378   1.22258   1.22816   1.23264   1.24599
  Beta virt. eigenvalues --    1.25315   1.25547   1.25685   1.26928   1.27080
  Beta virt. eigenvalues --    1.27981   1.28244   1.28994   1.29775   1.30328
  Beta virt. eigenvalues --    1.30904   1.31659   1.32246   1.32716   1.33089
  Beta virt. eigenvalues --    1.34118   1.34142   1.34573   1.35281   1.35568
  Beta virt. eigenvalues --    1.36013   1.36383   1.36819   1.37330   1.37578
  Beta virt. eigenvalues --    1.37902   1.38183   1.38753   1.39229   1.39654
  Beta virt. eigenvalues --    1.39876   1.40041   1.40505   1.40664   1.41030
  Beta virt. eigenvalues --    1.41175   1.41760   1.42082   1.42473   1.42837
  Beta virt. eigenvalues --    1.43164   1.43581   1.43930   1.44421   1.44833
  Beta virt. eigenvalues --    1.44894   1.45261   1.45569   1.45830   1.46023
  Beta virt. eigenvalues --    1.46475   1.46888   1.47426   1.47451   1.47698
  Beta virt. eigenvalues --    1.47807   1.48214   1.48305   1.48908   1.49182
  Beta virt. eigenvalues --    1.49471   1.49727   1.50135   1.50620   1.50962
  Beta virt. eigenvalues --    1.51105   1.51849   1.51911   1.52337   1.52440
  Beta virt. eigenvalues --    1.52993   1.53326   1.53610   1.53789   1.54167
  Beta virt. eigenvalues --    1.54612   1.54726   1.55127   1.55500   1.55556
  Beta virt. eigenvalues --    1.55833   1.56314   1.56710   1.57041   1.57471
  Beta virt. eigenvalues --    1.57744   1.58020   1.58450   1.58952   1.59038
  Beta virt. eigenvalues --    1.59326   1.60019   1.60280   1.60623   1.61272
  Beta virt. eigenvalues --    1.61834   1.62417   1.62446   1.62833   1.63665
  Beta virt. eigenvalues --    1.64015   1.64355   1.65335   1.65573   1.65877
  Beta virt. eigenvalues --    1.66874   1.67481   1.67720   1.68025   1.68454
  Beta virt. eigenvalues --    1.69059   1.70499   1.70778   1.70974   1.71503
  Beta virt. eigenvalues --    1.72567   1.72656   1.73169   1.73481   1.74005
  Beta virt. eigenvalues --    1.74615   1.74730   1.75111   1.75466   1.75589
  Beta virt. eigenvalues --    1.76293   1.76336   1.76786   1.77235   1.78010
  Beta virt. eigenvalues --    1.78697   1.78785   1.79367   1.79729   1.80518
  Beta virt. eigenvalues --    1.81148   1.81945   1.82351   1.82537   1.83149
  Beta virt. eigenvalues --    1.84154   1.84785   1.85469   1.85798   1.86259
  Beta virt. eigenvalues --    1.86754   1.87364   1.88017   1.88749   1.89006
  Beta virt. eigenvalues --    1.89674   1.89801   1.89969   1.90194   1.90747
  Beta virt. eigenvalues --    1.91210   1.91554   1.91895   1.92133   1.93129
  Beta virt. eigenvalues --    1.93670   1.94313   1.95280   1.95608   1.96108
  Beta virt. eigenvalues --    1.96827   1.97522   1.98035   1.98310   1.98804
  Beta virt. eigenvalues --    1.99617   1.99789   2.00390   2.00819   2.01737
  Beta virt. eigenvalues --    2.02221   2.02505   2.02833   2.03320   2.04251
  Beta virt. eigenvalues --    2.04621   2.04957   2.05839   2.06410   2.06493
  Beta virt. eigenvalues --    2.07480   2.07820   2.08409   2.08783   2.09708
  Beta virt. eigenvalues --    2.10135   2.10979   2.11471   2.11617   2.12151
  Beta virt. eigenvalues --    2.12220   2.13177   2.13820   2.14910   2.14990
  Beta virt. eigenvalues --    2.15445   2.15806   2.16116   2.16607   2.16820
  Beta virt. eigenvalues --    2.17264   2.17537   2.18006   2.18619   2.18698
  Beta virt. eigenvalues --    2.19796   2.20350   2.21001   2.21072   2.22169
  Beta virt. eigenvalues --    2.22801   2.23416   2.23452   2.23953   2.25130
  Beta virt. eigenvalues --    2.25298   2.25938   2.26405   2.26921   2.27052
  Beta virt. eigenvalues --    2.27545   2.27637   2.27994   2.28331   2.28514
  Beta virt. eigenvalues --    2.28935   2.29360   2.29542   2.30071   2.30493
  Beta virt. eigenvalues --    2.31734   2.32306   2.33040   2.33576   2.34382
  Beta virt. eigenvalues --    2.34517   2.34978   2.35146   2.35704   2.35875
  Beta virt. eigenvalues --    2.36417   2.36937   2.37266   2.37542   2.37813
  Beta virt. eigenvalues --    2.39152   2.39700   2.39865   2.40640   2.41372
  Beta virt. eigenvalues --    2.42137   2.42355   2.42814   2.43145   2.43616
  Beta virt. eigenvalues --    2.44428   2.44607   2.45224   2.45629   2.45874
  Beta virt. eigenvalues --    2.46409   2.46507   2.46776   2.47179   2.47665
  Beta virt. eigenvalues --    2.47679   2.48300   2.48402   2.49225   2.49912
  Beta virt. eigenvalues --    2.50193   2.50386   2.50713   2.51349   2.51403
  Beta virt. eigenvalues --    2.52222   2.52490   2.52929   2.53998   2.54698
  Beta virt. eigenvalues --    2.54987   2.55120   2.55284   2.55984   2.56267
  Beta virt. eigenvalues --    2.56316   2.56859   2.57234   2.57989   2.58295
  Beta virt. eigenvalues --    2.58660   2.59154   2.59433   2.60085   2.60654
  Beta virt. eigenvalues --    2.60938   2.61011   2.61299   2.61468   2.62211
  Beta virt. eigenvalues --    2.63447   2.63994   2.64381   2.64684   2.65881
  Beta virt. eigenvalues --    2.66057   2.66747   2.67053   2.67606   2.68209
  Beta virt. eigenvalues --    2.68430   2.68823   2.69204   2.69581   2.70188
  Beta virt. eigenvalues --    2.70715   2.71049   2.72191   2.72529   2.73093
  Beta virt. eigenvalues --    2.73509   2.73660   2.74070   2.74786   2.75055
  Beta virt. eigenvalues --    2.75167   2.75321   2.75933   2.76233   2.76289
  Beta virt. eigenvalues --    2.77582   2.77940   2.78112   2.78623   2.78949
  Beta virt. eigenvalues --    2.79223   2.79642   2.80343   2.81500   2.81959
  Beta virt. eigenvalues --    2.82556   2.82891   2.83244   2.83486   2.83880
  Beta virt. eigenvalues --    2.84387   2.84606   2.85097   2.86005   2.86071
  Beta virt. eigenvalues --    2.86605   2.87453   2.87631   2.88194   2.88608
  Beta virt. eigenvalues --    2.88969   2.88988   2.89565   2.90412   2.90764
  Beta virt. eigenvalues --    2.91385   2.92045   2.92243   2.92871   2.93435
  Beta virt. eigenvalues --    2.93821   2.93974   2.94488   2.94600   2.95601
  Beta virt. eigenvalues --    2.95957   2.96130   2.96372   2.96622   2.96829
  Beta virt. eigenvalues --    2.97654   2.97993   2.98121   2.98534   2.98904
  Beta virt. eigenvalues --    2.99133   3.00088   3.00254   3.00653   3.00981
  Beta virt. eigenvalues --    3.01148   3.01647   3.02014   3.02218   3.02548
  Beta virt. eigenvalues --    3.02951   3.03180   3.04075   3.04171   3.04568
  Beta virt. eigenvalues --    3.05018   3.05520   3.06393   3.06552   3.07064
  Beta virt. eigenvalues --    3.07327   3.07687   3.07702   3.07900   3.08098
  Beta virt. eigenvalues --    3.08526   3.09204   3.09408   3.09713   3.10187
  Beta virt. eigenvalues --    3.10244   3.10541   3.10868   3.11571   3.11661
  Beta virt. eigenvalues --    3.11767   3.12045   3.12616   3.12898   3.13536
  Beta virt. eigenvalues --    3.13773   3.14109   3.14365   3.14574   3.14646
  Beta virt. eigenvalues --    3.15580   3.15725   3.16149   3.16497   3.16877
  Beta virt. eigenvalues --    3.17397   3.17896   3.18150   3.18236   3.18606
  Beta virt. eigenvalues --    3.19200   3.19488   3.19982   3.20183   3.20431
  Beta virt. eigenvalues --    3.20554   3.21113   3.21198   3.21416   3.21595
  Beta virt. eigenvalues --    3.21943   3.22309   3.22660   3.22779   3.23227
  Beta virt. eigenvalues --    3.23554   3.23768   3.24004   3.24227   3.24437
  Beta virt. eigenvalues --    3.24725   3.25087   3.25421   3.25563   3.25941
  Beta virt. eigenvalues --    3.26244   3.26583   3.26874   3.27272   3.27537
  Beta virt. eigenvalues --    3.27772   3.28050   3.28734   3.29265   3.29393
  Beta virt. eigenvalues --    3.30094   3.30430   3.30499   3.30984   3.31538
  Beta virt. eigenvalues --    3.31675   3.32215   3.32648   3.32820   3.33058
  Beta virt. eigenvalues --    3.33603   3.33690   3.34436   3.34730   3.35504
  Beta virt. eigenvalues --    3.35976   3.36291   3.37083   3.37496   3.37723
  Beta virt. eigenvalues --    3.38631   3.38966   3.39919   3.40161   3.40326
  Beta virt. eigenvalues --    3.41288   3.41671   3.43014   3.43518   3.44260
  Beta virt. eigenvalues --    3.44605   3.45278   3.45579   3.45924   3.46174
  Beta virt. eigenvalues --    3.46552   3.47199   3.47477   3.47861   3.48271
  Beta virt. eigenvalues --    3.48492   3.49581   3.49755   3.50161   3.51787
  Beta virt. eigenvalues --    3.51915   3.52641   3.53045   3.53739   3.54323
  Beta virt. eigenvalues --    3.54705   3.55174   3.55917   3.56422   3.57426
  Beta virt. eigenvalues --    3.57655   3.58261   3.58821   3.59412   3.59815
  Beta virt. eigenvalues --    3.60286   3.60389   3.61206   3.61326   3.61848
  Beta virt. eigenvalues --    3.62044   3.62316   3.63139   3.63431   3.63707
  Beta virt. eigenvalues --    3.64163   3.64586   3.64942   3.65808   3.66177
  Beta virt. eigenvalues --    3.66858   3.67300   3.68403   3.68757   3.70086
  Beta virt. eigenvalues --    3.70802   3.71148   3.71245   3.71803   3.72264
  Beta virt. eigenvalues --    3.72815   3.73453   3.74147   3.74385   3.75699
  Beta virt. eigenvalues --    3.76248   3.76449   3.76656   3.77260   3.78956
  Beta virt. eigenvalues --    3.80014   3.80454   3.81126   3.81722   3.82164
  Beta virt. eigenvalues --    3.83671   3.84321   3.85469   3.85637   3.85656
  Beta virt. eigenvalues --    3.86550   3.87289   3.87645   3.88466   3.88869
  Beta virt. eigenvalues --    3.89312   3.89836   3.90707   3.90796   3.91850
  Beta virt. eigenvalues --    3.92806   3.93715   3.94040   3.94139   3.94442
  Beta virt. eigenvalues --    3.95521   3.96410   3.98323   3.98829   3.98873
  Beta virt. eigenvalues --    3.99775   4.00348   4.00598   4.00808   4.01342
  Beta virt. eigenvalues --    4.01935   4.03546   4.04086   4.04482   4.05342
  Beta virt. eigenvalues --    4.05766   4.05933   4.06365   4.07194   4.07587
  Beta virt. eigenvalues --    4.08629   4.09502   4.09602   4.10409   4.10716
  Beta virt. eigenvalues --    4.10983   4.12186   4.13066   4.13601   4.13868
  Beta virt. eigenvalues --    4.14459   4.14842   4.15732   4.16659   4.17198
  Beta virt. eigenvalues --    4.17405   4.18344   4.18851   4.19368   4.20648
  Beta virt. eigenvalues --    4.20946   4.21405   4.22047   4.22904   4.23977
  Beta virt. eigenvalues --    4.24225   4.24506   4.26159   4.26399   4.27197
  Beta virt. eigenvalues --    4.27964   4.28169   4.28804   4.29144   4.30100
  Beta virt. eigenvalues --    4.30824   4.31062   4.31825   4.32445   4.32587
  Beta virt. eigenvalues --    4.33503   4.34014   4.34621   4.35378   4.36170
  Beta virt. eigenvalues --    4.36527   4.38344   4.39841   4.40002   4.40845
  Beta virt. eigenvalues --    4.41038   4.41971   4.43246   4.43930   4.44100
  Beta virt. eigenvalues --    4.45355   4.45774   4.46575   4.47675   4.49980
  Beta virt. eigenvalues --    4.51114   4.51867   4.52894   4.53125   4.55020
  Beta virt. eigenvalues --    4.55752   4.56051   4.56605   4.57837   4.59244
  Beta virt. eigenvalues --    4.60553   4.62091   4.63199   4.63322   4.64330
  Beta virt. eigenvalues --    4.65395   4.65886   4.67447   4.68430   4.70205
  Beta virt. eigenvalues --    4.70707   4.71724   4.72443   4.72503   4.73273
  Beta virt. eigenvalues --    4.73519   4.74399   4.75590   4.76982   4.77539
  Beta virt. eigenvalues --    4.78060   4.78360   4.80655   4.81508   4.83085
  Beta virt. eigenvalues --    4.83525   4.84972   4.86543   4.87506   4.88037
  Beta virt. eigenvalues --    4.88882   4.89082   4.90086   4.90588   4.91865
  Beta virt. eigenvalues --    4.93147   4.94461   4.95580   4.96748   4.97686
  Beta virt. eigenvalues --    4.99700   5.01454   5.04198   5.05746   5.06757
  Beta virt. eigenvalues --    5.07888   5.08335   5.08902   5.09842   5.10441
  Beta virt. eigenvalues --    5.11187   5.12177   5.13915   5.16450   5.21892
  Beta virt. eigenvalues --    5.22594   5.23669   5.24741   5.24979   5.25571
  Beta virt. eigenvalues --    5.26494   5.27201   5.28892   5.34677   5.35203
  Beta virt. eigenvalues --    5.36114   5.37084   5.37354   5.38535   5.39386
  Beta virt. eigenvalues --    5.45187   5.47030   5.48773   5.49251   5.49744
  Beta virt. eigenvalues --    5.53071   5.53924   5.54350   5.55687   5.60968
  Beta virt. eigenvalues --    5.61941   5.63525   5.64757   5.65535   5.72268
  Beta virt. eigenvalues --    5.72764   5.77826   5.87133   5.87222   5.88626
  Beta virt. eigenvalues --    5.94180   5.96598   5.98182   5.98705   6.04839
  Beta virt. eigenvalues --    6.10975   6.19593   6.20267   6.27707   8.93171
  Beta virt. eigenvalues --    9.02963   9.27114  19.44360  22.20773  22.25447
  Beta virt. eigenvalues --   22.26801  22.36037  22.36584  22.42214  22.43184
  Beta virt. eigenvalues --   22.51562  22.52243  22.69473  22.76140  22.77523
  Beta virt. eigenvalues --   22.79917  22.80897  22.82427  22.83188  22.89226
  Beta virt. eigenvalues --   22.89983  23.00581  23.13171  23.18079  23.18161
  Beta virt. eigenvalues --   23.24814  23.28755  23.38149  23.38252  23.43457
  Beta virt. eigenvalues --   23.60449  23.64898  23.65604  23.75016  32.74185
  Beta virt. eigenvalues --   32.76829  32.78711  32.86745
          Condensed to atoms (all electrons):
          Atomic-Atomic Spin Densities.
 Mulliken charges and spin densities:
               1          2
     1  Fe   0.114079   4.271339
     2  N   -0.118451   0.066259
     3  N   -0.120604   0.057535
     4  N   -0.166003   0.057562
     5  N   -0.119003   0.059926
     6  C    0.255003   0.013737
     7  C   -0.039700   0.023284
     8  C   -0.029568   0.029520
     9  C    0.249045   0.008562
    10  C    0.335632   0.010054
    11  C   -0.033717   0.025618
    12  C    0.034969   0.026669
    13  C    0.257801   0.010691
    14  C    0.263687   0.010894
    15  C   -0.087677   0.028264
    16  C    0.101359   0.024172
    17  C    0.246570   0.017020
    18  C    0.257853   0.015322
    19  C   -0.072215   0.025378
    20  C    0.014289   0.026590
    21  C    0.173896   0.013829
    22  C   -0.361104  -0.012338
    23  H    0.169826   0.000317
    24  C   -0.541380  -0.008338
    25  H    0.153663   0.000128
    26  C   -0.413168  -0.010333
    27  H    0.134643   0.000101
    28  C   -0.364924  -0.014235
    29  H    0.145223   0.000225
    30  C   -0.402256  -0.000998
    31  H    0.140188   0.000450
    32  H    0.157484   0.001399
    33  H    0.146660   0.001115
    34  C   -0.407508  -0.000804
    35  H    0.152545   0.001179
    36  H    0.154473   0.001076
    37  H    0.139424   0.000438
    38  C   -0.443375  -0.000826
    39  H    0.139061   0.000754
    40  H    0.166875   0.001449
    41  H    0.173671   0.000644
    42  C   -0.203547  -0.007510
    43  H    0.127966   0.000711
    44  C   -0.264525   0.016050
    45  H    0.156849  -0.000681
    46  H    0.150259  -0.000576
    47  C   -0.435142  -0.000803
    48  H    0.161876   0.001715
    49  H    0.143862   0.000840
    50  H    0.174303   0.000460
    51  C   -0.201218  -0.006685
    52  H    0.124420   0.000664
    53  C   -0.263299   0.014194
    54  H    0.155876  -0.000599
    55  H    0.149780  -0.000479
    56  C   -0.403069  -0.000793
    57  H    0.157212   0.001221
    58  H    0.152456   0.001053
    59  H    0.138177   0.000425
    60  C   -0.406505  -0.001223
    61  H    0.142105   0.000463
    62  H    0.154620   0.001477
    63  H    0.149706   0.001012
    64  C   -0.339034  -0.007712
    65  H    0.169652   0.002550
    66  H    0.186711   0.006111
    67  H    0.155340   0.000195
    68  S    0.014190   0.200582
    69  H    0.193716  -0.006292
 Sum of Mulliken charges =   1.00000   5.00000
[...]
  1143. RY*(   3) H  57                  0.00005     2.11491   
  1144. RY*(   4) H  57                  0.00003     2.28870   
  1145. RY*(   5) H  57                  0.00001     2.93211   
  1146. RY*(   1) H  58                  0.00030     0.84101   
  1147. RY*(   2) H  58                  0.00011     1.70182   
  1148. RY*(   3) H  58                  0.00005     2.12141   
  1149. RY*(   4) H  58                  0.00003     2.29974   
  1150. RY*(   5) H  58                  0.00001     2.93186   
  1151. RY*(   1) H  59                  0.00029     0.84366   
  1152. RY*(   2) H  59                  0.00008     1.88303   
  1153. RY*(   3) H  59                  0.00005     2.10075   
  1154. RY*(   4) H  59                  0.00003     2.22870   
  1155. RY*(   5) H  59                  0.00000     2.94270   
  1156. RY*(   1) C  60                  0.00060     1.00257   
  1157. RY*(   2) C  60                  0.00060     0.79647   
  1158. RY*(   3) C  60                  0.00034     1.57910   
  1159. RY*(   4) C  60                  0.00011     1.10214   
  1160. RY*(   5) C  60                  0.00005     1.11398   
  1161. RY*(   6) C  60                  0.00005     1.10650   
  1162. RY*(   7) C  60                  0.00002     1.41658   
  1163. RY*(   8) C  60                  0.00001     1.65462   
  1164. RY*(   9) C  60                  0.00001     1.52860   
  1165. RY*(  10) C  60                  0.00000     2.21713   
  1166. RY*(  11) C  60                  0.00000     3.18999   
  1167. RY*(  12) C  60                  0.00001     1.51091   
  1168. RY*(  13) C  60                  0.00000     3.09674   
  1169. RY*(  14) C  60                  0.00001     1.29256   
  1170. RY*(  15) C  60                  0.00000     2.76334   
  1171. RY*(  16) C  60                  0.00000    21.46622   
  1172. RY*(  17) C  60                  0.00000     3.17788   
  1173. RY*(  18) C  60                  0.00001     1.56623   
  1174. RY*(  19) C  60                  0.00000     2.98193   
  1175. RY*(  20) C  60                  0.00000     3.16273   
  1176. RY*(  21) C  60                  0.00000     3.66782   
  1177. RY*(  22) C  60                  0.00000     3.45050   
  1178. RY*(  23) C  60                  0.00000     3.41004   
  1179. RY*(  24) C  60                  0.00000     3.31482   
  1180. RY*(  25) C  60                  0.00000     3.53565   
  1181. RY*(  26) C  60                  0.00000     3.67581   
  1182. RY*(   1) H  61                  0.00029     0.84204   
  1183. RY*(   2) H  61                  0.00008     1.87032   
  1184. RY*(   3) H  61                  0.00005     2.10894   
  1185. RY*(   4) H  61                  0.00003     2.23304   
  1186. RY*(   5) H  61                  0.00000     2.94124   
  1187. RY*(   1) H  62                  0.00033     0.86775   
  1188. RY*(   2) H  62                  0.00011     1.65356   
  1189. RY*(   3) H  62                  0.00004     2.11166   
  1190. RY*(   4) H  62                  0.00003     2.26984   
  1191. RY*(   5) H  62                  0.00001     2.93401   
  1192. RY*(   1) H  63                  0.00028     0.84751   
  1193. RY*(   2) H  63                  0.00011     1.69683   
  1194. RY*(   3) H  63                  0.00005     2.13437   
  1195. RY*(   4) H  63                  0.00003     2.32108   
  1196. RY*(   5) H  63                  0.00001     2.92435   
  1197. RY*(   1) C  64                  0.00059     1.38537   
  1198. RY*(   2) C  64                  0.00034     1.10666   
  1199. RY*(   3) C  64                  0.00023     0.75242   
  1200. RY*(   4) C  64                  0.00017     1.08320   
  1201. RY*(   5) C  64                  0.00011     1.38852   
  1202. RY*(   6) C  64                  0.00005     0.84646   
  1203. RY*(   7) C  64                  0.00005     0.89943   
  1204. RY*(   8) C  64                  0.00002     1.54688   
  1205. RY*(   9) C  64                  0.00000     1.58450   
  1206. RY*(  10) C  64                  0.00001     1.08134   
  1207. RY*(  11) C  64                  0.00001     1.11284   
  1208. RY*(  12) C  64                  0.00000    20.73467   
  1209. RY*(  13) C  64                  0.00000     2.95516   
  1210. RY*(  14) C  64                  0.00000     1.58287   
  1211. RY*(  15) C  64                  0.00000     3.09568   
  1212. RY*(  16) C  64                  0.00001     2.10303   
  1213. RY*(  17) C  64                  0.00000     3.02510   
  1214. RY*(  18) C  64                  0.00000     2.78216   
  1215. RY*(  19) C  64                  0.00000     2.83935   
  1216. RY*(  20) C  64                  0.00000     3.41512   
  1217. RY*(  21) C  64                  0.00000     3.02939   
  1218. RY*(  22) C  64                  0.00000     3.26890   
  1219. RY*(  23) C  64                  0.00000     3.01884   
  1220. RY*(  24) C  64                  0.00000     3.30704   
  1221. RY*(  25) C  64                  0.00000     3.29652   
  1222. RY*(  26) C  64                  0.00000     3.07966   
  1223. RY*(   1) H  65                  0.00036     1.46903   
  1224. RY*(   2) H  65                  0.00010     1.90937   
  1225. RY*(   3) H  65                  0.00004     2.24044   
  1226. RY*(   4) H  65                  0.00003     2.64926   
  1227. RY*(   5) H  65                  0.00001     1.88377   
  1228. RY*(   1) H  66                  0.00024     1.32191   
  1229. RY*(   2) H  66                  0.00005     1.07500   
  1230. RY*(   3) H  66                  0.00003     2.04815   
  1231. RY*(   4) H  66                  0.00004     2.04419   
  1232. RY*(   5) H  66                  0.00000     2.79296   
  1233. RY*(   1) H  67                  0.00025     1.39069   
  1234. RY*(   2) H  67                  0.00008     1.82004   
  1235. RY*(   3) H  67                  0.00003     2.15004   
  1236. RY*(   4) H  67                  0.00002     2.75225   
  1237. RY*(   5) H  67                  0.00002     1.44695   
  1238. RY*(   1) S  68                  0.00201     0.52958   
  1239. RY*(   2) S  68                  0.00151     0.59860   
  1240. RY*(   3) S  68                  0.00120     0.58794   
  1241. RY*(   4) S  68                  0.00067     0.96205   
  1242. RY*(   5) S  68                  0.00025     0.76678   
  1243. RY*(   6) S  68                  0.00019     1.39868   
  1244. RY*(   7) S  68                  0.00016     0.71716   
  1245. RY*(   8) S  68                  0.00008     1.86011   
  1246. RY*(   9) S  68                  0.00005     2.26829   
  1247. RY*(  10) S  68                  0.00005     0.74557   
  1248. RY*(  11) S  68                  0.00001     1.64649   
  1249. RY*(  12) S  68                  0.00002     1.42630   
  1250. RY*(  13) S  68                  0.00000    17.67200   
  1251. RY*(  14) S  68                  0.00000     2.23633   
  1252. RY*(  15) S  68                  0.00000     8.42297   
  1253. RY*(  16) S  68                  0.00001     2.26378   
  1254. RY*(  17) S  68                  0.00000     8.25151   
  1255. RY*(  18) S  68                  0.00001     2.41638   
  1256. RY*(  19) S  68                  0.00001     1.69439   
  1257. RY*(  20) S  68                  0.00000     8.39371   
  1258. RY*(  21) S  68                  0.00001     1.74250   
  1259. RY*(  22) S  68                  0.00001     2.04730   
  1260. RY*(  23) S  68                  0.00000     1.91460   
  1261. RY*(  24) S  68                  0.00000     1.92259   
  1262. RY*(  25) S  68                  0.00000     1.86943   
  1263. RY*(  26) S  68                  0.00000     1.80039   
  1264. RY*(  27) S  68                  0.00000     1.85440   
  1265. RY*(  28) S  68                  0.00000     2.05813   
  1266. RY*(   1) H  69                  0.00073     0.83406   
  1267. RY*(   2) H  69                  0.00013     1.75989   
  1268. RY*(   3) H  69                  0.00011     1.88506   
  1269. RY*(   4) H  69                  0.00005     1.92855   
  1270. RY*(   5) H  69                  0.00001     2.49166   
  1271. BD*(   1)Fe   1 - N   2          0.03003     0.19820   
  1272. BD*(   1)Fe   1 - N   3          0.02937     0.20137   
  1273. BD*(   1)Fe   1 - N   4          0.03098     0.19941   
  1274. BD*(   1)Fe   1 - N   5          0.03223     0.20959   
  1275. BD*(   1)Fe   1 - S  68          0.02012     0.02647   
  1276. BD*(   1) N   2 - C   6          0.01361     0.38141   
  1277. BD*(   2) N   2 - C   6          0.33334    -0.11709  1322(v),1291(v),1296(v)
                                                    140(v),278(g),141(v),174(g)
                                                    693(v),177(g),277(g)
  1278. BD*(   1) N   2 - C   9          0.01376     0.37708   
  1279. BD*(   1) N   3 - C  10          0.01395     0.37239   
  1280. BD*(   2) N   3 - C  10          0.33940    -0.12079  1296(v),1300(v),1305(v)
                                                    139(v),141(v),382(g),200(g)
                                                    724(v),383(g),203(g)
  1281. BD*(   1) N   3 - C  13          0.01324     0.37907   
  1282. BD*(   1) N   4 - C  14          0.01381     0.36980   
  1283. BD*(   2) N   4 - C  14          0.33887    -0.11996  1305(v),1309(v),143(v)
                                                    140(v),141(v),487(g),226(g)
                                                    759(v)
  1284. BD*(   1) N   4 - C  17          0.01292     0.37639   
  1285. BD*(   1) N   5 - C  18          0.01353     0.38418   
  1286. BD*(   2) N   5 - C  18          0.32833    -0.11258  1317(v),1322(v),139(v)
                                                    590(g),141(v),252(g),589(g)
                                                    255(g)
  1287. BD*(   1) N   5 - C  21          0.01333     0.37737   
  1288. BD*(   1) C   6 - C   7          0.01735     0.37166   
  1289. BD*(   1) C   6 - C  22          0.01019     0.45570   
  1290. BD*(   1) C   7 - C   8          0.01158     0.49243   
  1291. BD*(   2) C   7 - C   8          0.12033    -0.04490  1296(v),1277(v),1328(v)
                                                    1330(v),1331(v),1329(v)
  1292. BD*(   1) C   7 - C  34          0.00793     0.30856   
  1293. BD*(   1) C   8 - C   9          0.01750     0.37237   
  1294. BD*(   1) C   8 - C  30          0.00798     0.30742   
  1295. BD*(   1) C   9 - C  24          0.01023     0.45159   
  1296. BD*(   2) C   9 - C  24          0.19588    -0.07410  1280(v),1291(v),1277(v)
                                                    1305(r),1322(r),724(g)
  1297. BD*(   1) C  10 - C  11          0.01705     0.37953   
  1298. BD*(   1) C  10 - C  24          0.01034     0.44801   
  1299. BD*(   1) C  11 - C  12          0.01260     0.47620   
  1300. BD*(   2) C  11 - C  12          0.13872    -0.04900  1338(v),1305(v),1280(v)
                                                    1334(v),1333(v)
  1301. BD*(   1) C  11 - C  38          0.00757     0.30971   
  1302. BD*(   1) C  12 - C  13          0.01689     0.36901   
  1303. BD*(   1) C  12 - C  42          0.01323     0.38745   
  1304. BD*(   1) C  13 - C  26          0.01013     0.45597   
  1305. BD*(   2) C  13 - C  26          0.19484    -0.07336  1283(v),1300(v),1280(v)
                                                    1296(r),1322(r),755(g)
  1306. BD*(   1) C  14 - C  15          0.01727     0.37843   
  1307. BD*(   1) C  14 - C  26          0.01035     0.45402   
  1308. BD*(   1) C  15 - C  16          0.01249     0.47940   
  1309. BD*(   2) C  15 - C  16          0.13549    -0.04636  1346(v),1283(v),143(v)
                                                    1341(v),1342(v)
  1310. BD*(   1) C  15 - C  47          0.00755     0.31155   
  1311. BD*(   1) C  16 - C  17          0.01693     0.36711   
  1312. BD*(   1) C  16 - C  51          0.01322     0.38873   
  1313. BD*(   1) C  17 - C  28          0.01010     0.45666   
  1314. BD*(   1) C  18 - C  19          0.01744     0.37249   
  1315. BD*(   1) C  18 - C  28          0.01016     0.45860   
  1316. BD*(   1) C  19 - C  20          0.01156     0.49721   
  1317. BD*(   2) C  19 - C  20          0.11604    -0.04115  1322(v),1286(v),1353(v)
                                                    1349(v),1350(v),1354(v)
  1318. BD*(   1) C  19 - C  56          0.00794     0.31110   
  1319. BD*(   1) C  20 - C  21          0.01728     0.36941   
  1320. BD*(   1) C  20 - C  60          0.00796     0.31002   
  1321. BD*(   1) C  21 - C  22          0.00995     0.45399   
  1322. BD*(   2) C  21 - C  22          0.19384    -0.07311  1277(v),1317(v),1286(v)
                                                    1296(r),693(g),1305(r)
  1323. BD*(   1) C  22 - H  23          0.00608     0.31915   
  1324. BD*(   1) C  24 - H  25          0.00624     0.31998   
  1325. BD*(   1) C  26 - H  27          0.00644     0.32021   
  1326. BD*(   1) C  28 - H  29          0.00633     0.32046   
  1327. BD*(   1) C  30 - H  31          0.00294     0.29576   
  1328. BD*(   1) C  30 - H  32          0.00451     0.28254   
  1329. BD*(   1) C  30 - H  33          0.00413     0.28154   
  1330. BD*(   1) C  34 - H  35          0.00442     0.28199   
  1331. BD*(   1) C  34 - H  36          0.00419     0.28437   
  1332. BD*(   1) C  34 - H  37          0.00294     0.29617   
  1333. BD*(   1) C  38 - H  39          0.00421     0.28645   
  1334. BD*(   1) C  38 - H  40          0.00509     0.28225   
  1335. BD*(   1) C  38 - H  41          0.00362     0.29686   
  1336. BD*(   1) C  42 - H  43          0.01021     0.32310   
  1337. BD*(   1) C  42 - C  44          0.00361     0.53345   
  1338. BD*(   2) C  42 - C  44          0.02683    -0.03849   
  1339. BD*(   1) C  44 - H  45          0.00504     0.34080   
  1340. BD*(   1) C  44 - H  46          0.00378     0.34591   
  1341. BD*(   1) C  47 - H  48          0.00501     0.28295   
  1342. BD*(   1) C  47 - H  49          0.00425     0.28990   
  1343. BD*(   1) C  47 - H  50          0.00362     0.29915   
  1344. BD*(   1) C  51 - H  52          0.01030     0.32593   
  1345. BD*(   1) C  51 - C  53          0.00359     0.53422   
  1346. BD*(   2) C  51 - C  53          0.02666    -0.03590   
  1347. BD*(   1) C  53 - H  54          0.00506     0.34211   
  1348. BD*(   1) C  53 - H  55          0.00379     0.34742   
  1349. BD*(   1) C  56 - H  57          0.00438     0.28589   
  1350. BD*(   1) C  56 - H  58          0.00419     0.28621   
  1351. BD*(   1) C  56 - H  59          0.00293     0.29874   
  1352. BD*(   1) C  60 - H  61          0.00296     0.29786   
  1353. BD*(   1) C  60 - H  62          0.00474     0.28360   
  1354. BD*(   1) C  60 - H  63          0.00382     0.28636   
  1355. BD*(   1) C  64 - H  65          0.00573     0.26501   
  1356. BD*(   1) C  64 - H  66          0.00412     0.25830   
  1357. BD*(   1) C  64 - H  67          0.00350     0.25409   
  1358. BD*(   1) C  64 - S  68          0.00696     0.02183   
  1359. BD*(   1) S  68 - H  69          0.00726     0.06973   
       -------------------------------
              Total Lewis  137.11817  ( 97.2469%)
        Valence non-Lewis    3.64762  (  2.5870%)
        Rydberg non-Lewis    0.23421  (  0.1661%)
       -------------------------------
            Total unit  1  141.00000  (100.0000%)
           Charge unit  1    3.00000
 Unable to Open any file for archive entry.
 1\1\GINC-BGN1021\SP\UAPFD\def2TZVP\C31H32Fe1N4S1(1+,6)\BEBJONES\11-Jul
 -2024\0\\# apfd/def2TZVP guess=read scf=maxcycle=999 geom=check pop=nb
 o\\1dt6_III_H\\1,6\Fe,0,-11.2976794024,-20.2459256478,-31.5524695338\N
 ,0,-11.2507838204,-20.5584607688,-29.5895603647\N,0,-9.7741818915,-21.
 5055376949,-31.8142530501\N,0,-11.5028977021,-20.0727064028,-33.558056
 0841\N,0,-12.9306468804,-19.1071006135,-31.3340293403\C,0,-11.97905895
 73,-19.9047242566,-28.6455622795\C,0,-11.5248417463,-20.2545167966,-27
 .3189759838\C,0,-10.5221135552,-21.1591696273,-27.4824401574\C,0,-10.3
 531283658,-21.3238643302,-28.9079317805\C,0,-9.0552085812,-22.12414014
 49,-30.8330829913\C,0,-7.9117197055,-22.8004439978,-31.385884136\C,0,-
 7.9606783386,-22.5961788119,-32.7398001166\C,0,-9.1403261822,-21.79188
 18683,-32.9829535763\C,0,-10.6495315115,-20.5772462945,-34.4937916456\
 C,0,-11.0125609019,-20.1299687643,-35.8138397557\C,0,-12.1309451487,-1
 9.3557498127,-35.6621266131\C,0,-12.407069089,-19.3203834766,-34.23863
 51908\C,0,-13.5764139561,-18.4008716544,-32.2983478046\C,0,-14.6282952
 913,-17.5915803474,-31.7239060002\C,0,-14.6194718392,-17.8462593279,-3
 0.3895719642\C,0,-13.5444141572,-18.7880319137,-30.15983011\C,0,-13.04
 23144562,-19.060769706,-28.9023474173\H,0,-13.5594334337,-18.638368541
 9,-28.0552028856\C,0,-9.3506629182,-22.0825079208,-29.481306736\H,0,-8
 .7022542307,-22.6288604413,-28.8141497912\C,0,-9.5598091628,-21.387886
 4936,-34.2351818169\H,0,-8.962709558,-21.6946329242,-35.079378681\C,0,
 -13.3135263623,-18.4597471093,-33.6524219487\H,0,-13.918018168,-17.845
 2790664,-34.3001385596\C,0,-9.7075053978,-21.8640632835,-26.4535577662
 \H,0,-10.0547830977,-21.6201298919,-25.4529065248\H,0,-8.6588526211,-2
 1.576244876,-26.5320970308\H,0,-9.7730697053,-22.9441476721,-26.585929
 1809\C,0,-12.1051595331,-19.7041375611,-26.0625155111\H,0,-13.15741760
 91,-19.9761309022,-25.9743427386\H,0,-12.0351803704,-18.6166734468,-26
 .0545108626\H,0,-11.5780580319,-20.0880424744,-25.1928272835\C,0,-6.93
 89535678,-23.6147385114,-30.6079138353\H,0,-7.4439134219,-24.177170733
 1,-29.8237585897\H,0,-6.1898635174,-22.9770267093,-30.1362650696\H,0,-
 6.4287958013,-24.3149947168,-31.2660574227\C,0,-7.0599437232,-23.06890
 50774,-33.7687026738\H,0,-7.5194372055,-23.3087741902,-34.7204971174\C
 ,0,-5.746646077,-23.2147069853,-33.6306819003\H,0,-5.232426058,-22.945
 0521964,-32.7248094933\H,0,-5.1337524573,-23.5838609938,-34.4359382342
 \C,0,-10.2535374315,-20.4287527933,-37.0584079321\H,0,-10.5062533146,-
 21.4189498825,-37.4410318787\H,0,-9.1811625071,-20.4020582718,-36.8710
 704959\H,0,-10.4910330933,-19.6933279742,-37.8240030742\C,0,-12.903911
 8457,-18.6629566886,-36.6703482078\H,0,-13.3420483379,-17.7206817769,-
 36.3641562953\C,0,-13.1159653748,-19.0987906451,-37.9073392459\H,0,-12
 .7481652068,-20.0495744182,-38.2514941265\H,0,-13.6939404022,-18.52667
 04363,-38.6137758205\C,0,-15.517735266,-16.6903385488,-32.5079710784\H
 ,0,-16.0899423427,-17.2599418433,-33.2405380649\H,0,-14.9299836196,-15
 .943994485,-33.0422289163\H,0,-16.2149153207,-16.1725206254,-31.854256
 3293\C,0,-15.4994267971,-17.3014245669,-29.3180661854\H,0,-16.32597124
 16,-16.7400039068,-29.7461966504\H,0,-14.9377852735,-16.6354152875,-28
 .6618195769\H,0,-15.9083479664,-18.1092000138,-28.7122507083\C,0,-12.6
 090321017,-23.3014282718,-30.4315765587\H,0,-11.556222369,-23.42984642
 7,-30.2057065289\H,0,-13.0774991114,-24.2464611697,-30.6881307186\H,0,
 -13.115317795,-22.8509346983,-29.5843313234\S,0,-12.8030715023,-22.140
 9031782,-31.8311519079\H,0,-12.0382782697,-22.8402291126,-32.676660826
 4\\Version=ES64L-G16RevC.02\State=6-A\HF=-3080.564417\S2=8.765369\S2-1
 =0.\S2A=8.750069\RMSD=8.416e-09\Dipole=-0.2184806,-0.5510747,0.5782139
 \Quadrupole=-3.9817923,-12.9922,16.9739923,-23.5393754,-2.4070956,-2.8
 612556\PG=C01 [X(C31H32Fe1N4S1)]\\@
 The archive entry for this job was punched.


 KEEP CLOSE TO NATURES HEART, YOURSELF;
 AND BREAK CLEAR AWAY, ONCE IN A WHILE, AND
 CLIMB A MOUNTAIN OR SPEND A WEEK IN THE
 WOODS.  WASH YOUR SPIRIT CLEAN...
                                         -- JOHN MUIR
 Job cpu time:       0 days  8 hours 59 minutes 14.8 seconds.
 Elapsed time:       0 days  0 hours  8 minutes 33.6 seconds.
 File lengths (MBytes):  RWF=   1706 Int=      0 D2E=      0 Chk=    156 Scr=      1
 Normal termination of Gaussian 16 at Thu Jul 11 03:57:33 2024.
