 Entering Gaussian System, Link 0=g16
 Input=1dt605re.com
 Output=1dt605re.log
 Initial command:
 /sw/chem/gaussian/g16_C02/a100/g16/l1.exe "/local/bebjones_7927420/Gau-1334370.inp" -scrdir="/local/bebjones_7927420/"
 Entering Link 1 = /sw/chem/gaussian/g16_C02/a100/g16/l1.exe PID=   1334371.
  
 Copyright (c) 1988-2021, Gaussian, Inc.  All Rights Reserved.
  
 This is part of the Gaussian(R) 16 program.  It is based on
 the Gaussian(R) 09 system (copyright 2009, Gaussian, Inc.),
 the Gaussian(R) 03 system (copyright 2003, Gaussian, Inc.),
 the Gaussian(R) 98 system (copyright 1998, Gaussian, Inc.),
 the Gaussian(R) 94 system (copyright 1995, Gaussian, Inc.),
 the Gaussian 92(TM) system (copyright 1992, Gaussian, Inc.),
 the Gaussian 90(TM) system (copyright 1990, Gaussian, Inc.),
 the Gaussian 88(TM) system (copyright 1988, Gaussian, Inc.),
 the Gaussian 86(TM) system (copyright 1986, Carnegie Mellon
 University), and the Gaussian 82(TM) system (copyright 1983,
 Carnegie Mellon University). Gaussian is a federally registered
 trademark of Gaussian, Inc.
  
 This software contains proprietary and confidential information,
 including trade secrets, belonging to Gaussian, Inc.
  
 This software is provided under written license and may be
 used, copied, transmitted, or stored only in accord with that
 written license.
  
 The following legend is applicable only to US Government
 contracts under FAR:
  
                    RESTRICTED RIGHTS LEGEND
  
 Use, reproduction and disclosure by the US Government is
 subject to restrictions as set forth in subparagraphs (a)
 and (c) of the Commercial Computer Software - Restricted
 Rights clause in FAR 52.227-19.
  
 Gaussian, Inc.
 340 Quinnipiac St., Bldg. 40, Wallingford CT 06492
  
  
 ---------------------------------------------------------------
 Warning -- This program may not be used in any manner that
 competes with the business of Gaussian, Inc. or will provide
 assistance to any competitor of Gaussian, Inc.  The licensee
 of this program is prohibited from giving any competitor of
 Gaussian, Inc. access to this program.  By using this program,
 the user acknowledges that Gaussian, Inc. is engaged in the
 business of creating and licensing software in the field of
 computational chemistry and represents and warrants to the
 licensee that it is not a competitor of Gaussian, Inc. and that
 it will not use this program in any manner prohibited above.
 ---------------------------------------------------------------
  

 Cite this work as:
 Gaussian 16, Revision C.02,
 M. J. Frisch, G. W. Trucks, H. B. Schlegel, G. E. Scuseria, 
 M. A. Robb, J. R. Cheeseman, G. Scalmani, V. Barone, 
 G. A. Petersson, H. Nakatsuji, X. Li, M. Caricato, A. V. Marenich, 
 J. Bloino, B. G. Janesko, R. Gomperts, B. Mennucci, H. P. Hratchian, 
 J. V. Ortiz, A. F. Izmaylov, J. L. Sonnenberg, D. Williams-Young, 
 F. Ding, F. Lipparini, F. Egidi, J. Goings, B. Peng, A. Petrone, 
 T. Henderson, D. Ranasinghe, V. G. Zakrzewski, J. Gao, N. Rega, 
 G. Zheng, W. Liang, M. Hada, M. Ehara, K. Toyota, R. Fukuda, 
 J. Hasegawa, M. Ishida, T. Nakajima, Y. Honda, O. Kitao, H. Nakai, 
 T. Vreven, K. Throssell, J. A. Montgomery, Jr., J. E. Peralta, 
 F. Ogliaro, M. J. Bearpark, J. J. Heyd, E. N. Brothers, K. N. Kudin, 
 V. N. Staroverov, T. A. Keith, R. Kobayashi, J. Normand, 
 K. Raghavachari, A. P. Rendell, J. C. Burant, S. S. Iyengar, 
 J. Tomasi, M. Cossi, J. M. Millam, M. Klene, C. Adamo, R. Cammi, 
 J. W. Ochterski, R. L. Martin, K. Morokuma, O. Farkas, 
 J. B. Foresman, and D. J. Fox, Gaussian, Inc., Wallingford CT, 2019.
 
 ******************************************
 Gaussian 16:  ES64L-G16RevC.02  7-Dec-2021
                 9-Jul-2024 
 ******************************************
 %mem=16GB
 %CPU=0-71
 SetSPE:  set environment variable "OMP_PROC_BIND" = "true"
 SetSPE:  set environment variable "OMP_PLACES" = "{0},{1},{2},{3},{4},{5},{6},{7},{8},{9},{10},{11},{12},{13},{14},{15},{16},{17},{18},{19},{20},{21},{22},{23},{24},{25},{26},{27},{28},{29},{30},{31},{32},{33},{34},{35},{36},{37},{38},{39},{40},{41},{42},{43},{44},{45},{46},{47},{48},{49},{50},{51},{52},{53},{54},{55},{56},{57},{58},{59},{60},{61},{62},{63},{64},{65},{66},{67},{68},{69},{70},{71}"
 Will use up to   72 processors via shared memory.
 %gpucpu=0,1,2,3=0,1,2,3
 Will use    4 GPUs:
 Thread  CPU   GPU
      0    0     0
      1    1     1
      2    2     2
      3    3     3
      4    4    -1
      5    5    -1
      6    6    -1
      7    7    -1
      8    8    -1
      9    9    -1
     10   10    -1
     11   11    -1
     12   12    -1
     13   13    -1
     14   14    -1
     15   15    -1
     16   16    -1
     17   17    -1
     18   18    -1
     19   19    -1
     20   20    -1
     21   21    -1
     22   22    -1
     23   23    -1
     24   24    -1
     25   25    -1
     26   26    -1
     27   27    -1
     28   28    -1
     29   29    -1
     30   30    -1
     31   31    -1
     32   32    -1
     33   33    -1
     34   34    -1
     35   35    -1
     36   36    -1
     37   37    -1
     38   38    -1
     39   39    -1
     40   40    -1
     41   41    -1
     42   42    -1
     43   43    -1
     44   44    -1
     45   45    -1
     46   46    -1
     47   47    -1
     48   48    -1
     49   49    -1
     50   50    -1
     51   51    -1
     52   52    -1
     53   53    -1
     54   54    -1
     55   55    -1
     56   56    -1
     57   57    -1
     58   58    -1
     59   59    -1
     60   60    -1
     61   61    -1
     62   62    -1
     63   63    -1
     64   64    -1
     65   65    -1
     66   66    -1
     67   67    -1
     68   68    -1
     69   69    -1
     70   70    -1
     71   71    -1
 SetGPE:  set environment variable "OMP_PROC_BIND" = "true"
 SetGPE:  set environment variable "OMP_PLACES" = "{0},{1},{2},{3},{4},{5},{6},{7},{8},{9},{10},{11},{12},{13},{14},{15},{16},{17},{18},{19},{20},{21},{22},{23},{24},{25},{26},{27},{28},{29},{30},{31},{32},{33},{34},{35},{36},{37},{38},{39},{40},{41},{42},{43},{44},{45},{46},{47},{48},{49},{50},{51},{52},{53},{54},{55},{56},{57},{58},{59},{60},{61},{62},{63},{64},{65},{66},{67},{68},{69},{70},{71}"
 %oldchk=1dt6_II_S.chk
 %chk=1dt6_II_Sre.chk
 Properties for Device   0
 Minimum vector length:                              32
 Maximum vector length:                            1024
 Number of SMPs:                                    108
 Maximum number of threads per SMP:                2048
 Number of ASync Engines:                             5
 Memory:                                           9207742464
 Properties for Device   1
 Minimum vector length:                              32
 Maximum vector length:                            1024
 Number of SMPs:                                    108
 Maximum number of threads per SMP:                2048
 Number of ASync Engines:                             5
 Memory:                                           9207742464
 Properties for Device   2
 Minimum vector length:                              32
 Maximum vector length:                            1024
 Number of SMPs:                                    108
 Maximum number of threads per SMP:                2048
 Number of ASync Engines:                             5
 Memory:                                           9207742464
 Properties for Device   3
 Minimum vector length:                              32
 Maximum vector length:                            1024
 Number of SMPs:                                    108
 Maximum number of threads per SMP:                2048
 Number of ASync Engines:                             5
 Memory:                                           9207742464
   8286968217 words of memory will be used on each GPU.
 Copying data from "1dt6_II_S.chk" to current chk file "1dt6_II_Sre.chk"
 IOpt=  2 FromEx=T IUOpen= 4 IOptOp= 5 NList=   0 IFRang= 0 IUIn= 4 IUOut= 2.
 --------------------------------------
 # apfd/gen scf=maxcycle=999 geom=check
 --------------------------------------
 1/29=2,38=1,172=1/1;
 2/12=2,40=1/2;
 3/5=7,11=2,14=-4,25=1,30=1,74=-44/1,2,3;
 4//1;
 5/5=2,7=999,38=5/2;
 6/7=2,8=2,9=2,10=2,28=1/1;
 99/5=1,9=1/99;
 ---------
 1dt6_II_Q
 ---------
 Structure from the checkpoint file:  "1dt6_II_Sre.chk"
 Charge =  0 Multiplicity = 5
 Z-Matrix found in chk file.
 Fe,0,-11.2976794024,-20.2459256478,-31.5524695338
 N,0,-11.2507838204,-20.5584607688,-29.5895603647
 N,0,-9.7741818915,-21.5055376949,-31.8142530501
 N,0,-11.5028977021,-20.0727064028,-33.5580560841
 N,0,-12.9306468804,-19.1071006135,-31.3340293403
 C,0,-11.9790589573,-19.9047242566,-28.6455622795
 C,0,-11.5248417463,-20.2545167966,-27.3189759838
 C,0,-10.5221135552,-21.1591696273,-27.4824401574
 C,0,-10.3531283658,-21.3238643302,-28.9079317805
 C,0,-9.0552085812,-22.1241401449,-30.8330829913
 C,0,-7.9117197055,-22.8004439978,-31.385884136
 C,0,-7.9606783386,-22.5961788119,-32.7398001166
 C,0,-9.1403261822,-21.7918818683,-32.9829535763
 C,0,-10.6495315115,-20.5772462945,-34.4937916456
 C,0,-11.0125609019,-20.1299687643,-35.8138397557
 C,0,-12.1309451487,-19.3557498127,-35.6621266131
 C,0,-12.407069089,-19.3203834766,-34.2386351908
 C,0,-13.5764139561,-18.4008716544,-32.2983478046
 C,0,-14.6282952913,-17.5915803474,-31.7239060002
 C,0,-14.6194718392,-17.8462593279,-30.3895719642
 C,0,-13.5444141572,-18.7880319137,-30.15983011
 C,0,-13.0423144562,-19.060769706,-28.9023474173
 H,0,-13.5594334337,-18.6383685419,-28.0552028856
 C,0,-9.3506629182,-22.0825079208,-29.481306736
 H,0,-8.7022542307,-22.6288604413,-28.8141497912
 C,0,-9.5598091628,-21.3878864936,-34.2351818169
 H,0,-8.962709558,-21.6946329242,-35.079378681
 C,0,-13.3135263623,-18.4597471093,-33.6524219487
 H,0,-13.918018168,-17.8452790664,-34.3001385596
 C,0,-9.7075053978,-21.8640632835,-26.4535577662
 H,0,-10.0547830977,-21.6201298919,-25.4529065248
 H,0,-8.6588526211,-21.576244876,-26.5320970308
 H,0,-9.7730697053,-22.9441476721,-26.5859291809
 C,0,-12.1051595331,-19.7041375611,-26.0625155111
 H,0,-13.1574176091,-19.9761309022,-25.9743427386
 H,0,-12.0351803704,-18.6166734468,-26.0545108626
 H,0,-11.5780580319,-20.0880424744,-25.1928272835
 C,0,-6.9389535678,-23.6147385114,-30.6079138353
 H,0,-7.4439134219,-24.1771707331,-29.8237585897
 H,0,-6.1898635174,-22.9770267093,-30.1362650696
 H,0,-6.4287958013,-24.3149947168,-31.2660574227
 C,0,-7.0599437232,-23.0689050774,-33.7687026738
 H,0,-7.5194372055,-23.3087741902,-34.7204971174
 C,0,-5.746646077,-23.2147069853,-33.6306819003
 H,0,-5.232426058,-22.9450521964,-32.7248094933
 H,0,-5.1337524573,-23.5838609938,-34.4359382342
 C,0,-10.2535374315,-20.4287527933,-37.0584079321
 H,0,-10.5062533146,-21.4189498825,-37.4410318787
 H,0,-9.1811625071,-20.4020582718,-36.8710704959
 H,0,-10.4910330933,-19.6933279742,-37.8240030742
 C,0,-12.9039118457,-18.6629566886,-36.6703482078
 H,0,-13.3420483379,-17.7206817769,-36.3641562953
 C,0,-13.1159653748,-19.0987906451,-37.9073392459
 H,0,-12.7481652068,-20.0495744182,-38.2514941265
 H,0,-13.6939404022,-18.5266704363,-38.6137758205
 C,0,-15.517735266,-16.6903385488,-32.5079710784
 H,0,-16.0899423427,-17.2599418433,-33.2405380649
 H,0,-14.9299836196,-15.943994485,-33.0422289163
 H,0,-16.2149153207,-16.1725206254,-31.8542563293
 C,0,-15.4994267971,-17.3014245669,-29.3180661854
 H,0,-16.3259712416,-16.7400039068,-29.7461966504
 H,0,-14.9377852735,-16.6354152875,-28.6618195769
 H,0,-15.9083479664,-18.1092000138,-28.7122507083
 C,0,-12.6090321017,-23.3014282718,-30.4315765587
 H,0,-11.556222369,-23.429846427,-30.2057065289
 H,0,-13.0774991114,-24.2464611697,-30.6881307186
 H,0,-13.115317795,-22.8509346983,-29.5843313234
 S,0,-12.8030715023,-22.1409031782,-31.8311519079
 H,0,-12.0382782697,-22.8402291126,-32.6766608264
 Recover connectivity data from disk.
 Stoichiometry    C31H32FeN4S(5)
 Framework group  C1[X(C31H32FeN4S)]
 Deg. of freedom   201
 Full point group                 C1      NOp   1
 Largest Abelian subgroup         C1      NOp   1
 Largest concise Abelian subgroup C1      NOp   1
                         Standard orientation:                         
 ---------------------------------------------------------------------
 Center     Atomic      Atomic             Coordinates (Angstroms)
 Number     Number       Type             X           Y           Z
 ---------------------------------------------------------------------
      1         26           0       -0.079438   -0.174489   -0.229332
      2          7           0       -1.887776   -0.996952   -0.149590
      3          7           0       -0.876370    1.649097   -0.104309
      4          7           0        1.775340    0.624046   -0.100346
      5          7           0        0.752737   -1.995783   -0.189416
      6          6           0       -2.189074   -2.313104   -0.310378
      7          6           0       -3.619325   -2.501621   -0.396071
      8          6           0       -4.178314   -1.269600   -0.253814
      9          6           0       -3.080782   -0.339688   -0.118193
     10          6           0       -2.206261    1.955158   -0.106413
     11          6           0       -2.403768    3.377243   -0.202370
     12          6           0       -1.154247    3.938140   -0.238452
     13          6           0       -0.216572    2.836753   -0.165670
     14          6           0        2.075651    1.953361   -0.133984
     15          6           0        3.500729    2.156624   -0.181021
     16          6           0        4.066822    0.910934   -0.149237
     17          6           0        2.965242   -0.032112   -0.117467
     18          6           0        2.071880   -2.300450   -0.302222
     19          6           0        2.263769   -3.732279   -0.368805
     20          6           0        1.028146   -4.287501   -0.267069
     21          6           0        0.092330   -3.187673   -0.166609
     22          6           0       -1.269369   -3.343695   -0.337450
     23          1           0       -1.649496   -4.348803   -0.430999
     24          6           0       -3.236985    1.032094   -0.062974
     25          1           0       -4.245967    1.414150   -0.058259
     26          6           0        1.156293    2.985859   -0.149455
     27          1           0        1.544998    3.990849   -0.196292
     28          6           0        3.110674   -1.391111   -0.312349
     29          1           0        4.110758   -1.784577   -0.399142
     30          6           0       -5.615684   -0.878471   -0.246953
     31          1           0       -6.254506   -1.755636   -0.309372
     32          1           0       -5.840198   -0.229950   -1.094121
     33          1           0       -5.862184   -0.338609    0.667482
     34          6           0       -4.280365   -3.822940   -0.584541
     35          1           0       -4.057106   -4.486563    0.251378
     36          1           0       -3.926489   -4.299468   -1.498451
     37          1           0       -5.359225   -3.709043   -0.652843
     38          6           0       -3.724836    4.062082   -0.183357
     39          1           0       -4.406140    3.570865    0.510000
     40          1           0       -4.182975    4.047368   -1.173386
     41          1           0       -3.602691    5.098813    0.123307
     42          6           0       -0.780703    5.333642   -0.318911
     43          1           0        0.120997    5.609510    0.215336
     44          6           0       -1.444302    6.267812   -0.991236
     45          1           0       -2.316678    6.040131   -1.578484
     46          1           0       -1.117062    7.294060   -1.000248
     47          6           0        4.173968    3.478236   -0.301142
     48          1           0        4.243920    3.969953    0.670495
     49          1           0        3.620118    4.132791   -0.972412
     50          1           0        5.180019    3.348340   -0.694051
     51          6           0        5.466556    0.544671   -0.172608
     52          1           0        5.704608   -0.376652   -0.690386
     53          6           0        6.449525    1.236947    0.392715
     54          1           0        6.267363    2.131741    0.961810
     55          1           0        7.474813    0.912786    0.328417
     56          6           0        3.589678   -4.396434   -0.506515
     57          1           0        4.228817   -4.154799    0.342978
     58          1           0        4.091503   -4.062668   -1.414636
     59          1           0        3.476687   -5.476414   -0.555640
     60          6           0        0.636003   -5.724673   -0.259851
     61          1           0        1.512789   -6.363266   -0.188372
     62          1           0        0.100447   -5.981015   -1.174802
     63          1           0       -0.016126   -5.938306    0.586210
     64          6           0       -1.633047   -0.215045    2.916586
     65          1           0       -2.267716    0.480326    2.378468
     66          1           0       -1.573795    0.036790    3.970833
     67          1           0       -2.007334   -1.225984    2.794081
     68         16           0        0.050402   -0.193258    2.203280
     69          1           0        0.237482    1.120310    2.371776
 ---------------------------------------------------------------------
 Rotational constants (GHZ):           0.1111094           0.1092733           0.0596862
 General basis read from cards:  (5D, 7F)
 There are   644 symmetry adapted cartesian basis functions of A   symmetry.
 There are   605 symmetry adapted basis functions of A   symmetry.
   605 basis functions,  1246 primitive gaussians,   644 cartesian basis functions
   146 alpha electrons      142 beta electrons
       nuclear repulsion energy      5035.5147618661 Hartrees.
 NAtoms=   69 NActive=   69 NUniq=   69 SFac= 1.00D+00 NAtFMM=   60 NAOKFM=T Big=T
 Integral buffers will be    131072 words long.
 Raffenetti 2 integral format.
 Two-electron integral symmetry is turned on.
 R6APFD:  NTU= -4 IXU= 1 FactS= 1.050
 Nuclear repulsion after empirical dispersion term =     5035.3800676554 Hartrees.
 One-electron integrals computed using PRISM.
 NBasis=   605 RedAO= T EigKep=  2.77D-04  NBF=   605
 NBsUse=   605 1.00D-06 EigRej= -1.00D+00 NBFU=   605
 ExpMin= 4.20D-02 ExpMax= 3.01D+05 ExpMxC= 3.30D+03 IAcc=3 IRadAn=         5 AccDes= 0.00D+00
 Harris functional with IExCor= 3731 and IRadAn=       5 diagonalized for initial guess.
 HarFok:  IExCor= 3731 AccDes= 0.00D+00 IRadAn=         5 IDoV= 1 UseB2=F ITyADJ=14
 ICtDFT=  3500011 ScaDFX=  1.000000  1.000000  1.000000  1.000000
 FoFCou: FMM=F IPFlag=           0 FMFlag=      100000 FMFlg1=        2001
         NFxFlg=           0 DoJE=T BraDBF=F KetDBF=T FulRan=T
         wScrn=  0.000000 ICntrl=       500 IOpCl=  0 I1Cent=   200000004 NGrid=           0
         NMat0=    1 NMatS0=      1 NMatT0=    0 NMatD0=    1 NMtDS0=    0 NMtDT0=    0
 Petite list used in FoFCou.
 Initial guess <Sx>= 0.0000 <Sy>= 0.0000 <Sz>= 2.0000 <S**2>= 6.0000 S= 2.0000
 Requested convergence on RMS density matrix=1.00D-08 within 999 cycles.
 Requested convergence on MAX density matrix=1.00D-06.
 Requested convergence on             energy=1.00D-06.
 No special actions if energy rises.
 EnCoef did   100 forward-backward iterations
 EnCoef did   100 forward-backward iterations
 EnCoef did   100 forward-backward iterations
 EnCoef did     4 forward-backward iterations
 EnCoef did     1 forward-backward iterations
 Rare condition: small coef for last iteration:  0.000D+00
 Rare condition: small coef for last iteration:  0.000D+00
 EnCoef did   100 forward-backward iterations
 EnCoef did   100 forward-backward iterations
 Restarting incremental Fock formation.
 Rare condition: small coef for last iteration:  0.000D+00
 Rare condition: small coef for last iteration:  0.000D+00
 Rare condition: small coef for last iteration:  0.000D+00
 EnCoef did   100 forward-backward iterations
 Rare condition: small coef for last iteration:  0.000D+00
 Rare condition: small coef for last iteration:  0.000D+00
 Rare condition: small coef for last iteration:  0.000D+00
 EnCoef did   100 forward-backward iterations
 Rare condition: small coef for last iteration:  0.000D+00
 Rare condition: small coef for last iteration:  0.000D+00
 Rare condition: small coef for last iteration:  0.000D+00
 Restarting incremental Fock formation.
 EnCoef did   100 forward-backward iterations
 Rare condition: small coef for last iteration:  0.000D+00
 EnCoef did   100 forward-backward iterations
 Rare condition: small coef for last iteration:  0.000D+00
 Rare condition: small coef for last iteration:  0.000D+00
 EnCoef did   100 forward-backward iterations
 Rare condition: small coef for last iteration:  0.000D+00
 EnCoef did   100 forward-backward iterations
 Rare condition: small coef for last iteration:  0.000D+00
 Rare condition: small coef for last iteration:  0.000D+00
 Rare condition: small coef for last iteration:  0.000D+00
 Rare condition: small coef for last iteration:  0.000D+00
 Rare condition: small coef for last iteration:  0.000D+00
 Restarting incremental Fock formation.
 Rare condition: small coef for last iteration:  0.000D+00
 Rare condition: small coef for last iteration:  0.000D+00
 Rare condition: small coef for last iteration:  0.000D+00
 Rare condition: small coef for last iteration:  0.000D+00
 Rare condition: small coef for last iteration:  0.000D+00
 Rare condition: small coef for last iteration:  0.000D+00
 Rare condition: small coef for last iteration:  0.000D+00
 Rare condition: small coef for last iteration:  0.000D+00
 Rare condition: small coef for last iteration:  0.000D+00
 Rare condition: small coef for last iteration:  0.000D+00
 Rare condition: small coef for last iteration:  0.000D+00
 Rare condition: small coef for last iteration:  0.000D+00
 Restarting incremental Fock formation.
 Rare condition: small coef for last iteration:  0.000D+00
 Rare condition: small coef for last iteration:  0.000D+00
 Rare condition: small coef for last iteration:  0.000D+00
 Rare condition: small coef for last iteration:  0.000D+00
 Rare condition: small coef for last iteration:  0.000D+00
 Rare condition: small coef for last iteration:  0.000D+00
 Rare condition: small coef for last iteration:  0.000D+00
 Rare condition: small coef for last iteration:  0.000D+00
 Restarting incremental Fock formation.
 Rare condition: small coef for last iteration:  0.000D+00
 Rare condition: small coef for last iteration:  0.000D+00
 Rare condition: small coef for last iteration:  0.000D+00
 Rare condition: small coef for last iteration:  0.000D+00
 Rare condition: small coef for last iteration:  0.000D+00
 Rare condition: small coef for last iteration:  0.000D+00
 Rare condition: small coef for last iteration:  0.000D+00
 Rare condition: small coef for last iteration:  0.000D+00
 Rare condition: small coef for last iteration:  0.000D+00
 Rare condition: small coef for last iteration:  0.000D+00
 Rare condition: small coef for last iteration:  0.000D+00
 Rare condition: small coef for last iteration:  0.000D+00
 Rare condition: small coef for last iteration:  0.000D+00
 Restarting incremental Fock formation.
 Rare condition: small coef for last iteration:  0.000D+00
 Rare condition: small coef for last iteration:  0.000D+00
 Rare condition: small coef for last iteration:  0.000D+00
 Rare condition: small coef for last iteration:  0.000D+00
 Rare condition: small coef for last iteration:  0.000D+00
 Rare condition: small coef for last iteration:  0.000D+00
 Rare condition: small coef for last iteration:  0.000D+00
 Rare condition: small coef for last iteration:  0.000D+00
 Rare condition: small coef for last iteration:  0.000D+00
 Rare condition: small coef for last iteration:  0.000D+00
 Restarting incremental Fock formation.
 Rare condition: small coef for last iteration:  0.000D+00
 Rare condition: small coef for last iteration:  0.000D+00
 Rare condition: small coef for last iteration:  0.000D+00
 Rare condition: small coef for last iteration:  0.000D+00
 Rare condition: small coef for last iteration:  0.000D+00
 Rare condition: small coef for last iteration:  0.000D+00
 Rare condition: small coef for last iteration:  0.000D+00
 Rare condition: small coef for last iteration:  0.000D+00
 Rare condition: small coef for last iteration:  0.000D+00
 Rare condition: small coef for last iteration:  0.000D+00
 Restarting incremental Fock formation.
 Rare condition: small coef for last iteration:  0.000D+00
 Rare condition: small coef for last iteration:  0.000D+00
 Rare condition: small coef for last iteration:  0.000D+00
 Rare condition: small coef for last iteration:  0.000D+00
 Rare condition: small coef for last iteration:  0.000D+00
 Rare condition: small coef for last iteration:  0.000D+00
 Rare condition: small coef for last iteration:  0.000D+00
 Restarting incremental Fock formation.
 Rare condition: small coef for last iteration:  0.000D+00
 Rare condition: small coef for last iteration:  0.000D+00
 Rare condition: small coef for last iteration:  0.000D+00
 Rare condition: small coef for last iteration:  0.000D+00
 Rare condition: small coef for last iteration:  0.000D+00
 Rare condition: small coef for last iteration:  0.000D+00
 Rare condition: small coef for last iteration:  0.000D+00
 Rare condition: small coef for last iteration:  0.000D+00
 Rare condition: small coef for last iteration:  0.000D+00
 Rare condition: small coef for last iteration:  0.000D+00
 Rare condition: small coef for last iteration:  0.000D+00
 Rare condition: small coef for last iteration:  0.000D+00
 Rare condition: small coef for last iteration:  0.000D+00
 Restarting incremental Fock formation.
 Rare condition: small coef for last iteration:  0.000D+00
 Rare condition: small coef for last iteration:  0.000D+00
 Rare condition: small coef for last iteration:  0.000D+00
 Rare condition: small coef for last iteration:  0.000D+00
 Rare condition: small coef for last iteration:  0.000D+00
 Rare condition: small coef for last iteration:  0.000D+00
 Rare condition: small coef for last iteration:  0.000D+00
 Rare condition: small coef for last iteration:  0.000D+00
 Restarting incremental Fock formation.
 Rare condition: small coef for last iteration:  0.000D+00
 Rare condition: small coef for last iteration:  0.000D+00
 Rare condition: small coef for last iteration:  0.000D+00
 Rare condition: small coef for last iteration:  0.000D+00
 Rare condition: small coef for last iteration:  0.000D+00
 Rare condition: small coef for last iteration:  0.000D+00
 Rare condition: small coef for last iteration:  0.000D+00
 Rare condition: small coef for last iteration:  0.000D+00
 Rare condition: small coef for last iteration:  0.000D+00
 Rare condition: small coef for last iteration:  0.000D+00
 Rare condition: small coef for last iteration:  0.000D+00
 Rare condition: small coef for last iteration:  0.000D+00
 Rare condition: small coef for last iteration:  0.000D+00
 Restarting incremental Fock formation.
 Rare condition: small coef for last iteration:  0.000D+00
 Rare condition: small coef for last iteration:  0.000D+00
 Rare condition: small coef for last iteration:  0.000D+00
 Rare condition: small coef for last iteration:  0.000D+00
 Rare condition: small coef for last iteration:  0.000D+00
 Rare condition: small coef for last iteration:  0.000D+00
 Rare condition: small coef for last iteration:  0.000D+00
 Rare condition: small coef for last iteration:  0.000D+00
 Restarting incremental Fock formation.
 Rare condition: small coef for last iteration:  0.000D+00
 Rare condition: small coef for last iteration:  0.000D+00
 Rare condition: small coef for last iteration:  0.000D+00
 Rare condition: small coef for last iteration:  0.000D+00
 Rare condition: small coef for last iteration:  0.000D+00
 Rare condition: small coef for last iteration:  0.000D+00
 Rare condition: small coef for last iteration:  0.000D+00
 Rare condition: small coef for last iteration:  0.000D+00
 Rare condition: small coef for last iteration:  0.000D+00
 Rare condition: small coef for last iteration:  0.000D+00
 Rare condition: small coef for last iteration:  0.000D+00
 Restarting incremental Fock formation.
 Rare condition: small coef for last iteration:  0.000D+00
 Rare condition: small coef for last iteration:  0.000D+00
 Rare condition: small coef for last iteration:  0.000D+00
 Rare condition: small coef for last iteration:  0.000D+00
 Rare condition: small coef for last iteration:  0.000D+00
 Rare condition: small coef for last iteration:  0.000D+00
 Rare condition: small coef for last iteration:  0.000D+00
 Rare condition: small coef for last iteration:  0.000D+00
 Rare condition: small coef for last iteration:  0.000D+00
 Rare condition: small coef for last iteration:  0.000D+00
 Rare condition: small coef for last iteration:  0.000D+00
 Rare condition: small coef for last iteration:  0.000D+00
 Restarting incremental Fock formation.
 Rare condition: small coef for last iteration:  0.000D+00
 Rare condition: small coef for last iteration:  0.000D+00
 Rare condition: small coef for last iteration:  0.000D+00
 Rare condition: small coef for last iteration:  0.000D+00
 Rare condition: small coef for last iteration:  0.000D+00
 Rare condition: small coef for last iteration:  0.000D+00
 Rare condition: small coef for last iteration:  0.000D+00
 Rare condition: small coef for last iteration:  0.000D+00
 Rare condition: small coef for last iteration:  0.000D+00
 Restarting incremental Fock formation.
 Rare condition: small coef for last iteration:  0.000D+00
 Rare condition: small coef for last iteration:  0.000D+00
 Rare condition: small coef for last iteration:  0.000D+00
 Rare condition: small coef for last iteration:  0.000D+00
 Rare condition: small coef for last iteration:  0.000D+00
 Rare condition: small coef for last iteration:  0.000D+00
 Rare condition: small coef for last iteration:  0.000D+00
 Restarting incremental Fock formation.
 Rare condition: small coef for last iteration:  0.000D+00
 Rare condition: small coef for last iteration:  0.000D+00
 Rare condition: small coef for last iteration:  0.000D+00
 Rare condition: small coef for last iteration:  0.000D+00
 Rare condition: small coef for last iteration:  0.000D+00
 Rare condition: small coef for last iteration:  0.000D+00
 Rare condition: small coef for last iteration:  0.000D+00
 Rare condition: small coef for last iteration:  0.000D+00
 Rare condition: small coef for last iteration:  0.000D+00
 Rare condition: small coef for last iteration:  0.000D+00
 Restarting incremental Fock formation.
 Rare condition: small coef for last iteration:  0.000D+00
 Rare condition: small coef for last iteration:  0.000D+00
 Rare condition: small coef for last iteration:  0.000D+00
 Rare condition: small coef for last iteration:  0.000D+00
 Rare condition: small coef for last iteration:  0.000D+00
 Rare condition: small coef for last iteration:  0.000D+00
 Rare condition: small coef for last iteration:  0.000D+00
 Rare condition: small coef for last iteration:  0.000D+00
 Rare condition: small coef for last iteration:  0.000D+00
 Restarting incremental Fock formation.
 Rare condition: small coef for last iteration:  0.000D+00
 Rare condition: small coef for last iteration:  0.000D+00
 Rare condition: small coef for last iteration:  0.000D+00
 Rare condition: small coef for last iteration:  0.000D+00
 Rare condition: small coef for last iteration:  0.000D+00
 Rare condition: small coef for last iteration:  0.000D+00
 Rare condition: small coef for last iteration:  0.000D+00
 Rare condition: small coef for last iteration:  0.000D+00
 Rare condition: small coef for last iteration:  0.000D+00
 Rare condition: small coef for last iteration:  0.000D+00
 Restarting incremental Fock formation.
 Rare condition: small coef for last iteration:  0.000D+00
 Rare condition: small coef for last iteration:  0.000D+00
 Rare condition: small coef for last iteration:  0.000D+00
 Rare condition: small coef for last iteration:  0.000D+00
 Rare condition: small coef for last iteration:  0.000D+00
 Rare condition: small coef for last iteration:  0.000D+00
 Rare condition: small coef for last iteration:  0.000D+00
 Restarting incremental Fock formation.
 Rare condition: small coef for last iteration:  0.000D+00
 Rare condition: small coef for last iteration:  0.000D+00
 Rare condition: small coef for last iteration:  0.000D+00
 Rare condition: small coef for last iteration:  0.000D+00
 Rare condition: small coef for last iteration:  0.000D+00
 Rare condition: small coef for last iteration:  0.000D+00
 Rare condition: small coef for last iteration:  0.000D+00
 Restarting incremental Fock formation.
 Rare condition: small coef for last iteration:  0.000D+00
 Rare condition: small coef for last iteration:  0.000D+00
 Rare condition: small coef for last iteration:  0.000D+00
 Rare condition: small coef for last iteration:  0.000D+00
 Rare condition: small coef for last iteration:  0.000D+00
 Rare condition: small coef for last iteration:  0.000D+00
 Rare condition: small coef for last iteration:  0.000D+00
 Restarting incremental Fock formation.
 Rare condition: small coef for last iteration:  0.000D+00
 Rare condition: small coef for last iteration:  0.000D+00
 Rare condition: small coef for last iteration:  0.000D+00
 Rare condition: small coef for last iteration:  0.000D+00
 Rare condition: small coef for last iteration:  0.000D+00
 Rare condition: small coef for last iteration:  0.000D+00
 Rare condition: small coef for last iteration:  0.000D+00
 Rare condition: small coef for last iteration:  0.000D+00
 Rare condition: small coef for last iteration:  0.000D+00
 Restarting incremental Fock formation.
 Rare condition: small coef for last iteration:  0.000D+00
 Rare condition: small coef for last iteration:  0.000D+00
 Rare condition: small coef for last iteration:  0.000D+00
 Rare condition: small coef for last iteration:  0.000D+00
 Rare condition: small coef for last iteration:  0.000D+00
 Rare condition: small coef for last iteration:  0.000D+00
 Rare condition: small coef for last iteration:  0.000D+00
 Rare condition: small coef for last iteration:  0.000D+00
 Rare condition: small coef for last iteration:  0.000D+00
 Rare condition: small coef for last iteration:  0.000D+00
 Rare condition: small coef for last iteration:  0.000D+00
 Restarting incremental Fock formation.
 Rare condition: small coef for last iteration:  0.000D+00
 Rare condition: small coef for last iteration:  0.000D+00
 Rare condition: small coef for last iteration:  0.000D+00
 Rare condition: small coef for last iteration:  0.000D+00
 Rare condition: small coef for last iteration:  0.000D+00
 Rare condition: small coef for last iteration:  0.000D+00
 Rare condition: small coef for last iteration:  0.000D+00
 Rare condition: small coef for last iteration:  0.000D+00
 Rare condition: small coef for last iteration:  0.000D+00
 Rare condition: small coef for last iteration:  0.000D+00
 Restarting incremental Fock formation.
 Rare condition: small coef for last iteration:  0.000D+00
 Rare condition: small coef for last iteration:  0.000D+00
 Rare condition: small coef for last iteration:  0.000D+00
 Rare condition: small coef for last iteration:  0.000D+00
 Rare condition: small coef for last iteration:  0.000D+00
 Rare condition: small coef for last iteration:  0.000D+00
 Rare condition: small coef for last iteration:  0.000D+00
 Rare condition: small coef for last iteration:  0.000D+00
 Restarting incremental Fock formation.
 Rare condition: small coef for last iteration:  0.000D+00
 Rare condition: small coef for last iteration:  0.000D+00
 Rare condition: small coef for last iteration:  0.000D+00
 Rare condition: small coef for last iteration:  0.000D+00
 Rare condition: small coef for last iteration:  0.000D+00
 Rare condition: small coef for last iteration:  0.000D+00
 Restarting incremental Fock formation.
 Rare condition: small coef for last iteration:  0.000D+00
 Rare condition: small coef for last iteration:  0.000D+00
 Rare condition: small coef for last iteration:  0.000D+00
 Rare condition: small coef for last iteration:  0.000D+00
 Rare condition: small coef for last iteration:  0.000D+00
 Rare condition: small coef for last iteration:  0.000D+00
 Rare condition: small coef for last iteration:  0.000D+00
 Rare condition: small coef for last iteration:  0.000D+00
 Rare condition: small coef for last iteration:  0.000D+00
 Rare condition: small coef for last iteration:  0.000D+00
 Restarting incremental Fock formation.
 Rare condition: small coef for last iteration:  0.000D+00
 Rare condition: small coef for last iteration:  0.000D+00
 Rare condition: small coef for last iteration:  0.000D+00
 Rare condition: small coef for last iteration:  0.000D+00
 Rare condition: small coef for last iteration:  0.000D+00
 Rare condition: small coef for last iteration:  0.000D+00
 Rare condition: small coef for last iteration:  0.000D+00
 Restarting incremental Fock formation.
 Rare condition: small coef for last iteration:  0.000D+00
 Rare condition: small coef for last iteration:  0.000D+00
 Rare condition: small coef for last iteration:  0.000D+00
 Rare condition: small coef for last iteration:  0.000D+00
 Rare condition: small coef for last iteration:  0.000D+00
 Rare condition: small coef for last iteration:  0.000D+00
 Rare condition: small coef for last iteration:  0.000D+00
 Rare condition: small coef for last iteration:  0.000D+00
 Rare condition: small coef for last iteration:  0.000D+00
 Rare condition: small coef for last iteration:  0.000D+00
 Rare condition: small coef for last iteration:  0.000D+00
 Restarting incremental Fock formation.
 Rare condition: small coef for last iteration:  0.000D+00
 Rare condition: small coef for last iteration:  0.000D+00
 Rare condition: small coef for last iteration:  0.000D+00
 Rare condition: small coef for last iteration:  0.000D+00
 Rare condition: small coef for last iteration:  0.000D+00
 Rare condition: small coef for last iteration:  0.000D+00
 Rare condition: small coef for last iteration:  0.000D+00
 Rare condition: small coef for last iteration:  0.000D+00
 Rare condition: small coef for last iteration:  0.000D+00
 Rare condition: small coef for last iteration:  0.000D+00
 Rare condition: small coef for last iteration:  0.000D+00
 Restarting incremental Fock formation.
 Rare condition: small coef for last iteration:  0.000D+00
 Rare condition: small coef for last iteration:  0.000D+00
 Rare condition: small coef for last iteration:  0.000D+00
 Rare condition: small coef for last iteration:  0.000D+00
 Rare condition: small coef for last iteration:  0.000D+00
 Rare condition: small coef for last iteration:  0.000D+00
 Rare condition: small coef for last iteration:  0.000D+00
 Rare condition: small coef for last iteration:  0.000D+00
 Rare condition: small coef for last iteration:  0.000D+00
 Rare condition: small coef for last iteration:  0.000D+00
 Restarting incremental Fock formation.
 Rare condition: small coef for last iteration:  0.000D+00
 Rare condition: small coef for last iteration:  0.000D+00
 Rare condition: small coef for last iteration:  0.000D+00
 Rare condition: small coef for last iteration:  0.000D+00
 Rare condition: small coef for last iteration:  0.000D+00
 Rare condition: small coef for last iteration:  0.000D+00
 Rare condition: small coef for last iteration:  0.000D+00
 Rare condition: small coef for last iteration:  0.000D+00
 Rare condition: small coef for last iteration:  0.000D+00
 Rare condition: small coef for last iteration:  0.000D+00
 Restarting incremental Fock formation.
 Rare condition: small coef for last iteration:  0.000D+00
 Rare condition: small coef for last iteration:  0.000D+00
 Rare condition: small coef for last iteration:  0.000D+00
 Rare condition: small coef for last iteration:  0.000D+00
 Rare condition: small coef for last iteration:  0.000D+00
 Rare condition: small coef for last iteration:  0.000D+00
 Rare condition: small coef for last iteration:  0.000D+00
 Rare condition: small coef for last iteration:  0.000D+00
 Rare condition: small coef for last iteration:  0.000D+00
 Restarting incremental Fock formation.
 Rare condition: small coef for last iteration:  0.000D+00
 Rare condition: small coef for last iteration:  0.000D+00
 Rare condition: small coef for last iteration:  0.000D+00
 Rare condition: small coef for last iteration:  0.000D+00
 Rare condition: small coef for last iteration:  0.000D+00
 Rare condition: small coef for last iteration:  0.000D+00
 Rare condition: small coef for last iteration:  0.000D+00
 Rare condition: small coef for last iteration:  0.000D+00
 Rare condition: small coef for last iteration:  0.000D+00
 Rare condition: small coef for last iteration:  0.000D+00
 Restarting incremental Fock formation.
 Rare condition: small coef for last iteration:  0.000D+00
 Rare condition: small coef for last iteration:  0.000D+00
 Rare condition: small coef for last iteration:  0.000D+00
 Rare condition: small coef for last iteration:  0.000D+00
 Rare condition: small coef for last iteration:  0.000D+00
 Rare condition: small coef for last iteration:  0.000D+00
 Restarting incremental Fock formation.
 Rare condition: small coef for last iteration:  0.000D+00
 Rare condition: small coef for last iteration:  0.000D+00
 Rare condition: small coef for last iteration:  0.000D+00
 Restarting incremental Fock formation.
 Restarting incremental Fock formation.
 Restarting incremental Fock formation.
 SCF Done:  E(UAPFD) =  -3080.23510286     A.U. after  815 cycles
            NFock=815  Conv=0.76D-09     -V/T= 2.0030
 <Sx>= 0.0000 <Sy>= 0.0000 <Sz>= 2.0000 <S**2>= 6.0570 S= 2.0114
 <L.S>=  0.00000000000    
 Annihilation of the first spin contaminant:
 S**2 before annihilation     6.0570,   after     6.0003

 **********************************************************************

            Population analysis using the SCF Density.

 **********************************************************************

 Orbital symmetries:
 Alpha Orbitals:
       Occupied  (A) (A) (A) (A) (A) (A) (A) (A) (A) (A) (A) (A)
                 (A) (A) (A) (A) (A) (A) (A) (A) (A) (A) (A) (A)
                 (A) (A) (A) (A) (A) (A) (A) (A) (A) (A) (A) (A)
                 (A) (A) (A) (A) (A) (A) (A) (A) (A) (A) (A) (A)
                 (A) (A) (A) (A) (A) (A) (A) (A) (A) (A) (A) (A)
                 (A) (A) (A) (A) (A) (A) (A) (A) (A) (A) (A) (A)
                 (A) (A) (A) (A) (A) (A) (A) (A) (A) (A) (A) (A)
                 (A) (A) (A) (A) (A) (A) (A) (A) (A) (A) (A) (A)
                 (A) (A) (A) (A) (A) (A) (A) (A) (A) (A) (A) (A)
                 (A) (A) (A) (A) (A) (A) (A) (A) (A) (A) (A) (A)
                 (A) (A) (A) (A) (A) (A) (A) (A) (A) (A) (A) (A)
                 (A) (A) (A) (A) (A) (A) (A) (A) (A) (A) (A) (A)
                 (A) (A)
       Virtual   (A) (A) (A) (A) (A) (A) (A) (A) (A) (A) (A) (A)
                 (A) (A) (A) (A) (A) (A) (A) (A) (A) (A) (A) (A)
                 (A) (A) (A) (A) (A) (A) (A) (A) (A) (A) (A) (A)
                 (A) (A) (A) (A) (A) (A) (A) (A) (A) (A) (A) (A)
                 (A) (A) (A) (A) (A) (A) (A) (A) (A) (A) (A) (A)
                 (A) (A) (A) (A) (A) (A) (A) (A) (A) (A) (A) (A)
                 (A) (A) (A) (A) (A) (A) (A) (A) (A) (A) (A) (A)
                 (A) (A) (A) (A) (A) (A) (A) (A) (A) (A) (A) (A)
                 (A) (A) (A) (A) (A) (A) (A) (A) (A) (A) (A) (A)
                 (A) (A) (A) (A) (A) (A) (A) (A) (A) (A) (A) (A)
                 (A) (A) (A) (A) (A) (A) (A) (A) (A) (A) (A) (A)
                 (A) (A) (A) (A) (A) (A) (A) (A) (A) (A) (A) (A)
                 (A) (A) (A) (A) (A) (A) (A) (A) (A) (A) (A) (A)
                 (A) (A) (A) (A) (A) (A) (A) (A) (A) (A) (A) (A)
                 (A) (A) (A) (A) (A) (A) (A) (A) (A) (A) (A) (A)
                 (A) (A) (A) (A) (A) (A) (A) (A) (A) (A) (A) (A)
                 (A) (A) (A) (A) (A) (A) (A) (A) (A) (A) (A) (A)
                 (A) (A) (A) (A) (A) (A) (A) (A) (A) (A) (A) (A)
                 (A) (A) (A) (A) (A) (A) (A) (A) (A) (A) (A) (A)
                 (A) (A) (A) (A) (A) (A) (A) (A) (A) (A) (A) (A)
                 (A) (A) (A) (A) (A) (A) (A) (A) (A) (A) (A) (A)
                 (A) (A) (A) (A) (A) (A) (A) (A) (A) (A) (A) (A)
                 (A) (A) (A) (A) (A) (A) (A) (A) (A) (A) (A) (A)
                 (A) (A) (A) (A) (A) (A) (A) (A) (A) (A) (A) (A)
                 (A) (A) (A) (A) (A) (A) (A) (A) (A) (A) (A) (A)
                 (A) (A) (A) (A) (A) (A) (A) (A) (A) (A) (A) (A)
                 (A) (A) (A) (A) (A) (A) (A) (A) (A) (A) (A) (A)
                 (A) (A) (A) (A) (A) (A) (A) (A) (A) (A) (A) (A)
                 (A) (A) (A) (A) (A) (A) (A) (A) (A) (A) (A) (A)
                 (A) (A) (A) (A) (A) (A) (A) (A) (A) (A) (A) (A)
                 (A) (A) (A) (A) (A) (A) (A) (A) (A) (A) (A) (A)
                 (A) (A) (A) (A) (A) (A) (A) (A) (A) (A) (A) (A)
                 (A) (A) (A) (A) (A) (A) (A) (A) (A) (A) (A) (A)
                 (A) (A) (A) (A) (A) (A) (A) (A) (A) (A) (A) (A)
                 (A) (A) (A) (A) (A) (A) (A) (A) (A) (A) (A) (A)
                 (A) (A) (A) (A) (A) (A) (A) (A) (A) (A) (A) (A)
                 (A) (A) (A) (A) (A) (A) (A) (A) (A) (A) (A) (A)
                 (A) (A) (A) (A) (A) (A) (A) (A) (A) (A) (A) (A)
                 (A) (A) (A)
 Beta  Orbitals:
       Occupied  (A) (A) (A) (A) (A) (A) (A) (A) (A) (A) (A) (A)
                 (A) (A) (A) (A) (A) (A) (A) (A) (A) (A) (A) (A)
                 (A) (A) (A) (A) (A) (A) (A) (A) (A) (A) (A) (A)
                 (A) (A) (A) (A) (A) (A) (A) (A) (A) (A) (A) (A)
                 (A) (A) (A) (A) (A) (A) (A) (A) (A) (A) (A) (A)
                 (A) (A) (A) (A) (A) (A) (A) (A) (A) (A) (A) (A)
                 (A) (A) (A) (A) (A) (A) (A) (A) (A) (A) (A) (A)
                 (A) (A) (A) (A) (A) (A) (A) (A) (A) (A) (A) (A)
                 (A) (A) (A) (A) (A) (A) (A) (A) (A) (A) (A) (A)
                 (A) (A) (A) (A) (A) (A) (A) (A) (A) (A) (A) (A)
                 (A) (A) (A) (A) (A) (A) (A) (A) (A) (A) (A) (A)
                 (A) (A) (A) (A) (A) (A) (A) (A) (A) (A)
       Virtual   (A) (A) (A) (A) (A) (A) (A) (A) (A) (A) (A) (A)
                 (A) (A) (A) (A) (A) (A) (A) (A) (A) (A) (A) (A)
                 (A) (A) (A) (A) (A) (A) (A) (A) (A) (A) (A) (A)
                 (A) (A) (A) (A) (A) (A) (A) (A) (A) (A) (A) (A)
                 (A) (A) (A) (A) (A) (A) (A) (A) (A) (A) (A) (A)
                 (A) (A) (A) (A) (A) (A) (A) (A) (A) (A) (A) (A)
                 (A) (A) (A) (A) (A) (A) (A) (A) (A) (A) (A) (A)
                 (A) (A) (A) (A) (A) (A) (A) (A) (A) (A) (A) (A)
                 (A) (A) (A) (A) (A) (A) (A) (A) (A) (A) (A) (A)
                 (A) (A) (A) (A) (A) (A) (A) (A) (A) (A) (A) (A)
                 (A) (A) (A) (A) (A) (A) (A) (A) (A) (A) (A) (A)
                 (A) (A) (A) (A) (A) (A) (A) (A) (A) (A) (A) (A)
                 (A) (A) (A) (A) (A) (A) (A) (A) (A) (A) (A) (A)
                 (A) (A) (A) (A) (A) (A) (A) (A) (A) (A) (A) (A)
                 (A) (A) (A) (A) (A) (A) (A) (A) (A) (A) (A) (A)
                 (A) (A) (A) (A) (A) (A) (A) (A) (A) (A) (A) (A)
                 (A) (A) (A) (A) (A) (A) (A) (A) (A) (A) (A) (A)
                 (A) (A) (A) (A) (A) (A) (A) (A) (A) (A) (A) (A)
                 (A) (A) (A) (A) (A) (A) (A) (A) (A) (A) (A) (A)
                 (A) (A) (A) (A) (A) (A) (A) (A) (A) (A) (A) (A)
                 (A) (A) (A) (A) (A) (A) (A) (A) (A) (A) (A) (A)
                 (A) (A) (A) (A) (A) (A) (A) (A) (A) (A) (A) (A)
                 (A) (A) (A) (A) (A) (A) (A) (A) (A) (A) (A) (A)
                 (A) (A) (A) (A) (A) (A) (A) (A) (A) (A) (A) (A)
                 (A) (A) (A) (A) (A) (A) (A) (A) (A) (A) (A) (A)
                 (A) (A) (A) (A) (A) (A) (A) (A) (A) (A) (A) (A)
                 (A) (A) (A) (A) (A) (A) (A) (A) (A) (A) (A) (A)
                 (A) (A) (A) (A) (A) (A) (A) (A) (A) (A) (A) (A)
                 (A) (A) (A) (A) (A) (A) (A) (A) (A) (A) (A) (A)
                 (A) (A) (A) (A) (A) (A) (A) (A) (A) (A) (A) (A)
                 (A) (A) (A) (A) (A) (A) (A) (A) (A) (A) (A) (A)
                 (A) (A) (A) (A) (A) (A) (A) (A) (A) (A) (A) (A)
                 (A) (A) (A) (A) (A) (A) (A) (A) (A) (A) (A) (A)
                 (A) (A) (A) (A) (A) (A) (A) (A) (A) (A) (A) (A)
                 (A) (A) (A) (A) (A) (A) (A) (A) (A) (A) (A) (A)
                 (A) (A) (A) (A) (A) (A) (A) (A) (A) (A) (A) (A)
                 (A) (A) (A) (A) (A) (A) (A) (A) (A) (A) (A) (A)
                 (A) (A) (A) (A) (A) (A) (A) (A) (A) (A) (A) (A)
                 (A) (A) (A) (A) (A) (A) (A)
 The electronic state is 5-A.
 Alpha  occ. eigenvalues -- -256.19452 -88.94222 -30.08481 -25.93246 -25.91153
 Alpha  occ. eigenvalues --  -25.90586 -14.34951 -14.34867 -14.34744 -14.34565
 Alpha  occ. eigenvalues --  -10.22821 -10.22501 -10.22444 -10.22433 -10.22401
 Alpha  occ. eigenvalues --  -10.22260 -10.22169 -10.22048 -10.21803 -10.20656
 Alpha  occ. eigenvalues --  -10.20477 -10.20446 -10.19999 -10.19971 -10.19874
 Alpha  occ. eigenvalues --  -10.19860 -10.19859 -10.19792 -10.19749 -10.19733
 Alpha  occ. eigenvalues --  -10.19729 -10.19666 -10.19598 -10.19554 -10.19504
 Alpha  occ. eigenvalues --  -10.19409 -10.19378 -10.19366 -10.19257 -10.19144
 Alpha  occ. eigenvalues --  -10.19065  -7.97489  -5.92101  -5.91790  -5.91202
 Alpha  occ. eigenvalues --   -3.54134  -2.34351  -2.29561  -2.28800  -0.97764
 Alpha  occ. eigenvalues --   -0.96778  -0.96731  -0.95765  -0.82890  -0.82394
 Alpha  occ. eigenvalues --   -0.82013  -0.81293  -0.80954  -0.80224  -0.80163
 Alpha  occ. eigenvalues --   -0.79642  -0.77181  -0.76103  -0.74770  -0.74572
 Alpha  occ. eigenvalues --   -0.73623  -0.71520  -0.70654  -0.68806  -0.68485
 Alpha  occ. eigenvalues --   -0.68423  -0.65872  -0.64697  -0.64665  -0.61111
 Alpha  occ. eigenvalues --   -0.60488  -0.58311  -0.57424  -0.54986  -0.54190
 Alpha  occ. eigenvalues --   -0.53837  -0.53272  -0.51639  -0.51572  -0.51067
 Alpha  occ. eigenvalues --   -0.49552  -0.48346  -0.48068  -0.46204  -0.45753
 Alpha  occ. eigenvalues --   -0.45528  -0.45054  -0.44894  -0.44441  -0.44039
 Alpha  occ. eigenvalues --   -0.43871  -0.43738  -0.43506  -0.43327  -0.43194
 Alpha  occ. eigenvalues --   -0.42746  -0.42205  -0.41836  -0.41662  -0.41388
 Alpha  occ. eigenvalues --   -0.41000  -0.40620  -0.40549  -0.40076  -0.39977
 Alpha  occ. eigenvalues --   -0.39700  -0.39448  -0.39246  -0.38945  -0.38902
 Alpha  occ. eigenvalues --   -0.38672  -0.38193  -0.37597  -0.37402  -0.37129
 Alpha  occ. eigenvalues --   -0.36641  -0.36440  -0.36119  -0.34984  -0.34722
 Alpha  occ. eigenvalues --   -0.34125  -0.33927  -0.33733  -0.32219  -0.31787
 Alpha  occ. eigenvalues --   -0.31156  -0.31035  -0.30217  -0.29860  -0.29324
 Alpha  occ. eigenvalues --   -0.28479  -0.26735  -0.26534  -0.24089  -0.22714
 Alpha  occ. eigenvalues --   -0.22022  -0.21698  -0.21321  -0.18278  -0.18024
 Alpha  occ. eigenvalues --   -0.16798
 Alpha virt. eigenvalues --   -0.06837  -0.06646  -0.01655   0.01316   0.02878
 Alpha virt. eigenvalues --    0.03791   0.05454   0.06084   0.08091   0.09084
 Alpha virt. eigenvalues --    0.09286   0.09755   0.10464   0.10558   0.11525
 Alpha virt. eigenvalues --    0.11720   0.12499   0.13288   0.13605   0.13907
 Alpha virt. eigenvalues --    0.14594   0.14810   0.14835   0.15231   0.15631
 Alpha virt. eigenvalues --    0.16162   0.16222   0.16623   0.16856   0.17003
 Alpha virt. eigenvalues --    0.17274   0.17588   0.17674   0.18130   0.18420
 Alpha virt. eigenvalues --    0.18586   0.18868   0.18973   0.19416   0.20017
 Alpha virt. eigenvalues --    0.20560   0.21027   0.21170   0.21457   0.22273
 Alpha virt. eigenvalues --    0.22335   0.23010   0.24148   0.24200   0.24840
 Alpha virt. eigenvalues --    0.25357   0.25691   0.25959   0.26468   0.26560
 Alpha virt. eigenvalues --    0.27177   0.27262   0.27507   0.29468   0.30110
 Alpha virt. eigenvalues --    0.30764   0.31591   0.32487   0.32847   0.32996
 Alpha virt. eigenvalues --    0.34150   0.35128   0.35376   0.35803   0.36184
 Alpha virt. eigenvalues --    0.36369   0.36869   0.37957   0.38045   0.39153
 Alpha virt. eigenvalues --    0.40106   0.43009   0.43290   0.43596   0.44090
 Alpha virt. eigenvalues --    0.44484   0.46593   0.47439   0.47773   0.48103
 Alpha virt. eigenvalues --    0.48381   0.48893   0.49132   0.50276   0.50391
 Alpha virt. eigenvalues --    0.50993   0.51291   0.51541   0.51818   0.52443
 Alpha virt. eigenvalues --    0.53137   0.53276   0.53664   0.54300   0.54562
 Alpha virt. eigenvalues --    0.54779   0.55790   0.55919   0.56951   0.57446
 Alpha virt. eigenvalues --    0.57717   0.58428   0.58848   0.59334   0.59594
 Alpha virt. eigenvalues --    0.59875   0.60162   0.60675   0.60748   0.61440
 Alpha virt. eigenvalues --    0.62363   0.62696   0.63014   0.63492   0.63845
 Alpha virt. eigenvalues --    0.64459   0.64915   0.65474   0.65819   0.66005
 Alpha virt. eigenvalues --    0.66333   0.66571   0.67034   0.67318   0.67717
 Alpha virt. eigenvalues --    0.68637   0.68744   0.69414   0.69895   0.70589
 Alpha virt. eigenvalues --    0.70620   0.70997   0.72237   0.72549   0.73032
 Alpha virt. eigenvalues --    0.73958   0.74242   0.74496   0.75118   0.75361
 Alpha virt. eigenvalues --    0.75983   0.76735   0.77260   0.77709   0.77876
 Alpha virt. eigenvalues --    0.77995   0.78346   0.78694   0.79085   0.79399
 Alpha virt. eigenvalues --    0.79632   0.80155   0.80595   0.81578   0.81937
 Alpha virt. eigenvalues --    0.82582   0.83208   0.83480   0.84005   0.84526
 Alpha virt. eigenvalues --    0.85775   0.86088   0.86602   0.86903   0.87060
 Alpha virt. eigenvalues --    0.87279   0.87684   0.88296   0.88766   0.89196
 Alpha virt. eigenvalues --    0.89418   0.90170   0.90364   0.91226   0.91662
 Alpha virt. eigenvalues --    0.91795   0.92320   0.92475   0.92701   0.93142
 Alpha virt. eigenvalues --    0.93571   0.94122   0.94212   0.94525   0.95561
 Alpha virt. eigenvalues --    0.95876   0.96502   0.97156   0.97702   0.98535
 Alpha virt. eigenvalues --    0.98707   0.99059   0.99405   0.99851   1.00030
 Alpha virt. eigenvalues --    1.00351   1.00511   1.01036   1.01261   1.01723
 Alpha virt. eigenvalues --    1.02423   1.02633   1.02817   1.04430   1.04500
 Alpha virt. eigenvalues --    1.05072   1.06050   1.06347   1.06538   1.07559
 Alpha virt. eigenvalues --    1.07912   1.08547   1.10536   1.12287   1.13364
 Alpha virt. eigenvalues --    1.13809   1.14610   1.15576   1.16233   1.16388
 Alpha virt. eigenvalues --    1.17145   1.17416   1.17923   1.18878   1.19258
 Alpha virt. eigenvalues --    1.19576   1.20064   1.20645   1.21656   1.22068
 Alpha virt. eigenvalues --    1.22845   1.23319   1.23789   1.25052   1.25300
 Alpha virt. eigenvalues --    1.25909   1.27070   1.27550   1.28729   1.29515
 Alpha virt. eigenvalues --    1.29769   1.30511   1.32445   1.32667   1.33112
 Alpha virt. eigenvalues --    1.33864   1.35302   1.36162   1.37178   1.37422
 Alpha virt. eigenvalues --    1.38237   1.38923   1.39335   1.39648   1.40977
 Alpha virt. eigenvalues --    1.41303   1.41823   1.42997   1.44627   1.45361
 Alpha virt. eigenvalues --    1.46377   1.47281   1.47641   1.48253   1.50874
 Alpha virt. eigenvalues --    1.51320   1.52442   1.52941   1.54481   1.54684
 Alpha virt. eigenvalues --    1.54957   1.55474   1.56684   1.57612   1.59028
 Alpha virt. eigenvalues --    1.59780   1.60601   1.61079   1.62716   1.63228
 Alpha virt. eigenvalues --    1.64297   1.64610   1.65926   1.68775   1.69250
 Alpha virt. eigenvalues --    1.69681   1.70577   1.70696   1.72158   1.73109
 Alpha virt. eigenvalues --    1.74891   1.75847   1.76680   1.78109   1.78880
 Alpha virt. eigenvalues --    1.79100   1.80163   1.80737   1.81129   1.81883
 Alpha virt. eigenvalues --    1.82308   1.82675   1.83283   1.84145   1.84402
 Alpha virt. eigenvalues --    1.84812   1.86379   1.87109   1.87507   1.88118
 Alpha virt. eigenvalues --    1.88733   1.90263   1.91554   1.91772   1.92302
 Alpha virt. eigenvalues --    1.93021   1.93266   1.93882   1.95008   1.95118
 Alpha virt. eigenvalues --    1.95488   1.96149   1.98869   1.99844   1.99918
 Alpha virt. eigenvalues --    2.00008   2.00189   2.00765   2.01441   2.02602
 Alpha virt. eigenvalues --    2.02737   2.03565   2.04467   2.05474   2.05851
 Alpha virt. eigenvalues --    2.07125   2.08059   2.09078   2.09120   2.10480
 Alpha virt. eigenvalues --    2.12193   2.13313   2.13924   2.14919   2.15564
 Alpha virt. eigenvalues --    2.16218   2.16605   2.17896   2.18200   2.19071
 Alpha virt. eigenvalues --    2.20471   2.21702   2.21949   2.22529   2.22985
 Alpha virt. eigenvalues --    2.23544   2.24463   2.25443   2.25781   2.26141
 Alpha virt. eigenvalues --    2.26430   2.27011   2.27215   2.27364   2.28825
 Alpha virt. eigenvalues --    2.29556   2.29843   2.30190   2.30522   2.30894
 Alpha virt. eigenvalues --    2.31312   2.32220   2.32890   2.34106   2.34275
 Alpha virt. eigenvalues --    2.35281   2.35815   2.36236   2.37650   2.38166
 Alpha virt. eigenvalues --    2.39315   2.39647   2.40335   2.41356   2.42269
 Alpha virt. eigenvalues --    2.42363   2.43468   2.43987   2.44390   2.44661
 Alpha virt. eigenvalues --    2.45156   2.47960   2.49417   2.50188   2.50395
 Alpha virt. eigenvalues --    2.52418   2.53064   2.53145   2.54707   2.55496
 Alpha virt. eigenvalues --    2.56155   2.57160   2.57731   2.58017   2.61054
 Alpha virt. eigenvalues --    2.61555   2.63730   2.64692   2.66835   2.67466
 Alpha virt. eigenvalues --    2.68793   2.69584   2.70776   2.71523   2.72558
 Alpha virt. eigenvalues --    2.75803   2.77840   2.79237   2.79709   2.80441
 Alpha virt. eigenvalues --    2.81374   2.86843   2.87400   2.89128   2.90751
 Alpha virt. eigenvalues --    2.91274   2.92649   2.94670   2.95849   2.96639
 Alpha virt. eigenvalues --    2.97453   2.98866   2.99331   3.00412   3.05623
 Alpha virt. eigenvalues --    3.05795   3.12920   3.14435   3.21070   3.23142
 Alpha virt. eigenvalues --    3.25552   3.29624   3.30011   3.37014   3.38927
 Alpha virt. eigenvalues --    3.40740   3.46199   3.46366   3.47778   3.51408
 Alpha virt. eigenvalues --    3.54716   3.83811   4.00580   4.19591
  Beta  occ. eigenvalues -- -256.19316 -88.94162 -30.00521 -25.85579 -25.85047
  Beta  occ. eigenvalues --  -25.84420 -14.34805 -14.34694 -14.34566 -14.34409
  Beta  occ. eigenvalues --  -10.22785 -10.22472 -10.22462 -10.22404 -10.22379
  Beta  occ. eigenvalues --  -10.22295 -10.22194 -10.22070 -10.21809 -10.20649
  Beta  occ. eigenvalues --  -10.20483 -10.20409 -10.20026 -10.19946 -10.19888
  Beta  occ. eigenvalues --  -10.19850 -10.19828 -10.19810 -10.19770 -10.19738
  Beta  occ. eigenvalues --  -10.19702 -10.19680 -10.19598 -10.19544 -10.19500
  Beta  occ. eigenvalues --  -10.19407 -10.19379 -10.19366 -10.19267 -10.19131
  Beta  occ. eigenvalues --  -10.19061  -7.97420  -5.92053  -5.91724  -5.91060
  Beta  occ. eigenvalues --   -3.34995  -2.11061  -2.10519  -2.09837  -0.97576
  Beta  occ. eigenvalues --   -0.96600  -0.96547  -0.95572  -0.82883  -0.82328
  Beta  occ. eigenvalues --   -0.81959  -0.81214  -0.80877  -0.80196  -0.80145
  Beta  occ. eigenvalues --   -0.79443  -0.77161  -0.76078  -0.74748  -0.74561
  Beta  occ. eigenvalues --   -0.73616  -0.71474  -0.70588  -0.68715  -0.68413
  Beta  occ. eigenvalues --   -0.68354  -0.65714  -0.64680  -0.64635  -0.61053
  Beta  occ. eigenvalues --   -0.60426  -0.58268  -0.57233  -0.54930  -0.54125
  Beta  occ. eigenvalues --   -0.53764  -0.53035  -0.51516  -0.51478  -0.50974
  Beta  occ. eigenvalues --   -0.49176  -0.48272  -0.47699  -0.46042  -0.45497
  Beta  occ. eigenvalues --   -0.45299  -0.44997  -0.44658  -0.44342  -0.43941
  Beta  occ. eigenvalues --   -0.43760  -0.43628  -0.43449  -0.43247  -0.43140
  Beta  occ. eigenvalues --   -0.42694  -0.42154  -0.41835  -0.41660  -0.40941
  Beta  occ. eigenvalues --   -0.40786  -0.40552  -0.40167  -0.39942  -0.39591
  Beta  occ. eigenvalues --   -0.39521  -0.39294  -0.38850  -0.38820  -0.38391
  Beta  occ. eigenvalues --   -0.38055  -0.37426  -0.37298  -0.36671  -0.36357
  Beta  occ. eigenvalues --   -0.36168  -0.35517  -0.34737  -0.34562  -0.34112
  Beta  occ. eigenvalues --   -0.33929  -0.32184  -0.31558  -0.30480  -0.30402
  Beta  occ. eigenvalues --   -0.29583  -0.29130  -0.27309  -0.26973  -0.26148
  Beta  occ. eigenvalues --   -0.24036  -0.23143  -0.22574  -0.22145  -0.18537
  Beta  occ. eigenvalues --   -0.18129  -0.16204
  Beta virt. eigenvalues --   -0.07465  -0.06294  -0.01698  -0.01414  -0.00772
  Beta virt. eigenvalues --    0.00917   0.01785   0.02909   0.04078   0.05644
  Beta virt. eigenvalues --    0.07672   0.08356   0.08667   0.09213   0.09746
  Beta virt. eigenvalues --    0.10450   0.10508   0.10991   0.11599   0.11753
  Beta virt. eigenvalues --    0.12514   0.13544   0.13612   0.13996   0.14657
  Beta virt. eigenvalues --    0.14902   0.14951   0.15321   0.15680   0.16192
  Beta virt. eigenvalues --    0.16295   0.16699   0.16909   0.17064   0.17326
  Beta virt. eigenvalues --    0.17661   0.17714   0.18241   0.18497   0.18626
  Beta virt. eigenvalues --    0.18908   0.19061   0.19461   0.20029   0.20587
  Beta virt. eigenvalues --    0.21052   0.21206   0.21484   0.22351   0.22475
  Beta virt. eigenvalues --    0.23399   0.24277   0.24834   0.25441   0.25772
  Beta virt. eigenvalues --    0.26086   0.26293   0.26668   0.27029   0.27261
  Beta virt. eigenvalues --    0.27471   0.29296   0.29769   0.30629   0.30993
  Beta virt. eigenvalues --    0.32015   0.32832   0.33058   0.33443   0.34614
  Beta virt. eigenvalues --    0.35261   0.35716   0.35996   0.36454   0.36562
  Beta virt. eigenvalues --    0.37089   0.38295   0.38440   0.39407   0.40245
  Beta virt. eigenvalues --    0.43217   0.43315   0.43682   0.44212   0.44615
  Beta virt. eigenvalues --    0.47352   0.47647   0.47905   0.48645   0.48905
  Beta virt. eigenvalues --    0.49109   0.49374   0.50443   0.50624   0.51335
  Beta virt. eigenvalues --    0.51461   0.51603   0.52034   0.52486   0.53236
  Beta virt. eigenvalues --    0.53441   0.53941   0.54561   0.54655   0.54847
  Beta virt. eigenvalues --    0.55848   0.55986   0.57021   0.57756   0.57982
  Beta virt. eigenvalues --    0.58508   0.58905   0.59356   0.59772   0.59908
  Beta virt. eigenvalues --    0.60236   0.60716   0.60850   0.61501   0.62473
  Beta virt. eigenvalues --    0.62762   0.63240   0.63574   0.63876   0.64632
  Beta virt. eigenvalues --    0.65050   0.65584   0.66012   0.66117   0.66518
  Beta virt. eigenvalues --    0.66737   0.67282   0.67770   0.67853   0.68718
  Beta virt. eigenvalues --    0.68874   0.69532   0.70046   0.70680   0.70779
  Beta virt. eigenvalues --    0.71095   0.72354   0.73051   0.73518   0.74223
  Beta virt. eigenvalues --    0.74295   0.74637   0.75330   0.75645   0.76172
  Beta virt. eigenvalues --    0.76809   0.77473   0.77819   0.77984   0.78232
  Beta virt. eigenvalues --    0.78611   0.78935   0.79245   0.79650   0.79686
  Beta virt. eigenvalues --    0.80559   0.80786   0.81648   0.82222   0.82931
  Beta virt. eigenvalues --    0.83515   0.83781   0.84134   0.85162   0.85914
  Beta virt. eigenvalues --    0.86320   0.86677   0.87128   0.87334   0.87385
  Beta virt. eigenvalues --    0.88104   0.88568   0.89226   0.89555   0.89854
  Beta virt. eigenvalues --    0.90295   0.90560   0.91440   0.91713   0.92049
  Beta virt. eigenvalues --    0.92377   0.92592   0.92939   0.93189   0.93689
  Beta virt. eigenvalues --    0.94209   0.94253   0.94648   0.95644   0.95994
  Beta virt. eigenvalues --    0.96785   0.97243   0.97900   0.98701   0.98803
  Beta virt. eigenvalues --    0.99124   0.99519   0.99929   1.00138   1.00446
  Beta virt. eigenvalues --    1.00608   1.01189   1.01369   1.01975   1.02609
  Beta virt. eigenvalues --    1.02728   1.03319   1.04567   1.04729   1.05149
  Beta virt. eigenvalues --    1.06369   1.06529   1.06678   1.07878   1.08227
  Beta virt. eigenvalues --    1.08785   1.10816   1.12468   1.13856   1.14669
  Beta virt. eigenvalues --    1.14946   1.15703   1.16496   1.16705   1.17387
  Beta virt. eigenvalues --    1.17622   1.18145   1.19296   1.19391   1.19743
  Beta virt. eigenvalues --    1.20182   1.21282   1.21899   1.22344   1.23090
  Beta virt. eigenvalues --    1.23551   1.24157   1.25351   1.25570   1.27267
  Beta virt. eigenvalues --    1.27646   1.28359   1.29806   1.30045   1.30779
  Beta virt. eigenvalues --    1.31018   1.32642   1.32898   1.33182   1.34033
  Beta virt. eigenvalues --    1.35357   1.36256   1.37224   1.37483   1.38265
  Beta virt. eigenvalues --    1.38965   1.39452   1.39705   1.41187   1.41377
  Beta virt. eigenvalues --    1.41911   1.43104   1.44846   1.45511   1.46527
  Beta virt. eigenvalues --    1.47418   1.47783   1.48463   1.51501   1.51955
  Beta virt. eigenvalues --    1.53123   1.53409   1.54547   1.55018   1.55061
  Beta virt. eigenvalues --    1.55628   1.56942   1.58120   1.59399   1.59932
  Beta virt. eigenvalues --    1.60899   1.61430   1.63162   1.63411   1.64503
  Beta virt. eigenvalues --    1.64875   1.66001   1.68885   1.69351   1.69786
  Beta virt. eigenvalues --    1.70682   1.70756   1.72265   1.73216   1.75044
  Beta virt. eigenvalues --    1.76092   1.76847   1.78241   1.79029   1.79237
  Beta virt. eigenvalues --    1.80215   1.80807   1.81233   1.81981   1.82389
  Beta virt. eigenvalues --    1.82841   1.83353   1.84199   1.84617   1.84874
  Beta virt. eigenvalues --    1.86546   1.87158   1.87634   1.88165   1.88796
  Beta virt. eigenvalues --    1.90307   1.91661   1.91886   1.92410   1.93080
  Beta virt. eigenvalues --    1.93795   1.94158   1.95168   1.95386   1.95758
  Beta virt. eigenvalues --    1.96371   1.99709   1.99897   2.00000   2.00235
  Beta virt. eigenvalues --    2.00516   2.01313   2.02650   2.02781   2.03650
  Beta virt. eigenvalues --    2.04169   2.05213   2.05890   2.06632   2.07443
  Beta virt. eigenvalues --    2.08215   2.09170   2.09387   2.11433   2.12672
  Beta virt. eigenvalues --    2.13690   2.14299   2.14967   2.15643   2.16354
  Beta virt. eigenvalues --    2.16648   2.17979   2.18291   2.19256   2.20609
  Beta virt. eigenvalues --    2.21822   2.22100   2.22840   2.23944   2.24616
  Beta virt. eigenvalues --    2.25235   2.25766   2.26213   2.26496   2.27047
  Beta virt. eigenvalues --    2.27322   2.27486   2.29010   2.29677   2.29918
  Beta virt. eigenvalues --    2.29942   2.30529   2.30812   2.31210   2.31908
  Beta virt. eigenvalues --    2.32717   2.33172   2.34163   2.34604   2.35516
  Beta virt. eigenvalues --    2.35871   2.36338   2.37730   2.38394   2.39378
  Beta virt. eigenvalues --    2.39814   2.40371   2.41658   2.42396   2.42530
  Beta virt. eigenvalues --    2.43482   2.44105   2.44588   2.44942   2.45386
  Beta virt. eigenvalues --    2.48616   2.49776   2.50438   2.50487   2.52545
  Beta virt. eigenvalues --    2.53130   2.53285   2.54904   2.55671   2.56227
  Beta virt. eigenvalues --    2.57389   2.57847   2.58362   2.61112   2.61670
  Beta virt. eigenvalues --    2.63920   2.64895   2.66895   2.67605   2.68938
  Beta virt. eigenvalues --    2.69796   2.70923   2.71612   2.72669   2.75886
  Beta virt. eigenvalues --    2.77935   2.79438   2.79999   2.80467   2.81469
  Beta virt. eigenvalues --    2.86953   2.87480   2.89265   2.90865   2.91380
  Beta virt. eigenvalues --    2.92814   2.94862   2.95987   2.96816   2.97812
  Beta virt. eigenvalues --    2.98954   2.99410   3.00469   3.05728   3.05914
  Beta virt. eigenvalues --    3.13071   3.14597   3.21140   3.23297   3.26046
  Beta virt. eigenvalues --    3.29659   3.30045   3.37690   3.39005   3.41516
  Beta virt. eigenvalues --    3.46566   3.46657   3.56558   3.61458   3.64092
  Beta virt. eigenvalues --    3.95305   4.11357   4.30017
          Condensed to atoms (all electrons):
          Atomic-Atomic Spin Densities.
 Mulliken charges and spin densities:
               1          2
     1  Fe   0.821931   3.803144
     2  N   -0.702545   0.045630
     3  N   -0.729125   0.029131
     4  N   -0.699957   0.042096
     5  N   -0.712748   0.031994
     6  C    0.319767   0.009555
     7  C    0.028553  -0.015633
     8  C    0.036499   0.017738
     9  C    0.313585  -0.023385
    10  C    0.316802  -0.019197
    11  C    0.038176   0.024142
    12  C   -0.008285  -0.013058
    13  C    0.322167   0.017876
    14  C    0.311237   0.014352
    15  C    0.043192  -0.021109
    16  C   -0.015813   0.022084
    17  C    0.325370  -0.028003
    18  C    0.326523  -0.021735
    19  C    0.045107   0.023358
    20  C    0.021227  -0.012553
    21  C    0.317107   0.013669
    22  C   -0.303157  -0.010076
    23  H    0.166827   0.000649
    24  C   -0.323371   0.008072
    25  H    0.165816  -0.000022
    26  C   -0.306850  -0.014679
    27  H    0.167912   0.000873
    28  C   -0.297050   0.007918
    29  H    0.167257  -0.000077
    30  C   -0.609338  -0.000667
    31  H    0.185633   0.000343
    32  H    0.192944   0.000407
    33  H    0.188002   0.000323
    34  C   -0.608972   0.001967
    35  H    0.188667  -0.000976
    36  H    0.191980  -0.000939
    37  H    0.184802   0.000261
    38  C   -0.612150  -0.001386
    39  H    0.183842   0.000584
    40  H    0.192569   0.001001
    41  H    0.196873   0.000449
    42  C   -0.146761   0.005212
    43  H    0.167034  -0.000396
    44  C   -0.401188  -0.007322
    45  H    0.176079   0.000365
    46  H    0.168538   0.000507
    47  C   -0.612882   0.002357
    48  H    0.188295  -0.001282
    49  H    0.187624  -0.000709
    50  H    0.196878   0.000058
    51  C   -0.143527  -0.005842
    52  H    0.166141   0.000433
    53  C   -0.400164   0.009110
    54  H    0.176092  -0.000451
    55  H    0.168114  -0.000413
    56  C   -0.610741  -0.001290
    57  H    0.194691   0.000859
    58  H    0.191949   0.000758
    59  H    0.184864   0.000363
    60  C   -0.609805   0.001508
    61  H    0.185794   0.000219
    62  H    0.190744  -0.000753
    63  H    0.190794  -0.000385
    64  C   -0.678922  -0.002384
    65  H    0.229080   0.001159
    66  H    0.207904   0.001711
    67  H    0.225395   0.000102
    68  S    0.031615   0.069230
    69  H    0.145364  -0.006840
 Sum of Mulliken charges =  -0.00000   4.00000
 Mulliken charges and spin densities with hydrogens summed into heavy atoms:
               1          2
     1  Fe   0.821931   3.803144
     2  N   -0.702545   0.045630
     3  N   -0.729125   0.029131
     4  N   -0.699957   0.042096
     5  N   -0.712748   0.031994
     6  C    0.319767   0.009555
     7  C    0.028553  -0.015633
     8  C    0.036499   0.017738
     9  C    0.313585  -0.023385
    10  C    0.316802  -0.019197
    11  C    0.038176   0.024142
    12  C   -0.008285  -0.013058
    13  C    0.322167   0.017876
    14  C    0.311237   0.014352
    15  C    0.043192  -0.021109
    16  C   -0.015813   0.022084
    17  C    0.325370  -0.028003
    18  C    0.326523  -0.021735
    19  C    0.045107   0.023358
    20  C    0.021227  -0.012553
    21  C    0.317107   0.013669
    22  C   -0.136330  -0.009427
    24  C   -0.157554   0.008050
    26  C   -0.138938  -0.013807
    28  C   -0.129793   0.007841
    30  C   -0.042759   0.000406
    34  C   -0.043523   0.000312
    38  C   -0.038867   0.000648
    42  C    0.020274   0.004815
    44  C   -0.056572  -0.006450
    47  C   -0.040085   0.000423
    51  C    0.022614  -0.005409
    53  C   -0.055959   0.008245
    56  C   -0.039237   0.000690
    60  C   -0.042473   0.000589
    64  C   -0.016544   0.000587
    68  S    0.176979   0.062391
 Electronic spatial extent (au):  <R**2>=          18112.8566
 Charge=             -0.0000 electrons
 Dipole moment (field-independent basis, Debye):
    X=             -1.5248    Y=             -0.4571    Z=              0.7550  Tot=              1.7618
 Quadrupole moment (field-independent basis, Debye-Ang):
   XX=           -207.2089   YY=           -206.9863   ZZ=           -231.9294
   XY=              0.5389   XZ=             -2.5281   YZ=              3.6409
 Traceless Quadrupole moment (field-independent basis, Debye-Ang):
   XX=              8.1660   YY=              8.3886   ZZ=            -16.5545
   XY=              0.5389   XZ=             -2.5281   YZ=              3.6409
 Octapole moment (field-independent basis, Debye-Ang**2):
  XXX=            -13.8032  YYY=            -31.5196  ZZZ=             15.7004  XYY=              7.1415
  XXY=            -12.7273  XXZ=             -6.2695  XZZ=            -20.8462  YZZ=             -0.1144
  YYZ=             -9.8270  XYZ=             17.3725
 Hexadecapole moment (field-independent basis, Debye-Ang**3):
 XXXX=         -11220.4337 YYYY=         -11014.6798 ZZZZ=          -1169.5295 XXXY=            -20.4042
 XXXZ=             32.4702 YYYX=             18.3098 YYYZ=            -22.1492 ZZZX=            -40.3892
 ZZZY=             26.5818 XXYY=          -3730.9444 XXZZ=          -2248.4486 YYZZ=          -2205.8773
 XXYZ=             41.7748 YYXZ=             60.2232 ZZXY=              0.2530
 N-N= 5.035380067655D+03 E-N=-1.732334696284D+04  KE= 3.070985129854D+03
                          Isotropic Fermi Contact Couplings
        Atom                 a.u.       MegaHertz       Gauss      10(-4) cm-1
     1  Fe(57)             0.56848      20.61302       7.35524       6.87576
     2  N(14)              0.08916       7.20223       2.56993       2.40240
     3  N(14)              0.08290       6.69638       2.38944       2.23367
     4  N(14)              0.09029       7.29309       2.60236       2.43271
     5  N(14)              0.08678       7.00938       2.50112       2.33808
     6  C(13)              0.00691       1.94155       0.69279       0.64763
     7  C(13)              0.00068       0.19215       0.06857       0.06410
     8  C(13)              0.00588       1.65354       0.59002       0.55156
     9  C(13)              0.00199       0.55919       0.19953       0.18653
    10  C(13)              0.00254       0.71403       0.25478       0.23817
    11  C(13)              0.00673       1.89108       0.67479       0.63080
    12  C(13)              0.00083       0.23431       0.08361       0.07816
    13  C(13)              0.00861       2.42057       0.86372       0.80742
    14  C(13)              0.00718       2.01910       0.72047       0.67350
    15  C(13)             -0.00031      -0.08688      -0.03100      -0.02898
    16  C(13)              0.00653       1.83438       0.65455       0.61188
    17  C(13)              0.00129       0.36299       0.12952       0.12108
    18  C(13)              0.00246       0.69156       0.24676       0.23068
    19  C(13)              0.00663       1.86333       0.66488       0.62154
    20  C(13)              0.00094       0.26297       0.09384       0.08772
    21  C(13)              0.00720       2.02395       0.72219       0.67512
    22  C(13)             -0.00194      -0.54518      -0.19453      -0.18185
    23  H(1)               0.00021       0.23154       0.08262       0.07723
    24  C(13)              0.00155       0.43590       0.15554       0.14540
    25  H(1)              -0.00001      -0.01565      -0.00559      -0.00522
    26  C(13)             -0.00253      -0.71239      -0.25420      -0.23763
    27  H(1)               0.00026       0.29165       0.10407       0.09728
    28  C(13)              0.00145       0.40830       0.14569       0.13620
    29  H(1)              -0.00002      -0.02032      -0.00725      -0.00678
    30  C(13)              0.00018       0.05050       0.01802       0.01685
    31  H(1)               0.00011       0.11796       0.04209       0.03935
    32  H(1)               0.00027       0.29779       0.10626       0.09933
    33  H(1)               0.00024       0.26812       0.09567       0.08944
    34  C(13)              0.00113       0.31703       0.11312       0.10575
    35  H(1)              -0.00036      -0.39807      -0.14204      -0.13278
    36  H(1)              -0.00035      -0.39183      -0.13981      -0.13070
    37  H(1)               0.00008       0.08523       0.03041       0.02843
    38  C(13)             -0.00016      -0.04517      -0.01612      -0.01507
    39  H(1)               0.00025       0.27667       0.09872       0.09229
    40  H(1)               0.00048       0.53841       0.19212       0.17959
    41  H(1)               0.00015       0.16836       0.06007       0.05616
    42  C(13)              0.00138       0.38733       0.13821       0.12920
    43  H(1)              -0.00015      -0.16300      -0.05816      -0.05437
    44  C(13)             -0.00087      -0.24495      -0.08741      -0.08171
    45  H(1)               0.00012       0.13550       0.04835       0.04520
    46  H(1)               0.00016       0.17517       0.06250       0.05843
    47  C(13)              0.00123       0.34630       0.12357       0.11551
    48  H(1)              -0.00057      -0.64118      -0.22879      -0.21388
    49  H(1)              -0.00024      -0.27225      -0.09715      -0.09081
    50  H(1)              -0.00002      -0.02172      -0.00775      -0.00724
    51  C(13)             -0.00068      -0.19244      -0.06867      -0.06419
    52  H(1)               0.00018       0.20113       0.07177       0.06709
    53  C(13)              0.00148       0.41652       0.14862       0.13894
    54  H(1)              -0.00014      -0.16087      -0.05740      -0.05366
    55  H(1)              -0.00012      -0.13364      -0.04768      -0.04458
    56  C(13)             -0.00007      -0.01898      -0.00677      -0.00633
    57  H(1)               0.00038       0.42811       0.15276       0.14280
    58  H(1)               0.00035       0.39439       0.14073       0.13155
    59  H(1)               0.00011       0.12801       0.04568       0.04270
    60  C(13)              0.00090       0.25331       0.09039       0.08450
    61  H(1)               0.00006       0.06450       0.02301       0.02151
    62  H(1)              -0.00034      -0.38401      -0.13702      -0.12809
    63  H(1)              -0.00020      -0.22640      -0.08078      -0.07552
    64  C(13)             -0.00252      -0.70923      -0.25307      -0.23657
    65  H(1)               0.00050       0.55642       0.19854       0.18560
    66  H(1)               0.00141       1.57911       0.56347       0.52673
    67  H(1)               0.00008       0.08695       0.03103       0.02900
    68  S(33)              0.12494      10.72870       3.82827       3.57871
    69  H(1)              -0.00252      -2.82151      -1.00679      -0.94115
 --------------------------------------------------------
       Center         ----  Spin Dipole Couplings  ----
                      3XX-RR        3YY-RR        3ZZ-RR
 --------------------------------------------------------
     1   Atom        1.058800      0.414459     -1.473259
     2   Atom        0.132103     -0.068003     -0.064100
     3   Atom       -0.058901      0.150757     -0.091856
     4   Atom        0.132551     -0.064870     -0.067681
     5   Atom       -0.060862      0.150990     -0.090128
     6   Atom        0.002740      0.017402     -0.020143
     7   Atom        0.020451      0.006710     -0.027161
     8   Atom        0.009386     -0.011416      0.002030
     9   Atom        0.060815     -0.008734     -0.052081
    10   Atom        0.030039      0.016500     -0.046538
    11   Atom       -0.011652      0.001219      0.010433
    12   Atom        0.001428      0.021663     -0.023091
    13   Atom       -0.028934      0.040427     -0.011493
    14   Atom        0.001012      0.013329     -0.014341
    15   Atom        0.022466      0.009493     -0.031959
    16   Atom        0.007376     -0.013459      0.006084
[...]
 
              Baa    -0.0144    -1.927    -0.688    -0.643 -0.3189  0.9408  0.1150
     8 C(13)  Bbb     0.0022     0.301     0.107     0.100  0.0645 -0.0995  0.9929
              Bcc     0.0121     1.626     0.580     0.542  0.9456  0.3240 -0.0289
 
              Baa    -0.0523    -7.017    -2.504    -2.341 -0.0190 -0.0639  0.9978
     9 C(13)  Bbb    -0.0087    -1.172    -0.418    -0.391  0.0495  0.9967  0.0648
              Bcc     0.0610     8.189     2.922     2.732  0.9986 -0.0506  0.0158
 
              Baa    -0.0467    -6.263    -2.235    -2.089  0.0429  0.0444  0.9981
    10 C(13)  Bbb    -0.0113    -1.523    -0.543    -0.508  0.6330  0.7717 -0.0615
              Bcc     0.0580     7.786     2.778     2.597  0.7730 -0.6344 -0.0050
 
              Baa    -0.0182    -2.442    -0.871    -0.814  0.8630  0.5013 -0.0624
    11 C(13)  Bbb     0.0073     0.977     0.349     0.326 -0.4931  0.8093 -0.3192
              Bcc     0.0109     1.465     0.523     0.489 -0.1095  0.3063  0.9456
 
              Baa    -0.0232    -3.119    -1.113    -1.040 -0.0177  0.0538  0.9984
    12 C(13)  Bbb    -0.0011    -0.145    -0.052    -0.048  0.9491  0.3151 -0.0001
              Bcc     0.0243     3.264     1.165     1.089 -0.3146  0.9475 -0.0566
 
              Baa    -0.0292    -3.920    -1.399    -1.308  0.9967 -0.0581  0.0560
    13 C(13)  Bbb    -0.0115    -1.549    -0.553    -0.517 -0.0584 -0.0417  0.9974
              Bcc     0.0408     5.469     1.951     1.824  0.0556  0.9974  0.0450
 
              Baa    -0.0265    -3.557    -1.269    -1.186  0.7674 -0.6366 -0.0762
    14 C(13)  Bbb    -0.0143    -1.916    -0.684    -0.639  0.0511 -0.0578  0.9970
              Bcc     0.0408     5.472     1.953     1.825  0.6391  0.7690  0.0119
 
              Baa    -0.0322    -4.320    -1.541    -1.441  0.0228  0.0641  0.9977
    15 C(13)  Bbb     0.0035     0.469     0.167     0.156 -0.4960  0.8672 -0.0443
              Bcc     0.0287     3.851     1.374     1.285  0.8680  0.4939 -0.0516
 
              Baa    -0.0160    -2.149    -0.767    -0.717 -0.3127  0.9495 -0.0268
    16 C(13)  Bbb     0.0061     0.815     0.291     0.272 -0.0834  0.0006  0.9965
              Bcc     0.0099     1.334     0.476     0.445  0.9462  0.3138  0.0790
 
              Baa    -0.0559    -7.500    -2.676    -2.502  0.0032 -0.1069  0.9943
    17 C(13)  Bbb    -0.0051    -0.679    -0.242    -0.227  0.0462  0.9932  0.1067
              Bcc     0.0610     8.180     2.919     2.728  0.9989 -0.0456 -0.0082
 
              Baa    -0.0493    -6.620    -2.362    -2.208  0.0863 -0.0072  0.9962
    18 C(13)  Bbb    -0.0098    -1.318    -0.470    -0.440  0.6276  0.7770 -0.0487
              Bcc     0.0592     7.938     2.832     2.648  0.7737 -0.6295 -0.0716
 
              Baa    -0.0175    -2.352    -0.839    -0.785  0.8652  0.4966 -0.0691
    19 C(13)  Bbb     0.0066     0.889     0.317     0.296 -0.3272  0.6637  0.6727
              Bcc     0.0109     1.464     0.522     0.488  0.3799 -0.5594  0.7367
 
              Baa    -0.0230    -3.089    -1.102    -1.031  0.1439 -0.0103  0.9895
    20 C(13)  Bbb    -0.0010    -0.132    -0.047    -0.044  0.9370  0.3230 -0.1329
              Bcc     0.0240     3.221     1.150     1.075 -0.3183  0.9463  0.0561
 
              Baa    -0.0270    -3.622    -1.293    -1.208  0.9941 -0.0404  0.1004
    21 C(13)  Bbb    -0.0152    -2.045    -0.730    -0.682 -0.0976  0.0674  0.9929
              Bcc     0.0422     5.667     2.022     1.890  0.0468  0.9969 -0.0630
 
              Baa    -0.0263    -3.525    -1.258    -1.176 -0.0781 -0.0394  0.9962
    22 C(13)  Bbb    -0.0074    -0.998    -0.356    -0.333  0.9331 -0.3547  0.0592
              Bcc     0.0337     4.523     1.614     1.509  0.3511  0.9341  0.0645
 
              Baa    -0.0067    -3.563    -1.272    -1.189 -0.0651 -0.0297  0.9974
    23 H(1)   Bbb    -0.0060    -3.208    -1.145    -1.070  0.9306 -0.3627  0.0499
              Bcc     0.0127     6.771     2.416     2.259  0.3603  0.9314  0.0513
 
              Baa    -0.0158    -2.116    -0.755    -0.706  0.3534  0.9324  0.0761
    24 C(13)  Bbb    -0.0119    -1.596    -0.569    -0.532  0.0047 -0.0831  0.9965
              Bcc     0.0277     3.712     1.324     1.238  0.9355 -0.3518 -0.0337
 
              Baa    -0.0066    -3.541    -1.264    -1.181 -0.0262 -0.1703  0.9851
    25 H(1)   Bbb    -0.0066    -3.526    -1.258    -1.176  0.3491  0.9218  0.1686
              Bcc     0.0132     7.067     2.522     2.357  0.9367 -0.3483 -0.0353
 
              Baa    -0.0301    -4.038    -1.441    -1.347 -0.0028  0.0117  0.9999
    26 C(13)  Bbb    -0.0053    -0.713    -0.255    -0.238  0.9284 -0.3714  0.0069
              Bcc     0.0354     4.752     1.695     1.585  0.3715  0.9284 -0.0098
 
              Baa    -0.0067    -3.557    -1.269    -1.186 -0.0355  0.0096  0.9993
    27 H(1)   Bbb    -0.0057    -3.053    -1.090    -1.019  0.9271 -0.3730  0.0365
              Bcc     0.0124     6.610     2.359     2.205  0.3731  0.9278  0.0043
 
              Baa    -0.0157    -2.104    -0.751    -0.702  0.3249  0.9087 -0.2620
    28 C(13)  Bbb    -0.0116    -1.555    -0.555    -0.519  0.1165  0.2365  0.9646
              Bcc     0.0273     3.659     1.306     1.220  0.9386 -0.3439 -0.0290
 
              Baa    -0.0065    -3.460    -1.235    -1.154  0.2670  0.6414  0.7193
    29 H(1)   Bbb    -0.0064    -3.427    -1.223    -1.143 -0.2260 -0.6839  0.6937
              Bcc     0.0129     6.887     2.458     2.297  0.9368 -0.3478 -0.0376
 
              Baa    -0.0038    -0.514    -0.183    -0.171 -0.0826  0.9906  0.1095
    30 C(13)  Bbb    -0.0035    -0.465    -0.166    -0.155  0.0163 -0.1085  0.9940
              Bcc     0.0073     0.978     0.349     0.326  0.9964  0.0839 -0.0072
 
              Baa    -0.0024    -1.257    -0.449    -0.419  0.0450 -0.2277  0.9727
    31 H(1)   Bbb    -0.0023    -1.236    -0.441    -0.412 -0.2570  0.9383  0.2315
              Bcc     0.0047     2.493     0.890     0.832  0.9654  0.2604  0.0163
 
              Baa    -0.0031    -1.655    -0.590    -0.552 -0.1227  0.6073  0.7849
    32 H(1)   Bbb    -0.0029    -1.542    -0.550    -0.514  0.0995  0.7945 -0.5991
              Bcc     0.0060     3.197     1.141     1.066  0.9874 -0.0046  0.1579
 
              Baa    -0.0030    -1.620    -0.578    -0.540  0.1249 -0.6988  0.7043
    33 H(1)   Bbb    -0.0029    -1.527    -0.545    -0.510  0.1019  0.7151  0.6915
              Bcc     0.0059     3.148     1.123     1.050  0.9869  0.0146 -0.1605
 
              Baa    -0.0038    -0.504    -0.180    -0.168  0.0462 -0.1532  0.9871
    34 C(13)  Bbb    -0.0036    -0.484    -0.173    -0.161 -0.6857  0.7138  0.1429
              Bcc     0.0074     0.987     0.352     0.329  0.7265  0.6834  0.0720
 
              Baa    -0.0029    -1.544    -0.551    -0.515 -0.5616  0.5851  0.5851
    35 H(1)   Bbb    -0.0028    -1.507    -0.538    -0.503  0.4752 -0.3508  0.8069
              Bcc     0.0057     3.051     1.089     1.018  0.6774  0.7312 -0.0810
 
              Baa    -0.0031    -1.629    -0.581    -0.543 -0.5594  0.6750 -0.4810
    36 H(1)   Bbb    -0.0030    -1.583    -0.565    -0.528 -0.4913  0.1974  0.8484
              Bcc     0.0060     3.212     1.146     1.072  0.6676  0.7109  0.2212
 
              Baa    -0.0023    -1.238    -0.442    -0.413 -0.0099 -0.1073  0.9942
    37 H(1)   Bbb    -0.0021    -1.137    -0.406    -0.379 -0.5610  0.8236  0.0833
              Bcc     0.0045     2.375     0.847     0.792  0.8277  0.5569  0.0684
 
              Baa    -0.0038    -0.507    -0.181    -0.169  0.7165  0.6972 -0.0250
    38 C(13)  Bbb    -0.0037    -0.494    -0.176    -0.165  0.0288  0.0062  0.9996
              Bcc     0.0075     1.000     0.357     0.334 -0.6970  0.7169  0.0156
 
              Baa    -0.0032    -1.709    -0.610    -0.570  0.2926  0.1527  0.9440
    39 H(1)   Bbb    -0.0030    -1.605    -0.573    -0.535  0.5724  0.7628 -0.3008
              Bcc     0.0062     3.313     1.182     1.105  0.7660 -0.6284 -0.1358
 
              Baa    -0.0030    -1.581    -0.564    -0.527  0.6529  0.5326 -0.5385
    40 H(1)   Bbb    -0.0028    -1.488    -0.531    -0.496  0.2772  0.4936  0.8243
              Bcc     0.0058     3.069     1.095     1.024  0.7049 -0.6875  0.1746
 
              Baa    -0.0025    -1.355    -0.483    -0.452  0.7140  0.5189 -0.4701
    41 H(1)   Bbb    -0.0024    -1.289    -0.460    -0.430  0.4190  0.2214  0.8806
              Bcc     0.0050     2.644     0.943     0.882 -0.5610  0.8257  0.0594
 
              Baa    -0.0053    -0.713    -0.254    -0.238  0.8223  0.0438  0.5674
    42 C(13)  Bbb    -0.0006    -0.079    -0.028    -0.026 -0.5568 -0.1439  0.8181
              Bcc     0.0059     0.792     0.282     0.264 -0.1175  0.9886  0.0940
 
              Baa    -0.0030    -1.624    -0.579    -0.542 -0.1235 -0.0809  0.9890
    43 H(1)   Bbb    -0.0029    -1.525    -0.544    -0.509  0.9905 -0.0707  0.1179
              Bcc     0.0059     3.149     1.124     1.050  0.0604  0.9942  0.0889
 
              Baa    -0.0088    -1.182    -0.422    -0.394 -0.6159  0.1724  0.7687
    44 C(13)  Bbb     0.0014     0.194     0.069     0.065  0.7810  0.2618  0.5671
              Bcc     0.0074     0.989     0.353     0.330 -0.1034  0.9496 -0.2959
 
              Baa    -0.0024    -1.293    -0.462    -0.431  0.8133  0.3611  0.4563
    45 H(1)   Bbb    -0.0019    -1.020    -0.364    -0.340 -0.5034  0.0434  0.8629
              Bcc     0.0043     2.314     0.826     0.772 -0.2918  0.9315 -0.2171
 
              Baa    -0.0014    -0.740    -0.264    -0.247  0.7669  0.0627 -0.6387
    46 H(1)   Bbb    -0.0011    -0.587    -0.210    -0.196  0.6068  0.2531  0.7535
              Bcc     0.0025     1.327     0.474     0.443 -0.2089  0.9654 -0.1561
 
              Baa    -0.0038    -0.515    -0.184    -0.172 -0.2172  0.2675  0.9388
    47 C(13)  Bbb    -0.0034    -0.455    -0.162    -0.152 -0.6354  0.6914 -0.3440
              Bcc     0.0072     0.970     0.346     0.323  0.7410  0.6712 -0.0198
 
              Baa    -0.0026    -1.394    -0.497    -0.465  0.2547 -0.4512  0.8553
    48 H(1)   Bbb    -0.0026    -1.361    -0.486    -0.454  0.6452 -0.5795 -0.4978
              Bcc     0.0052     2.755     0.983     0.919  0.7203  0.6787  0.1435
 
              Baa    -0.0031    -1.667    -0.595    -0.556 -0.5646  0.5918  0.5754
    49 H(1)   Bbb    -0.0030    -1.626    -0.580    -0.542  0.5075 -0.3008  0.8074
              Bcc     0.0062     3.292     1.175     1.098  0.6509  0.7479 -0.1305
 
              Baa    -0.0023    -1.236    -0.441    -0.412  0.0100  0.1179  0.9930
    50 H(1)   Bbb    -0.0021    -1.100    -0.392    -0.367 -0.5594  0.8237 -0.0921
              Bcc     0.0044     2.336     0.833     0.779  0.8288  0.5546 -0.0742
 
              Baa    -0.0080    -1.079    -0.385    -0.360 -0.0590 -0.4866  0.8716
    51 C(13)  Bbb    -0.0015    -0.201    -0.072    -0.067 -0.1086  0.8711  0.4790
              Bcc     0.0095     1.280     0.457     0.427  0.9923  0.0664  0.1042
 
              Baa    -0.0031    -1.663    -0.593    -0.555  0.0493 -0.4028  0.9140
    52 H(1)   Bbb    -0.0031    -1.630    -0.581    -0.544  0.0565  0.9147  0.4001
              Bcc     0.0062     3.292     1.175     1.098  0.9972 -0.0319 -0.0679
 
              Baa    -0.0062    -0.838    -0.299    -0.279 -0.2397  0.8207  0.5186
    53 C(13)  Bbb    -0.0006    -0.083    -0.030    -0.028  0.9204  0.0223  0.3902
              Bcc     0.0069     0.921     0.329     0.307 -0.3087 -0.5709  0.7608
 
              Baa    -0.0019    -0.998    -0.356    -0.333  0.0848 -0.5610  0.8234
    54 H(1)   Bbb    -0.0013    -0.697    -0.249    -0.232 -0.4272  0.7261  0.5387
              Bcc     0.0032     1.695     0.605     0.566  0.9002  0.3975  0.1781
 
              Baa    -0.0017    -0.899    -0.321    -0.300 -0.0577  0.7632  0.6436
    55 H(1)   Bbb    -0.0013    -0.711    -0.254    -0.237  0.0180 -0.6437  0.7650
              Bcc     0.0030     1.610     0.574     0.537  0.9982  0.0557  0.0234
 
              Baa    -0.0037    -0.497    -0.177    -0.166  0.6339  0.6498 -0.4195
    56 C(13)  Bbb    -0.0037    -0.493    -0.176    -0.164  0.3299  0.2633  0.9065
              Bcc     0.0074     0.989     0.353     0.330 -0.6995  0.7131  0.0474
 
              Baa    -0.0030    -1.608    -0.574    -0.536 -0.4230 -0.3507  0.8355
    57 H(1)   Bbb    -0.0028    -1.508    -0.538    -0.503  0.5104  0.6696  0.5395
              Bcc     0.0058     3.116     1.112     1.039  0.7487 -0.6547  0.1042
 
              Baa    -0.0031    -1.670    -0.596    -0.557  0.4951  0.2849  0.8208
    58 H(1)   Bbb    -0.0029    -1.553    -0.554    -0.518  0.4672  0.7092 -0.5280
              Bcc     0.0060     3.224     1.150     1.075  0.7325 -0.6449 -0.2179
 
              Baa    -0.0024    -1.286    -0.459    -0.429 -0.0947 -0.1292  0.9871
    59 H(1)   Bbb    -0.0024    -1.277    -0.456    -0.426  0.8230  0.5477  0.1506
              Bcc     0.0048     2.563     0.915     0.855 -0.5601  0.8266  0.0544
 
              Baa    -0.0040    -0.533    -0.190    -0.178  0.0755  0.0044  0.9971
    60 C(13)  Bbb    -0.0034    -0.459    -0.164    -0.153  0.9944  0.0739 -0.0756
              Bcc     0.0074     0.992     0.354     0.331 -0.0740  0.9973  0.0012
 
              Baa    -0.0024    -1.261    -0.450    -0.421  0.0268  0.0140  0.9995
    61 H(1)   Bbb    -0.0022    -1.172    -0.418    -0.391  0.9729  0.2292 -0.0293
              Bcc     0.0046     2.433     0.868     0.812 -0.2295  0.9733 -0.0075
 
              Baa    -0.0029    -1.551    -0.553    -0.517 -0.2992 -0.1648  0.9398
    62 H(1)   Bbb    -0.0028    -1.520    -0.542    -0.507  0.9539 -0.0291  0.2986
              Bcc     0.0058     3.071     1.096     1.024 -0.0219  0.9859  0.1659
 
              Baa    -0.0030    -1.610    -0.575    -0.537  0.6349  0.1107  0.7646
    63 H(1)   Bbb    -0.0030    -1.575    -0.562    -0.525  0.7726 -0.0843 -0.6293
              Bcc     0.0060     3.185     1.136     1.062 -0.0052  0.9903 -0.1390
 
              Baa    -0.0142    -1.910    -0.681    -0.637  0.7557  0.5411  0.3690
    64 C(13)  Bbb    -0.0135    -1.812    -0.647    -0.604 -0.4865  0.8410 -0.2368
              Bcc     0.0277     3.722     1.328     1.241 -0.4384 -0.0006  0.8988
 
              Baa    -0.0141    -7.507    -2.679    -2.504  0.2816  0.9595 -0.0035
    65 H(1)   Bbb    -0.0133    -7.106    -2.536    -2.370  0.7162 -0.2078  0.6662
              Bcc     0.0274    14.614     5.214     4.875 -0.6385  0.1901  0.7458
 
              Baa    -0.0073    -3.886    -1.387    -1.296 -0.0290  0.9971 -0.0706
    66 H(1)   Bbb    -0.0059    -3.155    -1.126    -1.052  0.9318  0.0526  0.3593
              Bcc     0.0132     7.041     2.512     2.349 -0.3619  0.0554  0.9306
 
              Baa    -0.0116    -6.194    -2.210    -2.066 -0.4303  0.9019  0.0362
    67 H(1)   Bbb    -0.0104    -5.524    -1.971    -1.843  0.7326  0.3255  0.5978
              Bcc     0.0220    11.718     4.181     3.909 -0.5274 -0.2838  0.8008
 
              Baa    -0.1920    -7.870    -2.808    -2.625  0.9742 -0.1394 -0.1777
    68 S(33)  Bbb    -0.1836    -7.528    -2.686    -2.511  0.1259  0.9884 -0.0853
              Bcc     0.3756    15.398     5.494     5.136  0.1875  0.0608  0.9804
 
              Baa    -0.0253   -13.488    -4.813    -4.499  0.9884 -0.1370 -0.0655
    69 H(1)   Bbb    -0.0200   -10.692    -3.815    -3.566  0.0899  0.8757 -0.4743
              Bcc     0.0453    24.180     8.628     8.066  0.1224  0.4630  0.8779
 

 ---------------------------------------------------------------------------------

 Unable to Open any file for archive entry.
 1\1\GINC-BGN1029\SP\UAPFD\Gen\C31H32Fe1N4S1(5)\BEBJONES\09-Jul-2024\0\
 \# apfd/gen scf=maxcycle=999 geom=check\\1dt6_II_Q\\0,5\Fe,0,-11.29767
 94024,-20.2459256478,-31.5524695338\N,0,-11.2507838204,-20.5584607688,
 -29.5895603647\N,0,-9.7741818915,-21.5055376949,-31.8142530501\N,0,-11
 .5028977021,-20.0727064028,-33.5580560841\N,0,-12.9306468804,-19.10710
 06135,-31.3340293403\C,0,-11.9790589573,-19.9047242566,-28.6455622795\
 C,0,-11.5248417463,-20.2545167966,-27.3189759838\C,0,-10.5221135552,-2
 1.1591696273,-27.4824401574\C,0,-10.3531283658,-21.3238643302,-28.9079
 317805\C,0,-9.0552085812,-22.1241401449,-30.8330829913\C,0,-7.91171970
 55,-22.8004439978,-31.385884136\C,0,-7.9606783386,-22.5961788119,-32.7
 398001166\C,0,-9.1403261822,-21.7918818683,-32.9829535763\C,0,-10.6495
 315115,-20.5772462945,-34.4937916456\C,0,-11.0125609019,-20.1299687643
 ,-35.8138397557\C,0,-12.1309451487,-19.3557498127,-35.6621266131\C,0,-
 12.407069089,-19.3203834766,-34.2386351908\C,0,-13.5764139561,-18.4008
 716544,-32.2983478046\C,0,-14.6282952913,-17.5915803474,-31.7239060002
 \C,0,-14.6194718392,-17.8462593279,-30.3895719642\C,0,-13.5444141572,-
 18.7880319137,-30.15983011\C,0,-13.0423144562,-19.060769706,-28.902347
 4173\H,0,-13.5594334337,-18.6383685419,-28.0552028856\C,0,-9.350662918
 2,-22.0825079208,-29.481306736\H,0,-8.7022542307,-22.6288604413,-28.81
 41497912\C,0,-9.5598091628,-21.3878864936,-34.2351818169\H,0,-8.962709
 558,-21.6946329242,-35.079378681\C,0,-13.3135263623,-18.4597471093,-33
 .6524219487\H,0,-13.918018168,-17.8452790664,-34.3001385596\C,0,-9.707
 5053978,-21.8640632835,-26.4535577662\H,0,-10.0547830977,-21.620129891
 9,-25.4529065248\H,0,-8.6588526211,-21.576244876,-26.5320970308\H,0,-9
 .7730697053,-22.9441476721,-26.5859291809\C,0,-12.1051595331,-19.70413
 75611,-26.0625155111\H,0,-13.1574176091,-19.9761309022,-25.9743427386\
 H,0,-12.0351803704,-18.6166734468,-26.0545108626\H,0,-11.5780580319,-2
 0.0880424744,-25.1928272835\C,0,-6.9389535678,-23.6147385114,-30.60791
 38353\H,0,-7.4439134219,-24.1771707331,-29.8237585897\H,0,-6.189863517
 4,-22.9770267093,-30.1362650696\H,0,-6.4287958013,-24.3149947168,-31.2
 660574227\C,0,-7.0599437232,-23.0689050774,-33.7687026738\H,0,-7.51943
 72055,-23.3087741902,-34.7204971174\C,0,-5.746646077,-23.2147069853,-3
 3.6306819003\H,0,-5.232426058,-22.9450521964,-32.7248094933\H,0,-5.133
 7524573,-23.5838609938,-34.4359382342\C,0,-10.2535374315,-20.428752793
 3,-37.0584079321\H,0,-10.5062533146,-21.4189498825,-37.4410318787\H,0,
 -9.1811625071,-20.4020582718,-36.8710704959\H,0,-10.4910330933,-19.693
 3279742,-37.8240030742\C,0,-12.9039118457,-18.6629566886,-36.670348207
 8\H,0,-13.3420483379,-17.7206817769,-36.3641562953\C,0,-13.1159653748,
 -19.0987906451,-37.9073392459\H,0,-12.7481652068,-20.0495744182,-38.25
 14941265\H,0,-13.6939404022,-18.5266704363,-38.6137758205\C,0,-15.5177
 35266,-16.6903385488,-32.5079710784\H,0,-16.0899423427,-17.2599418433,
 -33.2405380649\H,0,-14.9299836196,-15.943994485,-33.0422289163\H,0,-16
 .2149153207,-16.1725206254,-31.8542563293\C,0,-15.4994267971,-17.30142
 45669,-29.3180661854\H,0,-16.3259712416,-16.7400039068,-29.7461966504\
 H,0,-14.9377852735,-16.6354152875,-28.6618195769\H,0,-15.9083479664,-1
 8.1092000138,-28.7122507083\C,0,-12.6090321017,-23.3014282718,-30.4315
 765587\H,0,-11.556222369,-23.429846427,-30.2057065289\H,0,-13.07749911
 14,-24.2464611697,-30.6881307186\H,0,-13.115317795,-22.8509346983,-29.
 5843313234\S,0,-12.8030715023,-22.1409031782,-31.8311519079\H,0,-12.03
 82782697,-22.8402291126,-32.6766608264\\Version=ES64L-G16RevC.02\State
 =5-A\HF=-3080.2351029\S2=6.056998\S2-1=0.\S2A=6.000312\RMSD=7.612e-10\
 Dipole=-0.0787738,-0.3652651,0.5838116\Quadrupole=-3.6532498,-2.683055
 6,6.3363054,-9.5674561,-1.3444624,-0.9747669\PG=C01 [X(C31H32Fe1N4S1)]
 \\@
 The archive entry for this job was punched.


 You can't act like a skunk without someone's getting wind of it.
 -- Lorene Workman
 Job cpu time:       1 days 10 hours 36 minutes 54.8 seconds.
 Elapsed time:       0 days  0 hours 35 minutes 10.0 seconds.
 File lengths (MBytes):  RWF=    343 Int=      0 D2E=      0 Chk=    150 Scr=      1
 Normal termination of Gaussian 16 at Tue Jul  9 17:18:28 2024.
