 Entering Gaussian System, Link 0=g16
 Input=1dws12re.com
 Output=1dws12re.log
 Initial command:
 /sw/chem/gaussian/g16_C02/a100/g16/l1.exe "/local/bebjones_7927518/Gau-18365.inp" -scrdir="/local/bebjones_7927518/"
 Entering Link 1 = /sw/chem/gaussian/g16_C02/a100/g16/l1.exe PID=     18366.
  
 Copyright (c) 1988-2021, Gaussian, Inc.  All Rights Reserved.
  
 This is part of the Gaussian(R) 16 program.  It is based on
 the Gaussian(R) 09 system (copyright 2009, Gaussian, Inc.),
 the Gaussian(R) 03 system (copyright 2003, Gaussian, Inc.),
 the Gaussian(R) 98 system (copyright 1998, Gaussian, Inc.),
 the Gaussian(R) 94 system (copyright 1995, Gaussian, Inc.),
 the Gaussian 92(TM) system (copyright 1992, Gaussian, Inc.),
 the Gaussian 90(TM) system (copyright 1990, Gaussian, Inc.),
 the Gaussian 88(TM) system (copyright 1988, Gaussian, Inc.),
 the Gaussian 86(TM) system (copyright 1986, Carnegie Mellon
 University), and the Gaussian 82(TM) system (copyright 1983,
 Carnegie Mellon University). Gaussian is a federally registered
 trademark of Gaussian, Inc.
  
 This software contains proprietary and confidential information,
 including trade secrets, belonging to Gaussian, Inc.
  
 This software is provided under written license and may be
 used, copied, transmitted, or stored only in accord with that
 written license.
  
 The following legend is applicable only to US Government
 contracts under FAR:
  
                    RESTRICTED RIGHTS LEGEND
  
 Use, reproduction and disclosure by the US Government is
 subject to restrictions as set forth in subparagraphs (a)
 and (c) of the Commercial Computer Software - Restricted
 Rights clause in FAR 52.227-19.
  
 Gaussian, Inc.
 340 Quinnipiac St., Bldg. 40, Wallingford CT 06492
  
  
 ---------------------------------------------------------------
 Warning -- This program may not be used in any manner that
 competes with the business of Gaussian, Inc. or will provide
 assistance to any competitor of Gaussian, Inc.  The licensee
 of this program is prohibited from giving any competitor of
 Gaussian, Inc. access to this program.  By using this program,
 the user acknowledges that Gaussian, Inc. is engaged in the
 business of creating and licensing software in the field of
 computational chemistry and represents and warrants to the
 licensee that it is not a competitor of Gaussian, Inc. and that
 it will not use this program in any manner prohibited above.
 ---------------------------------------------------------------
  

 Cite this work as:
 Gaussian 16, Revision C.02,
 M. J. Frisch, G. W. Trucks, H. B. Schlegel, G. E. Scuseria, 
 M. A. Robb, J. R. Cheeseman, G. Scalmani, V. Barone, 
 G. A. Petersson, H. Nakatsuji, X. Li, M. Caricato, A. V. Marenich, 
 J. Bloino, B. G. Janesko, R. Gomperts, B. Mennucci, H. P. Hratchian, 
 J. V. Ortiz, A. F. Izmaylov, J. L. Sonnenberg, D. Williams-Young, 
 F. Ding, F. Lipparini, F. Egidi, J. Goings, B. Peng, A. Petrone, 
 T. Henderson, D. Ranasinghe, V. G. Zakrzewski, J. Gao, N. Rega, 
 G. Zheng, W. Liang, M. Hada, M. Ehara, K. Toyota, R. Fukuda, 
 J. Hasegawa, M. Ishida, T. Nakajima, Y. Honda, O. Kitao, H. Nakai, 
 T. Vreven, K. Throssell, J. A. Montgomery, Jr., J. E. Peralta, 
 F. Ogliaro, M. J. Bearpark, J. J. Heyd, E. N. Brothers, K. N. Kudin, 
 V. N. Staroverov, T. A. Keith, R. Kobayashi, J. Normand, 
 K. Raghavachari, A. P. Rendell, J. C. Burant, S. S. Iyengar, 
 J. Tomasi, M. Cossi, J. M. Millam, M. Klene, C. Adamo, R. Cammi, 
 J. W. Ochterski, R. L. Martin, K. Morokuma, O. Farkas, 
 J. B. Foresman, and D. J. Fox, Gaussian, Inc., Wallingford CT, 2019.
 
 ******************************************
 Gaussian 16:  ES64L-G16RevC.02  7-Dec-2021
                10-Jul-2024 
 ******************************************
 %mem=16GB
 %CPU=0-71
 SetSPE:  set environment variable "OMP_PROC_BIND" = "true"
 SetSPE:  set environment variable "OMP_PLACES" = "{0},{1},{2},{3},{4},{5},{6},{7},{8},{9},{10},{11},{12},{13},{14},{15},{16},{17},{18},{19},{20},{21},{22},{23},{24},{25},{26},{27},{28},{29},{30},{31},{32},{33},{34},{35},{36},{37},{38},{39},{40},{41},{42},{43},{44},{45},{46},{47},{48},{49},{50},{51},{52},{53},{54},{55},{56},{57},{58},{59},{60},{61},{62},{63},{64},{65},{66},{67},{68},{69},{70},{71}"
 Will use up to   72 processors via shared memory.
 %gpucpu=0,1,2,3=0,1,2,3
 Will use    4 GPUs:
 Thread  CPU   GPU
      0    0     0
      1    1     1
      2    2     2
      3    3     3
      4    4    -1
      5    5    -1
      6    6    -1
      7    7    -1
      8    8    -1
      9    9    -1
     10   10    -1
     11   11    -1
     12   12    -1
     13   13    -1
     14   14    -1
     15   15    -1
     16   16    -1
     17   17    -1
     18   18    -1
     19   19    -1
     20   20    -1
     21   21    -1
     22   22    -1
     23   23    -1
     24   24    -1
     25   25    -1
     26   26    -1
     27   27    -1
     28   28    -1
     29   29    -1
     30   30    -1
     31   31    -1
     32   32    -1
     33   33    -1
     34   34    -1
     35   35    -1
     36   36    -1
     37   37    -1
     38   38    -1
     39   39    -1
     40   40    -1
     41   41    -1
     42   42    -1
     43   43    -1
     44   44    -1
     45   45    -1
     46   46    -1
     47   47    -1
     48   48    -1
     49   49    -1
     50   50    -1
     51   51    -1
     52   52    -1
     53   53    -1
     54   54    -1
     55   55    -1
     56   56    -1
     57   57    -1
     58   58    -1
     59   59    -1
     60   60    -1
     61   61    -1
     62   62    -1
     63   63    -1
     64   64    -1
     65   65    -1
     66   66    -1
     67   67    -1
     68   68    -1
     69   69    -1
     70   70    -1
     71   71    -1
 SetGPE:  set environment variable "OMP_PROC_BIND" = "true"
 SetGPE:  set environment variable "OMP_PLACES" = "{0},{1},{2},{3},{4},{5},{6},{7},{8},{9},{10},{11},{12},{13},{14},{15},{16},{17},{18},{19},{20},{21},{22},{23},{24},{25},{26},{27},{28},{29},{30},{31},{32},{33},{34},{35},{36},{37},{38},{39},{40},{41},{42},{43},{44},{45},{46},{47},{48},{49},{50},{51},{52},{53},{54},{55},{56},{57},{58},{59},{60},{61},{62},{63},{64},{65},{66},{67},{68},{69},{70},{71}"
 %oldchk=1dws_II_S.chk
 %chk=1dws_II_Sre.chk
 Properties for Device   0
 Minimum vector length:                              32
 Maximum vector length:                            1024
 Number of SMPs:                                    108
 Maximum number of threads per SMP:                2048
 Number of ASync Engines:                             5
 Memory:                                           9207742464
 Properties for Device   1
 Minimum vector length:                              32
 Maximum vector length:                            1024
 Number of SMPs:                                    108
 Maximum number of threads per SMP:                2048
 Number of ASync Engines:                             5
 Memory:                                           9207742464
 Properties for Device   2
 Minimum vector length:                              32
 Maximum vector length:                            1024
 Number of SMPs:                                    108
 Maximum number of threads per SMP:                2048
 Number of ASync Engines:                             5
 Memory:                                           9207742464
 Properties for Device   3
 Minimum vector length:                              32
 Maximum vector length:                            1024
 Number of SMPs:                                    108
 Maximum number of threads per SMP:                2048
 Number of ASync Engines:                             5
 Memory:                                           9207742464
   8286968217 words of memory will be used on each GPU.
 Copying data from "1dws_II_S.chk" to current chk file "1dws_II_Sre.chk"
 IOpt=  2 FromEx=T IUOpen= 4 IOptOp= 5 NList=   0 IFRang= 0 IUIn= 4 IUOut= 2.
 --------------------------------------
 # apfd/gen scf=maxcycle=999 geom=check
 --------------------------------------
 1/29=2,38=1,172=1/1;
 2/12=2,40=1/2;
 3/5=7,11=2,14=-4,25=1,30=1,74=-44/1,2,3;
 4//1;
 5/5=2,7=999,38=5/2;
 6/7=2,8=2,9=2,10=2,28=1/1;
 99/5=1,9=1/99;
 ----------
 1dws_III_D
 ----------
 Structure from the checkpoint file:  "1dws_II_Sre.chk"
 Charge =  1 Multiplicity = 2
 Z-Matrix found in chk file.
 Fe,0,14.1388063759,28.6522893392,5.1499938044
 N,0,14.47257404,29.9437800401,6.6466590177
 N,0,13.5006224067,27.3095068475,6.502388763
 N,0,14.0976757541,27.2336083247,3.7356144498
 N,0,15.1046425499,29.8628022,3.8977934892
 C,0,14.9475478612,31.2149956319,6.5262228927
 C,0,14.8462428108,31.9267163764,7.7800190366
 C,0,14.3014394857,31.0554024019,8.6704605357
 C,0,14.0787347319,29.8244073591,7.9467635531
 C,0,13.2535838682,27.5218282751,7.8275416812
 C,0,12.672005475,26.3571457105,8.4416041132
 C,0,12.5800314207,25.4101119668,7.4571915061
 C,0,13.086736521,26.0358397433,6.2519984984
 C,0,13.6370446607,25.956472603,3.8638988122
 C,0,13.8107657979,25.2177228402,2.640137805
 C,0,14.4021934081,26.0773210537,1.7532446884
 C,0,14.5669552722,27.3308553806,2.4619384796
 C,0,15.4191290816,29.6244998119,2.5933285633
 C,0,16.0514785877,30.7782551919,1.9942305906
 C,0,16.1403099646,31.7152228067,2.9752302595
 C,0,15.5361903894,31.130355003,4.1514431823
 C,0,15.4537292851,31.7747046429,5.3693016911
 H,0,15.8198716019,32.7883563379,5.423887715
 C,0,13.5188310159,28.696245318,8.5094630593
 H,0,13.2716631498,28.7324623739,9.5594501524
 C,0,13.1418378831,25.4004393859,5.0286295126
 H,0,12.815550359,24.3727012021,4.9869086201
 C,0,15.1764681105,28.445340577,1.9169811498
 H,0,15.5073822288,28.3841878435,0.8915624567
 C,0,13.9824439674,31.2526132289,10.1128780128
 H,0,12.919417778,31.0952641613,10.2984447599
 H,0,14.2396990191,32.2597894592,10.4310906441
 H,0,14.5407489966,30.5462778972,10.7274482115
 C,0,15.2819126825,33.3369686774,7.9838911747
 H,0,14.7485719686,34.0051646424,7.3074992388
 H,0,16.3494157963,33.4386866433,7.7876575688
 H,0,15.0902653955,33.657572918,9.004924517
 C,0,12.2253183455,26.2671401264,9.8590853397
 H,0,11.7615787823,27.1994975567,10.1787174187
 H,0,13.0692731652,26.0665617778,10.5207661001
 H,0,11.5021727729,25.4619400557,9.9710055525
 C,0,12.0564080707,24.0632880987,7.5326571089
 H,0,11.5424675043,23.7090392889,6.6464988027
 C,0,12.1659425645,23.2538429091,8.5807378735
 H,0,12.7075860792,23.5347548994,9.4670024859
 H,0,11.7392841586,22.2645029579,8.5755139691
 C,0,13.3634978802,23.816066712,2.414534044
 H,0,12.4123024447,23.6302184667,2.9110800686
 H,0,14.0937104356,23.1069235841,2.8075225981
 H,0,13.2430242335,23.6301895798,1.3491487602
 C,0,14.7946312445,25.8494591772,0.3796525097
 H,0,14.7070127108,26.7044256447,-0.2810690438
 C,0,15.2495967849,24.7010587488,-0.1104032272
 H,0,15.4033420162,23.8351869805,0.5094060007
 H,0,15.5123733217,24.5967651771,-1.1500511558
 C,0,16.5156611114,30.8415082324,0.5797748929
 H,0,15.6791651514,30.6986140515,-0.1049440685
 H,0,17.251113882,30.061372803,0.3826002596
 H,0,16.9723462571,31.804548431,0.3655419524
 C,0,16.7178617503,33.0876657388,2.9217951707
 H,0,15.954174472,33.8345454056,3.1403438929
 H,0,17.1291684372,33.2960025494,1.9373404072
 H,0,17.5159133376,33.1948206095,3.6562929815
 C,0,9.5445740984,30.5263143914,2.5910492405
 H,0,9.2742262219,31.5717642255,2.7374571381
 H,0,8.6360567112,29.9276665338,2.6541777982
 H,0,9.9687472411,30.4124400122,1.5986663595
 N,0,10.2587731738,30.097367145,4.9509837172
 H,0,9.3892255198,30.3803841735,5.3721766006
 C,0,10.5338262856,30.0913414221,3.608887623
 C,0,11.3590392388,29.65094407,5.5981423889
 H,0,11.4297769518,29.5498277118,6.6624392668
 N,0,12.3175237049,29.3618674011,4.7475334913
 C,0,11.8155862439,29.6323037331,3.5047348266
 H,0,12.4081979931,29.4769254017,2.6264786487
 Recover connectivity data from disk.
 Stoichiometry    C34H34FeN6(1+,2)
 Framework group  C1[X(C34H34FeN6)]
 Deg. of freedom   219
 Full point group                 C1      NOp   1
 Largest Abelian subgroup         C1      NOp   1
 Largest concise Abelian subgroup C1      NOp   1
                         Standard orientation:                         
 ---------------------------------------------------------------------
 Center     Atomic      Atomic             Coordinates (Angstroms)
 Number     Number       Type             X           Y           Z
 ---------------------------------------------------------------------
      1         26           0       -0.030774   -0.172340   -0.324184
      2          7           0       -1.261944   -1.724262   -0.632592
      3          7           0       -1.615511    1.058321   -0.439923
      4          7           0        1.191739    1.415084   -0.343266
      5          7           0        1.537410   -1.374202   -0.574214
      6          6           0       -0.907739   -3.038756   -0.684909
      7          6           0       -2.075748   -3.889919   -0.694394
      8          6           0       -3.152527   -3.060715   -0.651346
      9          6           0       -2.625505   -1.715452   -0.616692
     10          6           0       -2.934393    0.709581   -0.472614
     11          6           0       -3.781595    1.871591   -0.411190
     12          6           0       -2.944813    2.953699   -0.354278
     13          6           0       -1.598044    2.417987   -0.354899
     14          6           0        0.833484    2.730422   -0.307837
     15          6           0        1.990467    3.584607   -0.380487
     16          6           0        3.075744    2.754389   -0.470973
     17          6           0        2.548978    1.404422   -0.441844
     18          6           0        2.852930   -1.020735   -0.616480
     19          6           0        3.698914   -2.187337   -0.731742
     20          6           0        2.863678   -3.258507   -0.787752
     21          6           0        1.521187   -2.732950   -0.678147
     22          6           0        0.387085   -3.518819   -0.715425
     23          1           0        0.521852   -4.587430   -0.782044
     24          6           0       -3.414454   -0.585708   -0.552584
     25          1           0       -4.484864   -0.723038   -0.568067
     26          6           0       -0.465472    3.203006   -0.288365
     27          1           0       -0.602731    4.273100   -0.265835
     28          6           0        3.333496    0.272568   -0.560163
     29          1           0        4.401423    0.408944   -0.635410
     30          6           0       -4.604835   -3.395404   -0.650021
     31          1           0       -5.089618   -3.008452    0.246903
     32          1           0       -4.753084   -4.471915   -0.681470
     33          1           0       -5.098657   -2.956312   -1.516997
     34          6           0       -2.031098   -5.378249   -0.749740
     35          1           0       -1.474423   -5.777453    0.098313
     36          1           0       -1.539576   -5.711493   -1.663945
     37          1           0       -3.034367   -5.796653   -0.729355
     38          6           0       -5.269643    1.847159   -0.366466
     39          1           0       -5.624865    1.022109    0.249666
     40          1           0       -5.686791    1.724226   -1.367060
     41          1           0       -5.644833    2.779731    0.049893
     42          6           0       -3.275815    4.359642   -0.267254
     43          1           0       -2.599534    4.965407    0.324858
     44          6           0       -4.317408    4.941499   -0.852232
     45          1           0       -4.992344    4.398868   -1.490800
     46          1           0       -4.514098    5.994271   -0.734577
     47          6           0        1.964143    5.071027   -0.306670
     48          1           0        1.210154    5.408541    0.402876
     49          1           0        1.729720    5.504552   -1.280136
     50          1           0        2.935008    5.445652    0.011429
     51          6           0        4.479869    3.089228   -0.565833
     52          1           0        5.160552    2.397712   -0.082434
     53          6           0        4.977523    4.149601   -1.193465
     54          1           0        4.353360    4.841420   -1.731370
     55          1           0        6.036586    4.346457   -1.214214
     56          6           0        5.186636   -2.142189   -0.800995
     57          1           0        5.598820   -1.689320    0.101224
     58          1           0        5.512618   -1.549681   -1.656009
     59          1           0        5.599486   -3.142955   -0.900630
     60          6           0        3.190665   -4.705858   -0.922934
     61          1           0        2.833602   -5.262883   -0.056307
     62          1           0        4.264413   -4.853491   -1.006589
     63          1           0        2.717176   -5.122769   -1.811669
     64          6           0        1.307761   -0.413875    5.090345
     65          1           0        1.181395   -1.368181    5.601052
     66          1           0        0.945531    0.375307    5.748941
     67          1           0        2.365375   -0.255606    4.905634
     68          7           0       -0.790337   -0.552230    3.733064
     69          1           0       -1.409925   -0.671321    4.517629
     70          6           0        0.569975   -0.404954    3.802165
     71          6           0       -1.143554   -0.502041    2.428682
     72          1           0       -2.151422   -0.589841    2.075910
     73          7           0       -0.088814   -0.332113    1.664195
     74          6           0        0.985090   -0.270366    2.508318
     75          1           0        1.976491   -0.132416    2.127847
 ---------------------------------------------------------------------
 Rotational constants (GHZ):           0.0938563           0.0924446           0.0593556
 General basis read from cards:  (5D, 7F)
 There are   704 symmetry adapted cartesian basis functions of A   symmetry.
 There are   661 symmetry adapted basis functions of A   symmetry.
   661 basis functions,  1342 primitive gaussians,   704 cartesian basis functions
   153 alpha electrons      152 beta electrons
       nuclear repulsion energy      5565.0566735007 Hartrees.
 NAtoms=   75 NActive=   75 NUniq=   75 SFac= 1.00D+00 NAtFMM=   60 NAOKFM=T Big=T
 Integral buffers will be    131072 words long.
 Raffenetti 2 integral format.
 Two-electron integral symmetry is turned on.
 R6APFD:  NTU= -4 IXU= 1 FactS= 1.050
 Nuclear repulsion after empirical dispersion term =     5564.9242912598 Hartrees.
 One-electron integrals computed using PRISM.
 NBasis=   661 RedAO= T EigKep=  2.52D-04  NBF=   661
 NBsUse=   661 1.00D-06 EigRej= -1.00D+00 NBFU=   661
 ExpMin= 4.20D-02 ExpMax= 3.01D+05 ExpMxC= 2.91D+03 IAcc=3 IRadAn=         5 AccDes= 0.00D+00
 Harris functional with IExCor= 3731 and IRadAn=       5 diagonalized for initial guess.
 HarFok:  IExCor= 3731 AccDes= 0.00D+00 IRadAn=         5 IDoV= 1 UseB2=F ITyADJ=14
 ICtDFT=  3500011 ScaDFX=  1.000000  1.000000  1.000000  1.000000
 FoFCou: FMM=F IPFlag=           0 FMFlag=      100000 FMFlg1=        2001
         NFxFlg=           0 DoJE=T BraDBF=F KetDBF=T FulRan=T
         wScrn=  0.000000 ICntrl=       500 IOpCl=  0 I1Cent=   200000004 NGrid=           0
         NMat0=    1 NMatS0=      1 NMatT0=    0 NMatD0=    1 NMtDS0=    0 NMtDT0=    0
 Petite list used in FoFCou.
 Initial guess <Sx>= 0.0000 <Sy>= 0.0000 <Sz>= 0.5000 <S**2>= 0.7500 S= 0.5000
 Requested convergence on RMS density matrix=1.00D-08 within 999 cycles.
 Requested convergence on MAX density matrix=1.00D-06.
 Requested convergence on             energy=1.00D-06.
 No special actions if energy rises.
 EnCoef did   100 forward-backward iterations
 EnCoef did   100 forward-backward iterations
 EnCoef did   100 forward-backward iterations
 EnCoef did   100 forward-backward iterations
 EnCoef did     8 forward-backward iterations
 EnCoef did     6 forward-backward iterations
 Restarting incremental Fock formation.
 Rare condition: small coef for last iteration:  0.000D+00
 Rare condition: small coef for last iteration:  0.000D+00
 Rare condition: small coef for last iteration:  0.000D+00
 Rare condition: small coef for last iteration:  0.000D+00
 Restarting incremental Fock formation.
 Restarting incremental Fock formation.
 Restarting incremental Fock formation.
 SCF Done:  E(UAPFD) =  -2906.83033235     A.U. after   97 cycles
            NFock= 97  Conv=0.41D-08     -V/T= 2.0038
 <Sx>= 0.0000 <Sy>= 0.0000 <Sz>= 0.5000 <S**2>= 0.9403 S= 0.5910
 <L.S>=  0.00000000000    
 Annihilation of the first spin contaminant:
 S**2 before annihilation     0.9403,   after     0.7581

 **********************************************************************

            Population analysis using the SCF Density.

 **********************************************************************

 Orbital symmetries:
 Alpha Orbitals:
       Occupied  (A) (A) (A) (A) (A) (A) (A) (A) (A) (A) (A) (A)
                 (A) (A) (A) (A) (A) (A) (A) (A) (A) (A) (A) (A)
                 (A) (A) (A) (A) (A) (A) (A) (A) (A) (A) (A) (A)
                 (A) (A) (A) (A) (A) (A) (A) (A) (A) (A) (A) (A)
                 (A) (A) (A) (A) (A) (A) (A) (A) (A) (A) (A) (A)
                 (A) (A) (A) (A) (A) (A) (A) (A) (A) (A) (A) (A)
                 (A) (A) (A) (A) (A) (A) (A) (A) (A) (A) (A) (A)
                 (A) (A) (A) (A) (A) (A) (A) (A) (A) (A) (A) (A)
                 (A) (A) (A) (A) (A) (A) (A) (A) (A) (A) (A) (A)
                 (A) (A) (A) (A) (A) (A) (A) (A) (A) (A) (A) (A)
                 (A) (A) (A) (A) (A) (A) (A) (A) (A) (A) (A) (A)
                 (A) (A) (A) (A) (A) (A) (A) (A) (A) (A) (A) (A)
                 (A) (A) (A) (A) (A) (A) (A) (A) (A)
       Virtual   (A) (A) (A) (A) (A) (A) (A) (A) (A) (A) (A) (A)
                 (A) (A) (A) (A) (A) (A) (A) (A) (A) (A) (A) (A)
                 (A) (A) (A) (A) (A) (A) (A) (A) (A) (A) (A) (A)
                 (A) (A) (A) (A) (A) (A) (A) (A) (A) (A) (A) (A)
                 (A) (A) (A) (A) (A) (A) (A) (A) (A) (A) (A) (A)
                 (A) (A) (A) (A) (A) (A) (A) (A) (A) (A) (A) (A)
                 (A) (A) (A) (A) (A) (A) (A) (A) (A) (A) (A) (A)
                 (A) (A) (A) (A) (A) (A) (A) (A) (A) (A) (A) (A)
                 (A) (A) (A) (A) (A) (A) (A) (A) (A) (A) (A) (A)
                 (A) (A) (A) (A) (A) (A) (A) (A) (A) (A) (A) (A)
                 (A) (A) (A) (A) (A) (A) (A) (A) (A) (A) (A) (A)
                 (A) (A) (A) (A) (A) (A) (A) (A) (A) (A) (A) (A)
                 (A) (A) (A) (A) (A) (A) (A) (A) (A) (A) (A) (A)
                 (A) (A) (A) (A) (A) (A) (A) (A) (A) (A) (A) (A)
                 (A) (A) (A) (A) (A) (A) (A) (A) (A) (A) (A) (A)
                 (A) (A) (A) (A) (A) (A) (A) (A) (A) (A) (A) (A)
                 (A) (A) (A) (A) (A) (A) (A) (A) (A) (A) (A) (A)
                 (A) (A) (A) (A) (A) (A) (A) (A) (A) (A) (A) (A)
                 (A) (A) (A) (A) (A) (A) (A) (A) (A) (A) (A) (A)
                 (A) (A) (A) (A) (A) (A) (A) (A) (A) (A) (A) (A)
                 (A) (A) (A) (A) (A) (A) (A) (A) (A) (A) (A) (A)
                 (A) (A) (A) (A) (A) (A) (A) (A) (A) (A) (A) (A)
                 (A) (A) (A) (A) (A) (A) (A) (A) (A) (A) (A) (A)
                 (A) (A) (A) (A) (A) (A) (A) (A) (A) (A) (A) (A)
                 (A) (A) (A) (A) (A) (A) (A) (A) (A) (A) (A) (A)
                 (A) (A) (A) (A) (A) (A) (A) (A) (A) (A) (A) (A)
                 (A) (A) (A) (A) (A) (A) (A) (A) (A) (A) (A) (A)
                 (A) (A) (A) (A) (A) (A) (A) (A) (A) (A) (A) (A)
                 (A) (A) (A) (A) (A) (A) (A) (A) (A) (A) (A) (A)
                 (A) (A) (A) (A) (A) (A) (A) (A) (A) (A) (A) (A)
                 (A) (A) (A) (A) (A) (A) (A) (A) (A) (A) (A) (A)
                 (A) (A) (A) (A) (A) (A) (A) (A) (A) (A) (A) (A)
                 (A) (A) (A) (A) (A) (A) (A) (A) (A) (A) (A) (A)
                 (A) (A) (A) (A) (A) (A) (A) (A) (A) (A) (A) (A)
                 (A) (A) (A) (A) (A) (A) (A) (A) (A) (A) (A) (A)
                 (A) (A) (A) (A) (A) (A) (A) (A) (A) (A) (A) (A)
                 (A) (A) (A) (A) (A) (A) (A) (A) (A) (A) (A) (A)
                 (A) (A) (A) (A) (A) (A) (A) (A) (A) (A) (A) (A)
                 (A) (A) (A) (A) (A) (A) (A) (A) (A) (A) (A) (A)
                 (A) (A) (A) (A) (A) (A) (A) (A) (A) (A) (A) (A)
                 (A) (A) (A) (A) (A) (A) (A) (A) (A) (A) (A) (A)
                 (A) (A) (A) (A) (A) (A) (A) (A) (A) (A) (A) (A)
                 (A) (A) (A) (A)
 Beta  Orbitals:
       Occupied  (A) (A) (A) (A) (A) (A) (A) (A) (A) (A) (A) (A)
                 (A) (A) (A) (A) (A) (A) (A) (A) (A) (A) (A) (A)
                 (A) (A) (A) (A) (A) (A) (A) (A) (A) (A) (A) (A)
                 (A) (A) (A) (A) (A) (A) (A) (A) (A) (A) (A) (A)
                 (A) (A) (A) (A) (A) (A) (A) (A) (A) (A) (A) (A)
                 (A) (A) (A) (A) (A) (A) (A) (A) (A) (A) (A) (A)
                 (A) (A) (A) (A) (A) (A) (A) (A) (A) (A) (A) (A)
                 (A) (A) (A) (A) (A) (A) (A) (A) (A) (A) (A) (A)
                 (A) (A) (A) (A) (A) (A) (A) (A) (A) (A) (A) (A)
                 (A) (A) (A) (A) (A) (A) (A) (A) (A) (A) (A) (A)
                 (A) (A) (A) (A) (A) (A) (A) (A) (A) (A) (A) (A)
                 (A) (A) (A) (A) (A) (A) (A) (A) (A) (A) (A) (A)
                 (A) (A) (A) (A) (A) (A) (A) (A)
       Virtual   (A) (A) (A) (A) (A) (A) (A) (A) (A) (A) (A) (A)
                 (A) (A) (A) (A) (A) (A) (A) (A) (A) (A) (A) (A)
                 (A) (A) (A) (A) (A) (A) (A) (A) (A) (A) (A) (A)
                 (A) (A) (A) (A) (A) (A) (A) (A) (A) (A) (A) (A)
                 (A) (A) (A) (A) (A) (A) (A) (A) (A) (A) (A) (A)
                 (A) (A) (A) (A) (A) (A) (A) (A) (A) (A) (A) (A)
                 (A) (A) (A) (A) (A) (A) (A) (A) (A) (A) (A) (A)
                 (A) (A) (A) (A) (A) (A) (A) (A) (A) (A) (A) (A)
                 (A) (A) (A) (A) (A) (A) (A) (A) (A) (A) (A) (A)
                 (A) (A) (A) (A) (A) (A) (A) (A) (A) (A) (A) (A)
                 (A) (A) (A) (A) (A) (A) (A) (A) (A) (A) (A) (A)
                 (A) (A) (A) (A) (A) (A) (A) (A) (A) (A) (A) (A)
                 (A) (A) (A) (A) (A) (A) (A) (A) (A) (A) (A) (A)
                 (A) (A) (A) (A) (A) (A) (A) (A) (A) (A) (A) (A)
                 (A) (A) (A) (A) (A) (A) (A) (A) (A) (A) (A) (A)
                 (A) (A) (A) (A) (A) (A) (A) (A) (A) (A) (A) (A)
                 (A) (A) (A) (A) (A) (A) (A) (A) (A) (A) (A) (A)
                 (A) (A) (A) (A) (A) (A) (A) (A) (A) (A) (A) (A)
                 (A) (A) (A) (A) (A) (A) (A) (A) (A) (A) (A) (A)
                 (A) (A) (A) (A) (A) (A) (A) (A) (A) (A) (A) (A)
                 (A) (A) (A) (A) (A) (A) (A) (A) (A) (A) (A) (A)
                 (A) (A) (A) (A) (A) (A) (A) (A) (A) (A) (A) (A)
                 (A) (A) (A) (A) (A) (A) (A) (A) (A) (A) (A) (A)
                 (A) (A) (A) (A) (A) (A) (A) (A) (A) (A) (A) (A)
                 (A) (A) (A) (A) (A) (A) (A) (A) (A) (A) (A) (A)
                 (A) (A) (A) (A) (A) (A) (A) (A) (A) (A) (A) (A)
                 (A) (A) (A) (A) (A) (A) (A) (A) (A) (A) (A) (A)
                 (A) (A) (A) (A) (A) (A) (A) (A) (A) (A) (A) (A)
                 (A) (A) (A) (A) (A) (A) (A) (A) (A) (A) (A) (A)
                 (A) (A) (A) (A) (A) (A) (A) (A) (A) (A) (A) (A)
                 (A) (A) (A) (A) (A) (A) (A) (A) (A) (A) (A) (A)
                 (A) (A) (A) (A) (A) (A) (A) (A) (A) (A) (A) (A)
                 (A) (A) (A) (A) (A) (A) (A) (A) (A) (A) (A) (A)
                 (A) (A) (A) (A) (A) (A) (A) (A) (A) (A) (A) (A)
                 (A) (A) (A) (A) (A) (A) (A) (A) (A) (A) (A) (A)
                 (A) (A) (A) (A) (A) (A) (A) (A) (A) (A) (A) (A)
                 (A) (A) (A) (A) (A) (A) (A) (A) (A) (A) (A) (A)
                 (A) (A) (A) (A) (A) (A) (A) (A) (A) (A) (A) (A)
                 (A) (A) (A) (A) (A) (A) (A) (A) (A) (A) (A) (A)
                 (A) (A) (A) (A) (A) (A) (A) (A) (A) (A) (A) (A)
                 (A) (A) (A) (A) (A) (A) (A) (A) (A) (A) (A) (A)
                 (A) (A) (A) (A) (A) (A) (A) (A) (A) (A) (A) (A)
                 (A) (A) (A) (A) (A)
 The electronic state is 2-A.
 Alpha  occ. eigenvalues -- -256.37230 -30.24182 -26.08752 -26.08604 -26.05988
 Alpha  occ. eigenvalues --  -14.54972 -14.52004 -14.48338 -14.48276 -14.47912
 Alpha  occ. eigenvalues --  -14.47650 -10.39186 -10.36227 -10.33849 -10.33822
 Alpha  occ. eigenvalues --  -10.33787 -10.33754 -10.33707 -10.33658 -10.33523
 Alpha  occ. eigenvalues --  -10.33435 -10.33432 -10.31120 -10.31063 -10.30950
 Alpha  occ. eigenvalues --  -10.30868 -10.30802 -10.30779 -10.30571 -10.30501
 Alpha  occ. eigenvalues --  -10.30482 -10.30292 -10.30216 -10.30143 -10.29957
 Alpha  occ. eigenvalues --  -10.29581 -10.29275 -10.28462 -10.28436 -10.28426
 Alpha  occ. eigenvalues --  -10.28380 -10.28312 -10.28266 -10.27927 -10.27887
 Alpha  occ. eigenvalues --   -3.63578  -2.42005  -2.41451  -2.35637  -1.17750
 Alpha  occ. eigenvalues --   -1.09210  -1.08381  -1.07964  -1.07164  -1.03556
 Alpha  occ. eigenvalues --   -0.93850  -0.92402  -0.91913  -0.91597  -0.91470
 Alpha  occ. eigenvalues --   -0.91229  -0.90989  -0.90931  -0.86869  -0.85592
 Alpha  occ. eigenvalues --   -0.85543  -0.84444  -0.83094  -0.82924  -0.81353
 Alpha  occ. eigenvalues --   -0.80312  -0.78735  -0.78539  -0.78251  -0.76756
 Alpha  occ. eigenvalues --   -0.75397  -0.75339  -0.73190  -0.70791  -0.70077
 Alpha  occ. eigenvalues --   -0.69036  -0.68491  -0.67658  -0.65336  -0.64603
 Alpha  occ. eigenvalues --   -0.63730  -0.63386  -0.62024  -0.61882  -0.61538
 Alpha  occ. eigenvalues --   -0.59707  -0.59302  -0.58848  -0.58417  -0.58234
 Alpha  occ. eigenvalues --   -0.56167  -0.55432  -0.55116  -0.54783  -0.54483
 Alpha  occ. eigenvalues --   -0.54152  -0.54122  -0.54026  -0.53623  -0.53465
 Alpha  occ. eigenvalues --   -0.53127  -0.52719  -0.52623  -0.52398  -0.52121
 Alpha  occ. eigenvalues --   -0.52012  -0.50781  -0.50759  -0.50623  -0.50459
 Alpha  occ. eigenvalues --   -0.50415  -0.50160  -0.50108  -0.49863  -0.49494
 Alpha  occ. eigenvalues --   -0.49169  -0.48848  -0.48737  -0.48407  -0.48215
 Alpha  occ. eigenvalues --   -0.47820  -0.47587  -0.47335  -0.46849  -0.46390
 Alpha  occ. eigenvalues --   -0.45952  -0.45857  -0.44960  -0.44477  -0.43804
 Alpha  occ. eigenvalues --   -0.43550  -0.43049  -0.42618  -0.42004  -0.41651
 Alpha  occ. eigenvalues --   -0.40078  -0.39583  -0.39128  -0.38913  -0.37358
 Alpha  occ. eigenvalues --   -0.36927  -0.35370  -0.34282  -0.33216  -0.32493
 Alpha  occ. eigenvalues --   -0.31749  -0.30237  -0.28895
 Alpha virt. eigenvalues --   -0.22621  -0.17348  -0.17319  -0.14654  -0.11589
 Alpha virt. eigenvalues --   -0.09750  -0.07973  -0.06749  -0.05596  -0.04743
 Alpha virt. eigenvalues --   -0.02511  -0.01978  -0.01708  -0.01067   0.00768
 Alpha virt. eigenvalues --    0.01070   0.01681   0.02447   0.02806   0.03089
 Alpha virt. eigenvalues --    0.03810   0.03969   0.04189   0.04733   0.04850
 Alpha virt. eigenvalues --    0.04938   0.05402   0.05593   0.06060   0.06344
 Alpha virt. eigenvalues --    0.06837   0.07321   0.07588   0.07845   0.07878
 Alpha virt. eigenvalues --    0.08304   0.08451   0.08924   0.08950   0.09360
 Alpha virt. eigenvalues --    0.09641   0.09936   0.10195   0.10458   0.10727
 Alpha virt. eigenvalues --    0.11306   0.11742   0.11914   0.12135   0.12254
 Alpha virt. eigenvalues --    0.12560   0.12843   0.13279   0.13733   0.14284
 Alpha virt. eigenvalues --    0.14690   0.15099   0.15573   0.15693   0.16062
 Alpha virt. eigenvalues --    0.16423   0.16732   0.17103   0.17824   0.17872
 Alpha virt. eigenvalues --    0.19474   0.19847   0.20134   0.20588   0.21709
 Alpha virt. eigenvalues --    0.21962   0.22981   0.23277   0.24774   0.24882
 Alpha virt. eigenvalues --    0.25549   0.25859   0.26598   0.26958   0.27174
 Alpha virt. eigenvalues --    0.28365   0.30158   0.30711   0.30883   0.31771
 Alpha virt. eigenvalues --    0.33047   0.33768   0.33795   0.34699   0.35062
 Alpha virt. eigenvalues --    0.37571   0.37705   0.38085   0.38533   0.39191
 Alpha virt. eigenvalues --    0.39780   0.40129   0.40262   0.40525   0.41590
 Alpha virt. eigenvalues --    0.41804   0.42214   0.42331   0.42564   0.43056
 Alpha virt. eigenvalues --    0.43392   0.43592   0.43836   0.44600   0.44744
 Alpha virt. eigenvalues --    0.45110   0.45834   0.46030   0.46577   0.47283
 Alpha virt. eigenvalues --    0.47392   0.47525   0.48120   0.48501   0.48914
 Alpha virt. eigenvalues --    0.49557   0.49823   0.50200   0.50546   0.50841
 Alpha virt. eigenvalues --    0.51364   0.52010   0.52471   0.52744   0.53180
 Alpha virt. eigenvalues --    0.53826   0.54152   0.54454   0.54959   0.55194
 Alpha virt. eigenvalues --    0.55518   0.55911   0.56316   0.56581   0.57160
 Alpha virt. eigenvalues --    0.57457   0.57569   0.57658   0.57997   0.58565
 Alpha virt. eigenvalues --    0.59508   0.59799   0.59886   0.60529   0.61118
 Alpha virt. eigenvalues --    0.61469   0.62225   0.62679   0.63069   0.63523
 Alpha virt. eigenvalues --    0.64009   0.64851   0.64978   0.65787   0.66434
 Alpha virt. eigenvalues --    0.66616   0.66797   0.67560   0.67794   0.68036
 Alpha virt. eigenvalues --    0.68435   0.68572   0.68847   0.69350   0.69544
 Alpha virt. eigenvalues --    0.69585   0.70500   0.70646   0.71361   0.71561
 Alpha virt. eigenvalues --    0.72726   0.73326   0.73507   0.74173   0.74191
 Alpha virt. eigenvalues --    0.75766   0.76550   0.77156   0.77554   0.77700
 Alpha virt. eigenvalues --    0.78099   0.78202   0.78535   0.78863   0.79052
 Alpha virt. eigenvalues --    0.79860   0.80252   0.81007   0.81461   0.81482
 Alpha virt. eigenvalues --    0.82392   0.82548   0.82636   0.82848   0.83212
 Alpha virt. eigenvalues --    0.83707   0.83842   0.84167   0.84633   0.84777
 Alpha virt. eigenvalues --    0.84936   0.85290   0.86286   0.86333   0.86800
 Alpha virt. eigenvalues --    0.87265   0.87719   0.87953   0.89037   0.89475
 Alpha virt. eigenvalues --    0.89517   0.89960   0.90380   0.90799   0.91002
 Alpha virt. eigenvalues --    0.91467   0.91836   0.92488   0.92751   0.93243
 Alpha virt. eigenvalues --    0.93901   0.94133   0.94820   0.95246   0.95365
 Alpha virt. eigenvalues --    0.96361   0.97026   0.97317   0.97499   0.98661
 Alpha virt. eigenvalues --    0.99076   1.01340   1.01561   1.02967   1.03538
 Alpha virt. eigenvalues --    1.04972   1.05336   1.06628   1.06771   1.07370
 Alpha virt. eigenvalues --    1.07735   1.08121   1.08734   1.09403   1.09956
 Alpha virt. eigenvalues --    1.10303   1.10768   1.10947   1.11171   1.11952
 Alpha virt. eigenvalues --    1.13081   1.13379   1.14140   1.14290   1.15775
 Alpha virt. eigenvalues --    1.16779   1.17386   1.18760   1.19354   1.19996
 Alpha virt. eigenvalues --    1.20418   1.20844   1.20967   1.21571   1.22033
 Alpha virt. eigenvalues --    1.23373   1.24171   1.24735   1.25811   1.26374
 Alpha virt. eigenvalues --    1.26560   1.27165   1.27530   1.27772   1.28039
 Alpha virt. eigenvalues --    1.28309   1.28785   1.29563   1.29876   1.30732
 Alpha virt. eigenvalues --    1.31900   1.32316   1.32938   1.33602   1.34044
 Alpha virt. eigenvalues --    1.36049   1.36633   1.37842   1.38068   1.38309
 Alpha virt. eigenvalues --    1.39546   1.40940   1.41298   1.43428   1.44010
 Alpha virt. eigenvalues --    1.44240   1.44763   1.45502   1.46560   1.46818
 Alpha virt. eigenvalues --    1.47903   1.49347   1.49951   1.50616   1.51488
 Alpha virt. eigenvalues --    1.52586   1.52866   1.53778   1.55491   1.56481
 Alpha virt. eigenvalues --    1.56915   1.58016   1.59964   1.60422   1.61189
 Alpha virt. eigenvalues --    1.61977   1.63153   1.64920   1.68464   1.68736
 Alpha virt. eigenvalues --    1.69165   1.69512   1.70018   1.70394   1.70686
 Alpha virt. eigenvalues --    1.70779   1.71226   1.72053   1.72309   1.72596
 Alpha virt. eigenvalues --    1.73384   1.73785   1.74393   1.74806   1.75321
 Alpha virt. eigenvalues --    1.75708   1.76903   1.77469   1.78019   1.78294
 Alpha virt. eigenvalues --    1.79123   1.79534   1.79858   1.80631   1.81709
 Alpha virt. eigenvalues --    1.82326   1.82733   1.83155   1.83864   1.84370
 Alpha virt. eigenvalues --    1.85088   1.85731   1.86131   1.87574   1.89040
 Alpha virt. eigenvalues --    1.90040   1.90326   1.90633   1.91023   1.91452
 Alpha virt. eigenvalues --    1.91706   1.93086   1.93603   1.94970   1.95164
 Alpha virt. eigenvalues --    1.95580   1.95670   1.96123   1.97094   1.98105
 Alpha virt. eigenvalues --    1.98654   1.99644   2.00234   2.00960   2.02174
 Alpha virt. eigenvalues --    2.03002   2.03684   2.04018   2.05771   2.06056
 Alpha virt. eigenvalues --    2.06269   2.07114   2.07503   2.08681   2.09100
 Alpha virt. eigenvalues --    2.09811   2.10680   2.11270   2.12471   2.13163
 Alpha virt. eigenvalues --    2.13406   2.14234   2.14471   2.14586   2.15677
 Alpha virt. eigenvalues --    2.16016   2.16881   2.17060   2.17147   2.17850
 Alpha virt. eigenvalues --    2.18428   2.19041   2.19439   2.20128   2.20348
 Alpha virt. eigenvalues --    2.20994   2.21538   2.21687   2.22054   2.23277
 Alpha virt. eigenvalues --    2.24581   2.24887   2.25223   2.26222   2.26414
 Alpha virt. eigenvalues --    2.27130   2.27239   2.27519   2.28223   2.28813
 Alpha virt. eigenvalues --    2.30317   2.30476   2.31060   2.31342   2.32068
 Alpha virt. eigenvalues --    2.33256   2.33718   2.34226   2.34739   2.35139
 Alpha virt. eigenvalues --    2.35406   2.37586   2.38164   2.39637   2.40342
 Alpha virt. eigenvalues --    2.42197   2.42531   2.42969   2.43261   2.43591
 Alpha virt. eigenvalues --    2.45277   2.45462   2.46095   2.46332   2.47155
 Alpha virt. eigenvalues --    2.48966   2.50138   2.50280   2.50773   2.52819
 Alpha virt. eigenvalues --    2.55274   2.56217   2.57216   2.57953   2.58366
 Alpha virt. eigenvalues --    2.59186   2.60202   2.61441   2.62394   2.63617
 Alpha virt. eigenvalues --    2.65422   2.67942   2.68136   2.69822   2.70931
 Alpha virt. eigenvalues --    2.71358   2.75856   2.77190   2.77652   2.78631
 Alpha virt. eigenvalues --    2.80419   2.81512   2.82544   2.84709   2.86709
 Alpha virt. eigenvalues --    2.86889   2.87712   2.88874   2.89298   2.89440
 Alpha virt. eigenvalues --    2.90476   2.94042   2.94680   2.95418   3.02248
 Alpha virt. eigenvalues --    3.03587   3.04010   3.10302   3.13157   3.13621
 Alpha virt. eigenvalues --    3.19952   3.20103   3.28179   3.29612   3.30086
 Alpha virt. eigenvalues --    3.32545   3.36064   3.36280   3.43565   3.50247
 Alpha virt. eigenvalues --    3.75179   3.91761   4.07370
  Beta  occ. eigenvalues -- -256.37184 -30.21605 -26.06038 -26.05727 -26.05126
  Beta  occ. eigenvalues --  -14.54970 -14.52120 -14.48470 -14.48405 -14.48079
  Beta  occ. eigenvalues --  -14.47804 -10.39170 -10.36231 -10.33819 -10.33787
  Beta  occ. eigenvalues --  -10.33787 -10.33715 -10.33673 -10.33626 -10.33493
  Beta  occ. eigenvalues --  -10.33405 -10.33403 -10.31143 -10.31121 -10.31031
  Beta  occ. eigenvalues --  -10.30940 -10.30888 -10.30761 -10.30548 -10.30480
  Beta  occ. eigenvalues --  -10.30461 -10.30292 -10.30214 -10.30142 -10.29958
  Beta  occ. eigenvalues --  -10.29588 -10.29276 -10.28464 -10.28437 -10.28428
  Beta  occ. eigenvalues --  -10.28382 -10.28313 -10.28254 -10.27928 -10.27886
  Beta  occ. eigenvalues --   -3.57279  -2.33698  -2.32914  -2.32383  -1.17777
  Beta  occ. eigenvalues --   -1.09329  -1.08469  -1.08127  -1.07292  -1.03633
  Beta  occ. eigenvalues --   -0.93925  -0.92406  -0.91949  -0.91599  -0.91478
  Beta  occ. eigenvalues --   -0.91280  -0.91067  -0.91024  -0.86864  -0.85773
  Beta  occ. eigenvalues --   -0.85559  -0.84453  -0.83109  -0.82931  -0.81368
  Beta  occ. eigenvalues --   -0.80337  -0.78745  -0.78554  -0.78292  -0.76805
  Beta  occ. eigenvalues --   -0.75418  -0.75360  -0.73200  -0.70796  -0.70089
  Beta  occ. eigenvalues --   -0.69042  -0.68571  -0.67672  -0.65348  -0.64630
  Beta  occ. eigenvalues --   -0.63741  -0.63374  -0.62064  -0.61932  -0.61568
  Beta  occ. eigenvalues --   -0.59712  -0.59285  -0.58807  -0.58447  -0.58236
  Beta  occ. eigenvalues --   -0.56201  -0.55470  -0.55132  -0.54777  -0.54451
  Beta  occ. eigenvalues --   -0.54138  -0.54072  -0.54036  -0.53628  -0.53504
  Beta  occ. eigenvalues --   -0.53103  -0.52675  -0.52629  -0.52411  -0.52095
  Beta  occ. eigenvalues --   -0.51997  -0.50769  -0.50630  -0.50605  -0.50438
  Beta  occ. eigenvalues --   -0.50400  -0.50175  -0.49903  -0.49864  -0.49522
  Beta  occ. eigenvalues --   -0.49174  -0.48756  -0.48566  -0.48277  -0.48161
  Beta  occ. eigenvalues --   -0.47818  -0.47426  -0.47211  -0.46696  -0.46319
  Beta  occ. eigenvalues --   -0.45813  -0.44970  -0.44402  -0.43994  -0.43674
  Beta  occ. eigenvalues --   -0.43160  -0.42584  -0.42212  -0.41903  -0.39823
  Beta  occ. eigenvalues --   -0.39279  -0.38369  -0.37882  -0.36698  -0.36468
  Beta  occ. eigenvalues --   -0.35265  -0.34483  -0.33390  -0.32588  -0.31570
  Beta  occ. eigenvalues --   -0.30332  -0.28634
  Beta virt. eigenvalues --   -0.20002  -0.17566  -0.17441  -0.16276  -0.11700
  Beta virt. eigenvalues --   -0.11160  -0.09529  -0.07878  -0.06793  -0.05498
  Beta virt. eigenvalues --   -0.04813  -0.02370  -0.01722  -0.01365  -0.00968
  Beta virt. eigenvalues --    0.00852   0.01143   0.01665   0.02448   0.02820
  Beta virt. eigenvalues --    0.03082   0.03802   0.04017   0.04147   0.04690
  Beta virt. eigenvalues --    0.04849   0.04929   0.05390   0.05575   0.06060
  Beta virt. eigenvalues --    0.06348   0.06842   0.07329   0.07608   0.07828
  Beta virt. eigenvalues --    0.07883   0.08326   0.08471   0.08931   0.08962
  Beta virt. eigenvalues --    0.09361   0.09672   0.09952   0.10201   0.10484
  Beta virt. eigenvalues --    0.10730   0.11326   0.11753   0.12029   0.12145
  Beta virt. eigenvalues --    0.12263   0.12784   0.12958   0.13307   0.13799
  Beta virt. eigenvalues --    0.14447   0.14728   0.15151   0.15601   0.15817
  Beta virt. eigenvalues --    0.16079   0.16493   0.16744   0.17219   0.17843
  Beta virt. eigenvalues --    0.17901   0.19492   0.20135   0.20227   0.20588
  Beta virt. eigenvalues --    0.21761   0.22093   0.23044   0.23319   0.24822
  Beta virt. eigenvalues --    0.24926   0.25593   0.25890   0.26635   0.27025
  Beta virt. eigenvalues --    0.27238   0.28384   0.30192   0.30824   0.30918
  Beta virt. eigenvalues --    0.31874   0.33023   0.33763   0.33780   0.34737
  Beta virt. eigenvalues --    0.35117   0.37614   0.37857   0.38121   0.38558
  Beta virt. eigenvalues --    0.39190   0.39779   0.40156   0.40327   0.40628
  Beta virt. eigenvalues --    0.41620   0.41848   0.42244   0.42387   0.42555
  Beta virt. eigenvalues --    0.43076   0.43389   0.43635   0.43843   0.44702
  Beta virt. eigenvalues --    0.44738   0.45141   0.45889   0.46047   0.46709
  Beta virt. eigenvalues --    0.47326   0.47366   0.47481   0.48126   0.48416
  Beta virt. eigenvalues --    0.48909   0.49632   0.49795   0.50213   0.50547
  Beta virt. eigenvalues --    0.50844   0.51319   0.51975   0.52477   0.52726
  Beta virt. eigenvalues --    0.53151   0.53863   0.54180   0.54539   0.54961
  Beta virt. eigenvalues --    0.55213   0.55658   0.55927   0.56336   0.56517
  Beta virt. eigenvalues --    0.57129   0.57404   0.57643   0.57767   0.58123
  Beta virt. eigenvalues --    0.58545   0.59589   0.59884   0.59922   0.60603
  Beta virt. eigenvalues --    0.61279   0.61535   0.62231   0.62731   0.63157
  Beta virt. eigenvalues --    0.63705   0.64030   0.64905   0.65031   0.65786
  Beta virt. eigenvalues --    0.66463   0.66624   0.66795   0.67560   0.67862
  Beta virt. eigenvalues --    0.68057   0.68495   0.68674   0.68910   0.69391
  Beta virt. eigenvalues --    0.69580   0.70007   0.70554   0.70696   0.71387
  Beta virt. eigenvalues --    0.71679   0.72849   0.73408   0.73496   0.74197
  Beta virt. eigenvalues --    0.74280   0.75811   0.76598   0.77185   0.77549
  Beta virt. eigenvalues --    0.77691   0.78095   0.78259   0.78564   0.78857
  Beta virt. eigenvalues --    0.79070   0.79948   0.80317   0.81025   0.81489
  Beta virt. eigenvalues --    0.81532   0.82439   0.82570   0.82642   0.82969
  Beta virt. eigenvalues --    0.83213   0.83717   0.83850   0.84162   0.84630
  Beta virt. eigenvalues --    0.84798   0.84993   0.85243   0.86278   0.86380
  Beta virt. eigenvalues --    0.86792   0.87315   0.87730   0.87980   0.89045
  Beta virt. eigenvalues --    0.89501   0.89614   0.89971   0.90411   0.90797
  Beta virt. eigenvalues --    0.91109   0.91524   0.91845   0.92509   0.92725
  Beta virt. eigenvalues --    0.93465   0.93919   0.94169   0.94810   0.95258
  Beta virt. eigenvalues --    0.95393   0.96385   0.97033   0.97297   0.97561
  Beta virt. eigenvalues --    0.98682   0.99197   1.01417   1.01549   1.03246
  Beta virt. eigenvalues --    1.03644   1.04957   1.05329   1.06698   1.07240
  Beta virt. eigenvalues --    1.07640   1.07743   1.08164   1.08802   1.09475
  Beta virt. eigenvalues --    1.09972   1.10297   1.10776   1.10981   1.11248
  Beta virt. eigenvalues --    1.11956   1.13351   1.13441   1.14151   1.14352
  Beta virt. eigenvalues --    1.15768   1.16883   1.17375   1.18754   1.19398
  Beta virt. eigenvalues --    1.19987   1.20388   1.20837   1.20964   1.21575
  Beta virt. eigenvalues --    1.22044   1.23409   1.24215   1.24741   1.25842
  Beta virt. eigenvalues --    1.26381   1.26548   1.27183   1.27521   1.27759
  Beta virt. eigenvalues --    1.28057   1.28320   1.28788   1.29571   1.29954
  Beta virt. eigenvalues --    1.30846   1.31898   1.32374   1.32875   1.33547
  Beta virt. eigenvalues --    1.34019   1.36038   1.36659   1.37858   1.37961
  Beta virt. eigenvalues --    1.38321   1.39542   1.40957   1.41306   1.43414
  Beta virt. eigenvalues --    1.44009   1.44232   1.44766   1.45508   1.46598
  Beta virt. eigenvalues --    1.46925   1.48001   1.49376   1.49979   1.50606
  Beta virt. eigenvalues --    1.51493   1.52603   1.53091   1.53813   1.55713
  Beta virt. eigenvalues --    1.56499   1.57021   1.58116   1.59996   1.60427
  Beta virt. eigenvalues --    1.61177   1.61966   1.63139   1.64916   1.68489
  Beta virt. eigenvalues --    1.68979   1.69121   1.69477   1.70072   1.70394
  Beta virt. eigenvalues --    1.70673   1.70771   1.71273   1.71999   1.72349
  Beta virt. eigenvalues --    1.72603   1.73363   1.73795   1.74366   1.74806
  Beta virt. eigenvalues --    1.75319   1.75701   1.76876   1.77471   1.77969
  Beta virt. eigenvalues --    1.78268   1.79122   1.79653   1.79855   1.80747
  Beta virt. eigenvalues --    1.81685   1.82371   1.82759   1.83099   1.83891
  Beta virt. eigenvalues --    1.84390   1.85124   1.85689   1.86124   1.88093
  Beta virt. eigenvalues --    1.89235   1.90047   1.90331   1.90699   1.91071
  Beta virt. eigenvalues --    1.91497   1.91701   1.93168   1.93582   1.94919
  Beta virt. eigenvalues --    1.95190   1.95604   1.95649   1.96173   1.97105
  Beta virt. eigenvalues --    1.98086   1.98635   1.99604   2.00278   2.01058
  Beta virt. eigenvalues --    2.02163   2.03024   2.03710   2.04010   2.05793
  Beta virt. eigenvalues --    2.06091   2.06383   2.07130   2.08009   2.08694
  Beta virt. eigenvalues --    2.09177   2.09873   2.10675   2.11353   2.12819
  Beta virt. eigenvalues --    2.13207   2.13579   2.14329   2.14879   2.15292
  Beta virt. eigenvalues --    2.15683   2.16158   2.16879   2.17115   2.17508
  Beta virt. eigenvalues --    2.17888   2.18449   2.19069   2.19601   2.20110
  Beta virt. eigenvalues --    2.20460   2.20989   2.21610   2.21823   2.22076
  Beta virt. eigenvalues --    2.23302   2.24635   2.24917   2.25266   2.26222
  Beta virt. eigenvalues --    2.26427   2.27124   2.27277   2.27507   2.28241
  Beta virt. eigenvalues --    2.28841   2.30319   2.30466   2.31070   2.31346
  Beta virt. eigenvalues --    2.32104   2.33314   2.33729   2.34267   2.34743
  Beta virt. eigenvalues --    2.35151   2.35528   2.37583   2.38238   2.39732
  Beta virt. eigenvalues --    2.40402   2.42185   2.42515   2.43025   2.43299
  Beta virt. eigenvalues --    2.43578   2.45261   2.45441   2.46103   2.46354
  Beta virt. eigenvalues --    2.47159   2.49029   2.50167   2.50304   2.50801
  Beta virt. eigenvalues --    2.52835   2.55230   2.56181   2.57129   2.57935
  Beta virt. eigenvalues --    2.58290   2.59073   2.60106   2.61356   2.62364
  Beta virt. eigenvalues --    2.63638   2.65377   2.67905   2.68106   2.69815
  Beta virt. eigenvalues --    2.70927   2.71335   2.75810   2.77178   2.77574
  Beta virt. eigenvalues --    2.78570   2.80422   2.81494   2.82577   2.84699
  Beta virt. eigenvalues --    2.86682   2.86855   2.87840   2.88844   2.89273
  Beta virt. eigenvalues --    2.89413   2.90530   2.94063   2.94655   2.95398
  Beta virt. eigenvalues --    3.02226   3.03602   3.04017   3.10289   3.13190
  Beta virt. eigenvalues --    3.13659   3.19965   3.20103   3.28224   3.29615
  Beta virt. eigenvalues --    3.30229   3.35915   3.36038   3.36352   3.48800
  Beta virt. eigenvalues --    3.54781   3.77219   3.94348   4.09591
          Condensed to atoms (all electrons):
          Atomic-Atomic Spin Densities.
 Mulliken charges and spin densities:
               1          2
     1  Fe   0.879483   1.303631
     2  N   -0.664483  -0.071250
     3  N   -0.694802  -0.068759
     4  N   -0.679709  -0.076155
     5  N   -0.701107  -0.068615
     6  C    0.327430   0.024268
     7  C    0.040749   0.000525
     8  C    0.041050   0.002152
     9  C    0.307956   0.022756
    10  C    0.311135   0.024197
    11  C    0.044664   0.011328
    12  C    0.008898   0.014059
    13  C    0.332648   0.021426
    14  C    0.323902   0.021011
    15  C    0.044138   0.000815
    16  C    0.009135  -0.000149
    17  C    0.317510   0.026039
    18  C    0.320085   0.025422
    19  C    0.044873   0.015173
    20  C    0.043014   0.013268
    21  C    0.334683   0.025254
    22  C   -0.285964  -0.065317
    23  H    0.196629   0.003034
    24  C   -0.301778  -0.060128
    25  H    0.196840   0.002782
    26  C   -0.279346  -0.055464
    27  H    0.198299   0.002634
    28  C   -0.287272  -0.061570
    29  H    0.197986   0.002855
    30  C   -0.611307  -0.000445
    31  H    0.194706   0.000242
    32  H    0.205532  -0.000130
    33  H    0.209205   0.000240
    34  C   -0.612542  -0.000379
    35  H    0.199927   0.000190
    36  H    0.208301   0.000197
    37  H    0.204203  -0.000148
    38  C   -0.613237  -0.001219
    39  H    0.189578   0.000565
    40  H    0.212581   0.000933
    41  H    0.212589  -0.000034
    42  C   -0.155373  -0.005568
    43  H    0.179477   0.000530
    44  C   -0.387083   0.008105
    45  H    0.191611  -0.000404
    46  H    0.195633  -0.000346
    47  C   -0.615511  -0.000366
    48  H    0.193022   0.000129
    49  H    0.210577   0.000222
    50  H    0.212334  -0.000162
    51  C   -0.154370  -0.000467
    52  H    0.175457   0.000061
    53  C   -0.388511   0.000715
    54  H    0.190812  -0.000029
    55  H    0.193462  -0.000039
    56  C   -0.612898  -0.001560
    57  H    0.200910   0.001000
    58  H    0.211342   0.000941
    59  H    0.206016  -0.000049
    60  C   -0.613094  -0.001670
    61  H    0.203456   0.001024
    62  H    0.205704  -0.000142
    63  H    0.208851   0.000895
    64  C   -0.602662  -0.000205
    65  H    0.217307  -0.000178
    66  H    0.216695   0.000034
    67  H    0.223744  -0.000040
    68  N   -0.628306   0.001139
    69  H    0.390972  -0.000066
    70  C    0.285083  -0.001763
    71  C    0.266497   0.010529
    72  H    0.236384  -0.000078
    73  N   -0.459946  -0.049080
    74  C   -0.038902   0.001325
    75  H    0.215127   0.000334
 Sum of Mulliken charges =   1.00000   1.00000
 Mulliken charges and spin densities with hydrogens summed into heavy atoms:
               1          2
     1  Fe   0.879483   1.303631
     2  N   -0.664483  -0.071250
     3  N   -0.694802  -0.068759
     4  N   -0.679709  -0.076155
     5  N   -0.701107  -0.068615
     6  C    0.327430   0.024268
     7  C    0.040749   0.000525
     8  C    0.041050   0.002152
     9  C    0.307956   0.022756
    10  C    0.311135   0.024197
    11  C    0.044664   0.011328
    12  C    0.008898   0.014059
    13  C    0.332648   0.021426
    14  C    0.323902   0.021011
    15  C    0.044138   0.000815
    16  C    0.009135  -0.000149
    17  C    0.317510   0.026039
    18  C    0.320085   0.025422
    19  C    0.044873   0.015173
    20  C    0.043014   0.013268
    21  C    0.334683   0.025254
    22  C   -0.089336  -0.062283
    24  C   -0.104938  -0.057346
    26  C   -0.081047  -0.052830
    28  C   -0.089286  -0.058715
    30  C   -0.001863  -0.000094
    34  C   -0.000111  -0.000140
    38  C    0.001511   0.000245
    42  C    0.024104  -0.005038
    44  C    0.000161   0.007355
    47  C    0.000422  -0.000178
    51  C    0.021088  -0.000405
    53  C   -0.004237   0.000647
    56  C    0.005370   0.000333
    60  C    0.004916   0.000107
    64  C    0.055084  -0.000390
    68  N   -0.237334   0.001073
    70  C    0.285083  -0.001763
    71  C    0.502881   0.010451
    73  N   -0.459946  -0.049080
    74  C    0.176226   0.001659
 Electronic spatial extent (au):  <R**2>=          19758.1177
 Charge=              1.0000 electrons
 Dipole moment (field-independent basis, Debye):
    X=             -0.9839    Y=             -1.6612    Z=              6.2445  Tot=              6.5362
 Quadrupole moment (field-independent basis, Debye-Ang):
   XX=           -169.9690   YY=           -177.7850   ZZ=           -204.1666
   XY=             -0.8110   XZ=             -4.0004   YZ=             -3.4532
 Traceless Quadrupole moment (field-independent basis, Debye-Ang):
   XX=             14.0045   YY=              6.1885   ZZ=            -20.1930
   XY=             -0.8110   XZ=             -4.0004   YZ=             -3.4532
 Octapole moment (field-independent basis, Debye-Ang**2):
  XXX=              3.3689  YYY=             -3.8178  ZZZ=            214.6110  XYY=             -8.8576
  XXY=              6.4101  XXZ=            -28.6447  XZZ=            -15.5930  YZZ=            -33.1792
  YYZ=            -52.3762  XYZ=              5.3049
 Hexadecapole moment (field-independent basis, Debye-Ang**3):
 XXXX=         -10155.1848 YYYY=          -9943.8580 ZZZZ=          -2338.6320 XXXY=            -23.1925
 XXXZ=              9.9228 YYYX=            -55.8332 YYYZ=             22.1678 ZZZX=            -46.7671
 ZZZY=           -116.5278 XXYY=          -3152.7026 XXZZ=          -2425.5649 YYZZ=          -2483.3668
 XXYZ=            -80.8828 YYXZ=            -50.6053 ZZXY=             18.6864
 N-N= 5.564924291260D+03 E-N=-1.792369849726D+04  KE= 2.895876818275D+03
                          Isotropic Fermi Contact Couplings
        Atom                 a.u.       MegaHertz       Gauss      10(-4) cm-1
     1  Fe(57)             0.17722      25.70414       9.17188       8.57398
     2  N(14)             -0.03755     -12.13317      -4.32942      -4.04719
     3  N(14)             -0.02842      -9.18266      -3.27660      -3.06301
     4  N(14)             -0.03240     -10.47014      -3.73601      -3.49246
     5  N(14)             -0.03153     -10.18874      -3.63559      -3.39860
     6  C(13)              0.00341       3.83717       1.36920       1.27994
     7  C(13)             -0.00096      -1.07452      -0.38341      -0.35842
     8  C(13)             -0.00058      -0.65497      -0.23371      -0.21847
     9  C(13)              0.00333       3.74262       1.33546       1.24840
    10  C(13)              0.00433       4.86796       1.73701       1.62378
    11  C(13)              0.00093       1.04715       0.37365       0.34929
    12  C(13)              0.00107       1.20148       0.42872       0.40077
    13  C(13)              0.00320       3.59242       1.28187       1.19830
    14  C(13)              0.00325       3.65900       1.30562       1.22051
    15  C(13)             -0.00054      -0.60549      -0.21606      -0.20197
    16  C(13)             -0.00073      -0.82102      -0.29296      -0.27386
    17  C(13)              0.00418       4.69921       1.67680       1.56749
    18  C(13)              0.00522       5.86771       2.09375       1.95726
    19  C(13)              0.00145       1.63408       0.58308       0.54507
    20  C(13)              0.00078       0.87154       0.31099       0.29071
    21  C(13)              0.00254       2.85954       1.02036       0.95384
    22  C(13)             -0.00865      -9.72518      -3.47019      -3.24397
    23  H(1)               0.00103       4.58751       1.63694       1.53023
    24  C(13)             -0.00810      -9.10058      -3.24731      -3.03563
    25  H(1)               0.00095       4.22540       1.50773       1.40944
    26  C(13)             -0.00721      -8.11074      -2.89411      -2.70545
    27  H(1)               0.00088       3.95230       1.41028       1.31834
    28  C(13)             -0.00819      -9.20725      -3.28538      -3.07121
    29  H(1)               0.00097       4.32601       1.54363       1.44300
    30  C(13)             -0.00019      -0.20884      -0.07452      -0.06966
    31  H(1)               0.00013       0.59890       0.21370       0.19977
    32  H(1)              -0.00006      -0.24733      -0.08825      -0.08250
    33  H(1)               0.00014       0.61804       0.22053       0.20616
    34  C(13)             -0.00019      -0.20910      -0.07461      -0.06975
    35  H(1)               0.00011       0.51387       0.18336       0.17141
    36  H(1)               0.00012       0.53246       0.19000       0.17761
    37  H(1)              -0.00006      -0.28139      -0.10041      -0.09386
    38  C(13)             -0.00042      -0.47413      -0.16918      -0.15815
    39  H(1)               0.00025       1.10000       0.39251       0.36692
    40  H(1)               0.00046       2.04470       0.72960       0.68204
    41  H(1)              -0.00000      -0.01691      -0.00604      -0.00564
    42  C(13)             -0.00111      -1.24447      -0.44406      -0.41511
    43  H(1)               0.00020       0.88717       0.31656       0.29593
    44  C(13)              0.00134       1.50882       0.53839       0.50329
    45  H(1)              -0.00012      -0.55184      -0.19691      -0.18407
    46  H(1)              -0.00012      -0.51710      -0.18451      -0.17249
    47  C(13)             -0.00013      -0.15113      -0.05393      -0.05041
    48  H(1)               0.00004       0.15875       0.05665       0.05295
    49  H(1)               0.00009       0.41870       0.14940       0.13966
    50  H(1)              -0.00005      -0.20615      -0.07356      -0.06876
    51  C(13)             -0.00009      -0.09638      -0.03439      -0.03215
    52  H(1)               0.00002       0.08607       0.03071       0.02871
    53  C(13)              0.00010       0.10941       0.03904       0.03650
    54  H(1)              -0.00001      -0.04060      -0.01449      -0.01354
    55  H(1)              -0.00002      -0.07147      -0.02550      -0.02384
    56  C(13)             -0.00055      -0.62325      -0.22239      -0.20789
    57  H(1)               0.00046       2.06111       0.73546       0.68751
    58  H(1)               0.00044       1.94809       0.69513       0.64981
    59  H(1)              -0.00002      -0.11105      -0.03963      -0.03704
    60  C(13)             -0.00070      -0.78359      -0.27961      -0.26138
    61  H(1)               0.00049       2.20283       0.78602       0.73478
    62  H(1)              -0.00007      -0.30344      -0.10827      -0.10122
    63  H(1)               0.00042       1.87117       0.66768       0.62415
    64  C(13)             -0.00006      -0.06999      -0.02497      -0.02335
    65  H(1)              -0.00008      -0.34794      -0.12415      -0.11606
    66  H(1)               0.00003       0.12941       0.04618       0.04317
    67  H(1)              -0.00003      -0.12480      -0.04453      -0.04163
    68  N(14)             -0.00102      -0.32868      -0.11728      -0.10964
    69  H(1)              -0.00008      -0.35897      -0.12809      -0.11974
    70  C(13)             -0.00131      -1.47632      -0.52679      -0.49245
    71  C(13)             -0.00011      -0.12511      -0.04464      -0.04173
    72  H(1)              -0.00022      -0.99992      -0.35680      -0.33354
    73  N(14)             -0.05042     -16.29051      -5.81286      -5.43393
    74  C(13)             -0.00039      -0.44367      -0.15831      -0.14799
    75  H(1)              -0.00006      -0.27490      -0.09809      -0.09170
 --------------------------------------------------------
       Center         ----  Spin Dipole Couplings  ----
                      3XX-RR        3YY-RR        3ZZ-RR
 --------------------------------------------------------
     1   Atom       -1.379082     -0.416320      1.795402
     2   Atom        0.043038      0.036246     -0.079284
     3   Atom        0.047672      0.029953     -0.077625
     4   Atom        0.059491      0.053839     -0.113330
     5   Atom        0.046680      0.034662     -0.081341
     6   Atom       -0.012945     -0.004312      0.017257
     7   Atom       -0.003768      0.000479      0.003289
     8   Atom       -0.000925     -0.003472      0.004397
     9   Atom       -0.006225     -0.008381      0.014606
    10   Atom       -0.001641     -0.014463      0.016104
    11   Atom       -0.005342     -0.009221      0.014563
    12   Atom       -0.010583     -0.007279      0.017862
    13   Atom       -0.009301     -0.006370      0.015671
    14   Atom       -0.011108     -0.002096      0.013205
    15   Atom       -0.003233      0.000561      0.002672
    16   Atom        0.000047     -0.001873      0.001826
    17   Atom       -0.006833     -0.009218      0.016051
    18   Atom       -0.000744     -0.016166      0.016910
    19   Atom       -0.007437     -0.011463      0.018899
    20   Atom       -0.011164     -0.007232      0.018397
    21   Atom       -0.010596     -0.010175      0.020772
    22   Atom        0.026252      0.037341     -0.063593
    23   Atom        0.002192     -0.000517     -0.001674
    24   Atom        0.034503      0.023854     -0.058357
    25   Atom       -0.000394      0.002005     -0.001611
    26   Atom        0.021140      0.032598     -0.053739
    27   Atom        0.001578      0.000035     -0.001613
    28   Atom        0.034977      0.023870     -0.058847
    29   Atom       -0.000358      0.002024     -0.001667
    30   Atom        0.000763     -0.000269     -0.000494
    31   Atom        0.000984     -0.000385     -0.000600
    32   Atom        0.000392      0.000110     -0.000501
    33   Atom        0.000942     -0.000392     -0.000550
    34   Atom       -0.000594      0.001020     -0.000426
    35   Atom       -0.000662      0.001278     -0.000616
    36   Atom       -0.000628      0.001151     -0.000523
    37   Atom       -0.000294      0.000787     -0.000493
    38   Atom        0.001555     -0.000914     -0.000641
    39   Atom        0.001500     -0.000752     -0.000748
    40   Atom        0.001305     -0.000726     -0.000578
    41   Atom        0.001119     -0.000411     -0.000708
    42   Atom       -0.000038      0.002780     -0.002742
    43   Atom       -0.000592      0.001348     -0.000756
    44   Atom        0.001150     -0.003246      0.002096
    45   Atom        0.000437      0.000083     -0.000520
    46   Atom       -0.000368      0.000929     -0.000561
    47   Atom       -0.000499      0.001109     -0.000611
    48   Atom       -0.000670      0.001275     -0.000605
    49   Atom       -0.000538      0.001085     -0.000547
    50   Atom       -0.000275      0.000777     -0.000503
    51   Atom        0.000879     -0.000113     -0.000767
    52   Atom        0.001034     -0.000420     -0.000614
    53   Atom       -0.000027      0.000305     -0.000278
    54   Atom        0.000114      0.000301     -0.000415
    55   Atom        0.000342     -0.000027     -0.000316
    56   Atom        0.001700     -0.001078     -0.000622
    57   Atom        0.001570     -0.000843     -0.000727
    58   Atom        0.001446     -0.000789     -0.000657
    59   Atom        0.001204     -0.000499     -0.000705
    60   Atom       -0.000632      0.000951     -0.000319
    61   Atom       -0.000617      0.001354     -0.000737
    62   Atom       -0.000034      0.000701     -0.000667
    63   Atom       -0.000604      0.001208     -0.000604
    64   Atom       -0.000437     -0.000529      0.000966
    65   Atom       -0.000510     -0.000637      0.001147
    66   Atom       -0.000527     -0.000647      0.001175
    67   Atom       -0.000420     -0.000742      0.001161
    68   Atom       -0.003799      0.005658     -0.001858
    69   Atom       -0.001045     -0.001084      0.002129
    70   Atom       -0.000618     -0.001634      0.002253
    71   Atom       -0.009856      0.006545      0.003311
    72   Atom        0.001681     -0.004071      0.002390
    73   Atom        0.021931      0.011278     -0.033209
    74   Atom       -0.005376     -0.002715      0.008091
    75   Atom        0.000711     -0.004820      0.004109
 --------------------------------------------------------
                        XY            XZ            YZ
 --------------------------------------------------------
     1   Atom       -2.307484      0.260363      0.666697
     2   Atom       -0.007492     -0.013641     -0.019581
     3   Atom       -0.002458     -0.046284      0.056728
     4   Atom        0.000728      0.004114      0.029877
     5   Atom       -0.007445      0.046859     -0.032334
     6   Atom        0.007840      0.001192     -0.000476
     7   Atom        0.000888     -0.000122     -0.000342
     8   Atom        0.001927     -0.000138     -0.000914
     9   Atom        0.008426      0.000956     -0.000328
    10   Atom       -0.006207     -0.000832     -0.002396
    11   Atom       -0.001393      0.001767     -0.002278
    12   Atom       -0.001852      0.002644     -0.003087
    13   Atom       -0.008216     -0.000325     -0.005599
    14   Atom        0.007623      0.000523      0.000878
    15   Atom        0.001086     -0.000538     -0.000918
    16   Atom        0.001919     -0.000199     -0.000721
    17   Atom        0.008405      0.003975     -0.001560
    18   Atom       -0.005910     -0.001853     -0.001615
    19   Atom       -0.001354     -0.000428     -0.000297
    20   Atom       -0.001655      0.000571     -0.001967
    21   Atom       -0.008555      0.000794     -0.004223
    22   Atom       -0.000874     -0.000862      0.004733
    23   Atom        0.000562      0.000021     -0.000088
    24   Atom        0.001901     -0.001788      0.004150
    25   Atom       -0.000076      0.000060      0.000219
    26   Atom       -0.001186      0.003290      0.004426
    27   Atom        0.000348      0.000079      0.000307
    28   Atom        0.002232     -0.004128      0.007506
    29   Atom       -0.000173      0.000008      0.000296
    30   Atom        0.000923      0.000095      0.000054
    31   Atom        0.000741     -0.000162     -0.000028
    32   Atom        0.000860      0.000057      0.000047
    33   Atom        0.000694      0.000300      0.000095
    34   Atom        0.000552      0.000073      0.000244
    35   Atom        0.000296      0.000021     -0.000102
    36   Atom        0.000311      0.000034      0.000351
    37   Atom        0.000673      0.000040      0.000082
    38   Atom       -0.000480      0.000209     -0.000069
    39   Atom        0.000025     -0.000233     -0.000081
    40   Atom       -0.000321      0.000419     -0.000006
    41   Atom       -0.000756     -0.000191      0.000004
    42   Atom       -0.001604      0.002656      0.000176
    43   Atom       -0.000719     -0.000021      0.000168
    44   Atom       -0.000303     -0.005781     -0.000521
    45   Atom       -0.000402      0.000353     -0.000034
    46   Atom       -0.000566     -0.000209     -0.000020
    47   Atom        0.000610      0.000092     -0.000212
    48   Atom        0.000241      0.000033      0.000214
    49   Atom        0.000437     -0.000048     -0.000200
    50   Atom        0.000673      0.000025      0.000085
    51   Atom        0.001000     -0.000222     -0.000235
    52   Atom        0.000658      0.000041      0.000010
    53   Atom        0.000767      0.000086      0.000542
    54   Atom        0.000616     -0.000150     -0.000187
    55   Atom        0.000448     -0.000094     -0.000035
    56   Atom       -0.000372     -0.000483      0.000071
    57   Atom       -0.000107      0.000309      0.000071
    58   Atom       -0.000084     -0.000498     -0.000097
    59   Atom       -0.000823     -0.000163      0.000037
    60   Atom       -0.000760     -0.000206      0.000327
    61   Atom       -0.000659     -0.000040     -0.000198
    62   Atom       -0.001116     -0.000120      0.000183
    63   Atom       -0.000606     -0.000072      0.000554
    64   Atom        0.000005      0.000517      0.000152
    65   Atom       -0.000111      0.000375     -0.000349
    66   Atom        0.000037      0.000330      0.000160
    67   Atom       -0.000028      0.000849      0.000003
    68   Atom       -0.001491     -0.001624      0.000874
    69   Atom        0.000046     -0.001116     -0.000350
    70   Atom       -0.001021      0.001314      0.001929
    71   Atom        0.000465     -0.005085     -0.003342
    72   Atom        0.001247     -0.006611     -0.001646
    73   Atom       -0.002318     -0.004040     -0.008248
    74   Atom        0.002018      0.003289      0.003775
    75   Atom        0.000252      0.007664      0.000553
 --------------------------------------------------------


 ---------------------------------------------------------------------------------
              Anisotropic Spin Dipole Couplings in Principal Axis System
 ---------------------------------------------------------------------------------

       Atom             a.u.   MegaHertz   Gauss  10(-4) cm-1        Axes

              Baa    -3.3309   -57.667   -20.577   -19.236  0.7646  0.6330 -0.1212
     1 Fe(57) Bbb     1.2591    21.798     7.778     7.271 -0.6000  0.6305 -0.4924
              Bcc     2.0718    35.868    12.799    11.964 -0.2353  0.4492  0.8619
 
              Baa    -0.0842    -3.248    -1.159    -1.083  0.1148  0.1663  0.9794
     2 N(14)  Bbb     0.0363     1.401     0.500     0.467  0.5180  0.8312 -0.2019
              Bcc     0.0479     1.846     0.659     0.616  0.8476 -0.5305 -0.0092
 
              Baa    -0.1129    -4.356    -1.554    -1.453  0.2541 -0.3531  0.9004
     3 N(14)  Bbb     0.0365     1.408     0.502     0.470  0.6435  0.7567  0.1152
              Bcc     0.0764     2.948     1.052     0.983  0.7221 -0.5501 -0.4195
 
              Baa    -0.1186    -4.574    -1.632    -1.526 -0.0221 -0.1706  0.9851
     4 N(14)  Bbb     0.0579     2.231     0.796     0.744 -0.6348  0.7636  0.1180
              Bcc     0.0607     2.343     0.836     0.781  0.7723  0.6228  0.1251
 
              Baa    -0.1026    -3.958    -1.412    -1.320 -0.2837  0.2052  0.9367
     5 N(14)  Bbb     0.0314     1.211     0.432     0.404  0.5147  0.8568 -0.0318
              Bcc     0.0712     2.747     0.980     0.916  0.8091 -0.4731  0.3487
 
              Baa    -0.0176    -2.365    -0.844    -0.789  0.8605 -0.5081 -0.0363
     6 C(13)  Bbb     0.0003     0.043     0.015     0.014  0.5080  0.8613 -0.0115
              Bcc     0.0173     2.322     0.829     0.775  0.0372 -0.0085  0.9993
 
              Baa    -0.0039    -0.530    -0.189    -0.177  0.9806 -0.1961  0.0072
     7 C(13)  Bbb     0.0006     0.082     0.029     0.027  0.1934  0.9721  0.1329
              Bcc     0.0033     0.448     0.160     0.149 -0.0331 -0.1289  0.9911
 
              Baa    -0.0046    -0.613    -0.219    -0.205 -0.4634  0.8823  0.0828
     8 C(13)  Bbb     0.0000     0.006     0.002     0.002  0.8833  0.4523  0.1231
              Bcc     0.0045     0.608     0.217     0.203 -0.0711 -0.1302  0.9889
 
              Baa    -0.0158    -2.123    -0.758    -0.708 -0.6611  0.7498  0.0288
     9 C(13)  Bbb     0.0012     0.157     0.056     0.053  0.7488  0.6617 -0.0371
              Bcc     0.0146     1.966     0.701     0.656  0.0469  0.0029  0.9989
 
              Baa    -0.0172    -2.304    -0.822    -0.768  0.3736  0.9245  0.0759
    10 C(13)  Bbb     0.0009     0.117     0.042     0.039  0.9274 -0.3741 -0.0082
              Bcc     0.0163     2.187     0.780     0.729 -0.0208 -0.0735  0.9971
 
              Baa    -0.0098    -1.313    -0.468    -0.438  0.2730  0.9595  0.0700
    11 C(13)  Bbb    -0.0052    -0.694    -0.248    -0.232  0.9575 -0.2640 -0.1162
              Bcc     0.0150     2.007     0.716     0.669  0.0930 -0.0987  0.9908
 
              Baa    -0.0115    -1.538    -0.549    -0.513  0.9251  0.3772 -0.0437
    12 C(13)  Bbb    -0.0071    -0.946    -0.338    -0.316 -0.3670  0.9176  0.1527
              Bcc     0.0185     2.485     0.887     0.829  0.0977 -0.1252  0.9873
 
              Baa    -0.0167    -2.235    -0.797    -0.745  0.7421  0.6592  0.1216
    13 C(13)  Bbb    -0.0005    -0.063    -0.022    -0.021 -0.6670  0.7080  0.2322
              Bcc     0.0171     2.297     0.820     0.766  0.0670 -0.2535  0.9650
 
              Baa    -0.0155    -2.074    -0.740    -0.692  0.8686 -0.4955 -0.0007
    14 C(13)  Bbb     0.0022     0.290     0.103     0.097  0.4934  0.8649 -0.0921
              Bcc     0.0133     1.785     0.637     0.595  0.0462  0.0796  0.9958
 
              Baa    -0.0035    -0.474    -0.169    -0.158  0.9681 -0.2460  0.0475
    15 C(13)  Bbb     0.0004     0.053     0.019     0.018  0.2061  0.8898  0.4071
              Bcc     0.0031     0.422     0.150     0.141 -0.1424 -0.3843  0.9122
 
              Baa    -0.0031    -0.418    -0.149    -0.139 -0.5116  0.8529  0.1039
    16 C(13)  Bbb     0.0009     0.124     0.044     0.041  0.7720  0.4032  0.4913
              Bcc     0.0022     0.294     0.105     0.098 -0.3771 -0.3316  0.8648
 
              Baa    -0.0170    -2.275    -0.812    -0.759 -0.6610  0.7416  0.1147
    17 C(13)  Bbb     0.0002     0.031     0.011     0.010  0.7322  0.6709 -0.1178
              Bcc     0.0167     2.244     0.801     0.749  0.1643 -0.0061  0.9864
 
              Baa    -0.0183    -2.456    -0.876    -0.819  0.3242  0.9441  0.0604
    18 C(13)  Bbb     0.0012     0.156     0.056     0.052  0.9414 -0.3283  0.0771
              Bcc     0.0171     2.299     0.820     0.767 -0.0926 -0.0318  0.9952
 
              Baa    -0.0119    -1.594    -0.569    -0.532  0.2926  0.9562  0.0133
    19 C(13)  Bbb    -0.0070    -0.943    -0.337    -0.315  0.9561 -0.2927  0.0124
              Bcc     0.0189     2.537     0.905     0.846 -0.0158 -0.0091  0.9998
 
              Baa    -0.0118    -1.579    -0.564    -0.527  0.9388  0.3444  0.0047
    20 C(13)  Bbb    -0.0068    -0.912    -0.325    -0.304 -0.3437  0.9356  0.0808
              Bcc     0.0186     2.491     0.889     0.831  0.0235 -0.0775  0.9967
 
              Baa    -0.0191    -2.561    -0.914    -0.854  0.7056  0.7060  0.0607
    21 C(13)  Bbb    -0.0024    -0.319    -0.114    -0.106  0.7057 -0.6923 -0.1505
              Bcc     0.0215     2.880     1.028     0.961  0.0642 -0.1491  0.9867
 
              Baa    -0.0638    -8.564    -3.056    -2.857  0.0091 -0.0467  0.9989
    22 C(13)  Bbb     0.0262     3.514     1.254     1.172  0.9968  0.0803 -0.0053
              Bcc     0.0376     5.050     1.802     1.685 -0.0800  0.9957  0.0472
 
              Baa    -0.0017    -0.897    -0.320    -0.299 -0.0174  0.0834  0.9964
    23 H(1)   Bbb    -0.0006    -0.332    -0.118    -0.111 -0.1945  0.9772 -0.0852
              Bcc     0.0023     1.229     0.439     0.410  0.9808  0.1952  0.0008
 
              Baa    -0.0586    -7.864    -2.806    -2.623  0.0202 -0.0507  0.9985
    24 C(13)  Bbb     0.0238     3.188     1.138     1.064 -0.1654  0.9848  0.0534
              Bcc     0.0348     4.676     1.668     1.560  0.9860  0.1662 -0.0115
 
              Baa    -0.0016    -0.869    -0.310    -0.290 -0.0525 -0.0611  0.9968
    25 H(1)   Bbb    -0.0004    -0.209    -0.075    -0.070  0.9982  0.0267  0.0542
              Bcc     0.0020     1.078     0.385     0.360 -0.0299  0.9978  0.0596
 
              Baa    -0.0541    -7.262    -2.591    -2.422 -0.0444 -0.0515  0.9977
    26 C(13)  Bbb     0.0212     2.845     1.015     0.949  0.9952  0.0846  0.0487
              Bcc     0.0329     4.417     1.576     1.473 -0.0869  0.9951  0.0475
 
              Baa    -0.0017    -0.890    -0.318    -0.297 -0.0051 -0.1764  0.9843
    27 H(1)   Bbb     0.0000     0.005     0.002     0.002 -0.2216  0.9601  0.1709
              Bcc     0.0017     0.885     0.316     0.295  0.9751  0.2172  0.0439
 
              Baa    -0.0597    -8.014    -2.860    -2.673  0.0455 -0.0906  0.9949
    28 C(13)  Bbb     0.0242     3.252     1.160     1.085 -0.1666  0.9812  0.0969
              Bcc     0.0355     4.762     1.699     1.588  0.9850  0.1702 -0.0296
 
              Baa    -0.0017    -0.902    -0.322    -0.301 -0.0165 -0.0802  0.9966
    29 H(1)   Bbb    -0.0004    -0.197    -0.070    -0.066  0.9973  0.0695  0.0221
              Bcc     0.0021     1.099     0.392     0.367 -0.0710  0.9944  0.0788
 
              Baa    -0.0008    -0.109    -0.039    -0.036 -0.5061  0.8625  0.0037
    30 C(13)  Bbb    -0.0005    -0.067    -0.024    -0.022 -0.0504 -0.0339  0.9982
              Bcc     0.0013     0.176     0.063     0.059  0.8610  0.5050  0.0606
 
              Baa    -0.0007    -0.386    -0.138    -0.129 -0.4014  0.8511 -0.3383
    31 H(1)   Bbb    -0.0006    -0.319    -0.114    -0.107 -0.0640  0.3424  0.9374
              Bcc     0.0013     0.705     0.252     0.235  0.9136  0.3979 -0.0830
 
              Baa    -0.0006    -0.331    -0.118    -0.111 -0.6476  0.7619  0.0084
    32 H(1)   Bbb    -0.0005    -0.269    -0.096    -0.090 -0.0293 -0.0360  0.9989
              Bcc     0.0011     0.601     0.214     0.200  0.7614  0.6466  0.0456
 
              Baa    -0.0007    -0.372    -0.133    -0.124 -0.4180  0.8581  0.2982
    33 H(1)   Bbb    -0.0006    -0.317    -0.113    -0.106 -0.0293 -0.3408  0.9397
              Bcc     0.0013     0.689     0.246     0.230  0.9080  0.3840  0.1676
 
              Baa    -0.0008    -0.103    -0.037    -0.034  0.9551 -0.2963  0.0070
    34 C(13)  Bbb    -0.0005    -0.062    -0.022    -0.021 -0.0516 -0.1432  0.9884
              Bcc     0.0012     0.165     0.059     0.055  0.2919  0.9443  0.1520
 
              Baa    -0.0007    -0.384    -0.137    -0.128  0.9267 -0.1548 -0.3425
    35 H(1)   Bbb    -0.0006    -0.324    -0.116    -0.108  0.3461 -0.0038  0.9382
              Bcc     0.0013     0.708     0.253     0.236  0.1466  0.9879 -0.0501
 
              Baa    -0.0007    -0.367    -0.131    -0.122  0.9472 -0.2072  0.2449
    36 H(1)   Bbb    -0.0006    -0.312    -0.111    -0.104 -0.2768 -0.1423  0.9503
              Bcc     0.0013     0.679     0.242     0.227  0.1620  0.9679  0.1921
 
              Baa    -0.0006    -0.329    -0.117    -0.110  0.9019 -0.4318 -0.0094
    37 H(1)   Bbb    -0.0005    -0.266    -0.095    -0.089 -0.0159 -0.0551  0.9984
              Bcc     0.0011     0.595     0.212     0.198  0.4316  0.9003  0.0565
 
              Baa    -0.0010    -0.135    -0.048    -0.045  0.1768  0.9807  0.0831
    38 C(13)  Bbb    -0.0007    -0.088    -0.032    -0.030 -0.1077 -0.0647  0.9921
              Bcc     0.0017     0.223     0.080     0.075  0.9783 -0.1844  0.0942
 
              Baa    -0.0008    -0.449    -0.160    -0.150  0.0672  0.6632  0.7454
    39 H(1)   Bbb    -0.0007    -0.365    -0.130    -0.122 -0.0788  0.7483 -0.6586
              Bcc     0.0015     0.814     0.290     0.271  0.9946  0.0145 -0.1026
 
              Baa    -0.0008    -0.427    -0.152    -0.142  0.2129  0.9003 -0.3796
    40 H(1)   Bbb    -0.0006    -0.341    -0.122    -0.114 -0.1268  0.4107  0.9029
              Bcc     0.0014     0.768     0.274     0.256  0.9688 -0.1441  0.2016
 
              Baa    -0.0008    -0.422    -0.151    -0.141  0.3206  0.6314  0.7061
    41 H(1)   Bbb    -0.0007    -0.349    -0.124    -0.116 -0.2135 -0.6781  0.7033
              Bcc     0.0014     0.771     0.275     0.257  0.9229 -0.3762 -0.0826
 
              Baa    -0.0045    -0.605    -0.216    -0.202 -0.5421 -0.1393  0.8287
    42 C(13)  Bbb     0.0008     0.111     0.040     0.037  0.6782  0.5097  0.5294
              Bcc     0.0037     0.494     0.176     0.165 -0.4961  0.8490 -0.1819
 
              Baa    -0.0008    -0.450    -0.161    -0.150  0.8622  0.3132 -0.3980
    43 H(1)   Bbb    -0.0008    -0.402    -0.143    -0.134  0.3991  0.0636  0.9147
              Bcc     0.0016     0.852     0.304     0.284 -0.3118  0.9475  0.0702
 
              Baa    -0.0045    -0.597    -0.213    -0.199  0.6589  0.4317  0.6160
    44 C(13)  Bbb    -0.0030    -0.399    -0.142    -0.133 -0.3279  0.9019 -0.2812
              Bcc     0.0074     0.997     0.356     0.332 -0.6770 -0.0167  0.7358
 
              Baa    -0.0007    -0.347    -0.124    -0.116 -0.3558 -0.1526  0.9220
    45 H(1)   Bbb    -0.0001    -0.068    -0.024    -0.023  0.4199  0.8553  0.3036
              Bcc     0.0008     0.414     0.148     0.138  0.8349 -0.4951  0.2402
 
              Baa    -0.0008    -0.413    -0.148    -0.138  0.6830  0.2351  0.6916
    46 H(1)   Bbb    -0.0004    -0.197    -0.070    -0.066 -0.6386 -0.2675  0.7216
              Bcc     0.0011     0.610     0.218     0.203 -0.3546  0.9345  0.0326
 
              Baa    -0.0008    -0.111    -0.039    -0.037  0.7322 -0.2979 -0.6125
    47 C(13)  Bbb    -0.0005    -0.068    -0.024    -0.023  0.6059 -0.1258  0.7855
              Bcc     0.0013     0.178     0.064     0.060  0.3111  0.9463 -0.0884
 
              Baa    -0.0007    -0.374    -0.133    -0.125  0.9889 -0.1098 -0.1002
    48 H(1)   Bbb    -0.0006    -0.335    -0.120    -0.112  0.0866 -0.1221  0.9887
              Bcc     0.0013     0.709     0.253     0.236  0.1208  0.9864  0.1112
 
              Baa    -0.0006    -0.346    -0.123    -0.115  0.9686 -0.2472 -0.0257
    49 H(1)   Bbb    -0.0006    -0.305    -0.109    -0.102  0.0533  0.1057  0.9930
              Bcc     0.0012     0.651     0.232     0.217  0.2427  0.9632 -0.1156
 
              Baa    -0.0006    -0.323    -0.115    -0.108  0.8857 -0.4404  0.1471
    50 H(1)   Bbb    -0.0005    -0.270    -0.096    -0.090 -0.1560  0.0161  0.9876
              Bcc     0.0011     0.593     0.211     0.198  0.4373  0.8977  0.0544
 
              Baa    -0.0009    -0.116    -0.041    -0.039 -0.1898  0.5157  0.8355
    51 C(13)  Bbb    -0.0007    -0.091    -0.033    -0.030 -0.5091  0.6759 -0.5329
              Bcc     0.0015     0.207     0.074     0.069  0.8395  0.5265 -0.1343
 
              Baa    -0.0007    -0.360    -0.128    -0.120 -0.3597  0.9281  0.0965
    52 H(1)   Bbb    -0.0006    -0.328    -0.117    -0.109  0.0144 -0.0979  0.9951
              Bcc     0.0013     0.688     0.245     0.229  0.9330  0.3593  0.0218
 
              Baa    -0.0008    -0.111    -0.039    -0.037 -0.5512  0.6344 -0.5420
    53 C(13)  Bbb    -0.0003    -0.036    -0.013    -0.012 -0.6283  0.1119  0.7699
              Bcc     0.0011     0.147     0.052     0.049  0.5491  0.7649  0.3369
 
              Baa    -0.0005    -0.246    -0.088    -0.082 -0.0114  0.2472  0.9689
    54 H(1)   Bbb    -0.0004    -0.221    -0.079    -0.074  0.7681 -0.6182  0.1667
              Bcc     0.0009     0.467     0.167     0.156  0.6402  0.7462 -0.1828
 
              Baa    -0.0003    -0.186    -0.066    -0.062  0.4551 -0.5563  0.6953
    55 H(1)   Bbb    -0.0003    -0.162    -0.058    -0.054 -0.3278  0.6213  0.7117
              Bcc     0.0007     0.348     0.124     0.116  0.8279  0.5518 -0.1004
 
              Baa    -0.0011    -0.151    -0.054    -0.050  0.1272  0.9917 -0.0182
    56 C(13)  Bbb    -0.0007    -0.096    -0.034    -0.032  0.1949 -0.0070  0.9808
              Bcc     0.0018     0.248     0.088     0.083  0.9725 -0.1283 -0.1942
 
              Baa    -0.0009    -0.481    -0.171    -0.160  0.1027  0.8424 -0.5289
    57 H(1)   Bbb    -0.0007    -0.381    -0.136    -0.127 -0.0882  0.5373  0.8387
              Bcc     0.0016     0.861     0.307     0.287  0.9908 -0.0395  0.1295
 
              Baa    -0.0009    -0.477    -0.170    -0.159  0.1654  0.7404  0.6515
    58 H(1)   Bbb    -0.0007    -0.355    -0.127    -0.119  0.1446 -0.6717  0.7266
              Bcc     0.0016     0.832     0.297     0.278  0.9756 -0.0260 -0.2182
 
              Baa    -0.0008    -0.447    -0.159    -0.149  0.3797  0.8994  0.2163
    59 H(1)   Bbb    -0.0007    -0.380    -0.135    -0.127 -0.0152 -0.2278  0.9736
              Bcc     0.0015     0.826     0.295     0.276  0.9250 -0.3730 -0.0728
 
              Baa    -0.0009    -0.127    -0.045    -0.042  0.9284  0.3506  0.1228
    60 C(13)  Bbb    -0.0004    -0.053    -0.019    -0.018 -0.0325 -0.2528  0.9670
              Bcc     0.0013     0.180     0.064     0.060 -0.3701  0.9018  0.2233
 
              Baa    -0.0009    -0.472    -0.168    -0.157  0.7675  0.2772  0.5780
    61 H(1)   Bbb    -0.0007    -0.364    -0.130    -0.122 -0.5732 -0.1067  0.8124
              Bcc     0.0016     0.836     0.298     0.279 -0.2869  0.9549 -0.0770
 
              Baa    -0.0008    -0.449    -0.160    -0.150  0.8047  0.5900 -0.0666
    62 H(1)   Bbb    -0.0007    -0.367    -0.131    -0.122  0.1122 -0.0409  0.9928
              Bcc     0.0015     0.816     0.291     0.272 -0.5830  0.8064  0.0991
 
              Baa    -0.0009    -0.458    -0.164    -0.153  0.7087  0.3691 -0.6013
    63 H(1)   Bbb    -0.0007    -0.360    -0.129    -0.120  0.6511 -0.0139  0.7589
              Bcc     0.0015     0.819     0.292     0.273 -0.2717  0.9293  0.2501
 
              Baa    -0.0006    -0.084    -0.030    -0.028  0.8411  0.4399 -0.3146
    64 C(13)  Bbb    -0.0005    -0.070    -0.025    -0.023 -0.4440  0.8938  0.0626
              Bcc     0.0011     0.154     0.055     0.051  0.3088  0.0870  0.9471
 
              Baa    -0.0007    -0.382    -0.136    -0.127  0.3008  0.9465  0.1168
    65 H(1)   Bbb    -0.0006    -0.310    -0.111    -0.103  0.9302 -0.2641 -0.2550
              Bcc     0.0013     0.692     0.247     0.231  0.2105 -0.1853  0.9599
 
              Baa    -0.0007    -0.353    -0.126    -0.118 -0.1139  0.9913 -0.0660
    66 H(1)   Bbb    -0.0006    -0.314    -0.112    -0.105  0.9764  0.0994 -0.1919
              Bcc     0.0013     0.667     0.238     0.223  0.1836  0.0863  0.9792
 
              Baa    -0.0008    -0.428    -0.153    -0.143  0.8382  0.4067 -0.3634
    67 H(1)   Bbb    -0.0007    -0.389    -0.139    -0.130 -0.3716  0.9135  0.1654
              Bcc     0.0015     0.817     0.292     0.273  0.3992 -0.0036  0.9168
 
              Baa    -0.0048    -0.185    -0.066    -0.062  0.8826  0.0873  0.4619
    68 N(14)  Bbb    -0.0013    -0.048    -0.017    -0.016 -0.4378 -0.2053  0.8753
              Bcc     0.0060     0.233     0.083     0.078 -0.1712  0.9748  0.1430
 
              Baa    -0.0014    -0.753    -0.269    -0.251  0.9278  0.2037  0.3127
    69 H(1)   Bbb    -0.0011    -0.589    -0.210    -0.197 -0.2234  0.9743  0.0283
              Bcc     0.0025     1.342     0.479     0.448 -0.2989 -0.0961  0.9494
 
              Baa    -0.0033    -0.437    -0.156    -0.146  0.4950  0.7764 -0.3900
    70 C(13)  Bbb     0.0000     0.002     0.001     0.001  0.8380 -0.5453 -0.0219
              Bcc     0.0032     0.435     0.155     0.145  0.2297  0.3160  0.9205
 
              Baa    -0.0116    -1.559    -0.556    -0.520  0.9434  0.0365  0.3296
    71 C(13)  Bbb     0.0024     0.323     0.115     0.108 -0.2795  0.6224  0.7311
              Bcc     0.0092     1.235     0.441     0.412  0.1785  0.7819 -0.5974
 
              Baa    -0.0047    -2.526    -0.901    -0.842  0.5483  0.5445  0.6347
    72 H(1)   Bbb    -0.0042    -2.265    -0.808    -0.756 -0.4900  0.8242 -0.2838
              Bcc     0.0090     4.791     1.709     1.598 -0.6777 -0.1554  0.7187
 
              Baa    -0.0350    -1.351    -0.482    -0.451  0.0768  0.1786  0.9809
    73 N(14)  Bbb     0.0125     0.482     0.172     0.161  0.1575  0.9693 -0.1888
              Bcc     0.0225     0.869     0.310     0.290  0.9845 -0.1690 -0.0464
 
              Baa    -0.0066    -0.884    -0.315    -0.295  0.9215 -0.3722 -0.1108
    74 C(13)  Bbb    -0.0036    -0.483    -0.172    -0.161  0.3094  0.8760 -0.3700
              Bcc     0.0102     1.366     0.488     0.456  0.2347  0.3067  0.9224
 
              Baa    -0.0055    -2.921    -1.042    -0.974  0.7534  0.2307 -0.6158
    75 H(1)   Bbb    -0.0048    -2.565    -0.915    -0.856 -0.2038  0.9722  0.1149
              Bcc     0.0103     5.486     1.958     1.830  0.6252  0.0390  0.7795
 

 ---------------------------------------------------------------------------------

 Unable to Open any file for archive entry.
 1\1\GINC-BGN1012\SP\UAPFD\Gen\C34H34Fe1N6(1+,2)\BEBJONES\10-Jul-2024\0
 \\# apfd/gen scf=maxcycle=999 geom=check\\1dws_III_D\\1,2\Fe,0,14.1388
 063759,28.6522893392,5.1499938044\N,0,14.47257404,29.9437800401,6.6466
 590177\N,0,13.5006224067,27.3095068475,6.502388763\N,0,14.0976757541,2
 7.2336083247,3.7356144498\N,0,15.1046425499,29.8628022,3.8977934892\C,
 0,14.9475478612,31.2149956319,6.5262228927\C,0,14.8462428108,31.926716
 3764,7.7800190366\C,0,14.3014394857,31.0554024019,8.6704605357\C,0,14.
 0787347319,29.8244073591,7.9467635531\C,0,13.2535838682,27.5218282751,
 7.8275416812\C,0,12.672005475,26.3571457105,8.4416041132\C,0,12.580031
 4207,25.4101119668,7.4571915061\C,0,13.086736521,26.0358397433,6.25199
 84984\C,0,13.6370446607,25.956472603,3.8638988122\C,0,13.8107657979,25
 .2177228402,2.640137805\C,0,14.4021934081,26.0773210537,1.7532446884\C
 ,0,14.5669552722,27.3308553806,2.4619384796\C,0,15.4191290816,29.62449
 98119,2.5933285633\C,0,16.0514785877,30.7782551919,1.9942305906\C,0,16
 .1403099646,31.7152228067,2.9752302595\C,0,15.5361903894,31.130355003,
 4.1514431823\C,0,15.4537292851,31.7747046429,5.3693016911\H,0,15.81987
 16019,32.7883563379,5.423887715\C,0,13.5188310159,28.696245318,8.50946
 30593\H,0,13.2716631498,28.7324623739,9.5594501524\C,0,13.1418378831,2
 5.4004393859,5.0286295126\H,0,12.815550359,24.3727012021,4.9869086201\
 C,0,15.1764681105,28.445340577,1.9169811498\H,0,15.5073822288,28.38418
 78435,0.8915624567\C,0,13.9824439674,31.2526132289,10.1128780128\H,0,1
 2.919417778,31.0952641613,10.2984447599\H,0,14.2396990191,32.259789459
 2,10.4310906441\H,0,14.5407489966,30.5462778972,10.7274482115\C,0,15.2
 819126825,33.3369686774,7.9838911747\H,0,14.7485719686,34.0051646424,7
 .3074992388\H,0,16.3494157963,33.4386866433,7.7876575688\H,0,15.090265
 3955,33.657572918,9.004924517\C,0,12.2253183455,26.2671401264,9.859085
 3397\H,0,11.7615787823,27.1994975567,10.1787174187\H,0,13.0692731652,2
 6.0665617778,10.5207661001\H,0,11.5021727729,25.4619400557,9.971005552
 5\C,0,12.0564080707,24.0632880987,7.5326571089\H,0,11.5424675043,23.70
 90392889,6.6464988027\C,0,12.1659425645,23.2538429091,8.5807378735\H,0
 ,12.7075860792,23.5347548994,9.4670024859\H,0,11.7392841586,22.2645029
 579,8.5755139691\C,0,13.3634978802,23.816066712,2.414534044\H,0,12.412
 3024447,23.6302184667,2.9110800686\H,0,14.0937104356,23.1069235841,2.8
 075225981\H,0,13.2430242335,23.6301895798,1.3491487602\C,0,14.79463124
 45,25.8494591772,0.3796525097\H,0,14.7070127108,26.7044256447,-0.28106
 90438\C,0,15.2495967849,24.7010587488,-0.1104032272\H,0,15.4033420162,
 23.8351869805,0.5094060007\H,0,15.5123733217,24.5967651771,-1.15005115
 58\C,0,16.5156611114,30.8415082324,0.5797748929\H,0,15.6791651514,30.6
 986140515,-0.1049440685\H,0,17.251113882,30.061372803,0.3826002596\H,0
 ,16.9723462571,31.804548431,0.3655419524\C,0,16.7178617503,33.08766573
 88,2.9217951707\H,0,15.954174472,33.8345454056,3.1403438929\H,0,17.129
 1684372,33.2960025494,1.9373404072\H,0,17.5159133376,33.1948206095,3.6
 562929815\C,0,9.5445740984,30.5263143914,2.5910492405\H,0,9.2742262219
 ,31.5717642255,2.7374571381\H,0,8.6360567112,29.9276665338,2.654177798
 2\H,0,9.9687472411,30.4124400122,1.5986663595\N,0,10.2587731738,30.097
 367145,4.9509837172\H,0,9.3892255198,30.3803841735,5.3721766006\C,0,10
 .5338262856,30.0913414221,3.608887623\C,0,11.3590392388,29.65094407,5.
 5981423889\H,0,11.4297769518,29.5498277118,6.6624392668\N,0,12.3175237
 049,29.3618674011,4.7475334913\C,0,11.8155862439,29.6323037331,3.50473
 48266\H,0,12.4081979931,29.4769254017,2.6264786487\\Version=ES64L-G16R
 evC.02\State=2-A\HF=-2906.8303323\S2=0.940331\S2-1=0.\S2A=0.75814\RMSD
 =4.056e-09\Dipole=-2.223492,1.2858775,-0.1238796\Quadrupole=-11.427404
 4,4.4182797,7.0091246,3.357153,-9.0491147,0.7151846\PG=C01 [X(C34H34Fe
 1N6)]\\@
 The archive entry for this job was punched.


 YOU CANNOT THROW TO THE GROUND THE LETTERS OF
 THE GREEK ALPHABET AND PICK UP THE ILIAD.
        - RUFUS CHOATE, 1799-1859
 Job cpu time:       0 days  4 hours 50 minutes 18.0 seconds.
 Elapsed time:       0 days  0 hours  4 minutes 58.5 seconds.
 File lengths (MBytes):  RWF=    408 Int=      0 D2E=      0 Chk=    150 Scr=      1
 Normal termination of Gaussian 16 at Wed Jul 10 11:36:11 2024.
