 Entering Gaussian System, Link 0=g16
 Input=1f6505re.com
 Output=1f6505re.log
 Initial command:
 /sw/chem/gaussian/g16_C02/a100/g16/l1.exe "/local/bebjones_7976362/Gau-2137664.inp" -scrdir="/local/bebjones_7976362/"
 Entering Link 1 = /sw/chem/gaussian/g16_C02/a100/g16/l1.exe PID=   2137665.
  
 Copyright (c) 1988-2021, Gaussian, Inc.  All Rights Reserved.
  
 This is part of the Gaussian(R) 16 program.  It is based on
 the Gaussian(R) 09 system (copyright 2009, Gaussian, Inc.),
 the Gaussian(R) 03 system (copyright 2003, Gaussian, Inc.),
 the Gaussian(R) 98 system (copyright 1998, Gaussian, Inc.),
 the Gaussian(R) 94 system (copyright 1995, Gaussian, Inc.),
 the Gaussian 92(TM) system (copyright 1992, Gaussian, Inc.),
 the Gaussian 90(TM) system (copyright 1990, Gaussian, Inc.),
 the Gaussian 88(TM) system (copyright 1988, Gaussian, Inc.),
 the Gaussian 86(TM) system (copyright 1986, Carnegie Mellon
 University), and the Gaussian 82(TM) system (copyright 1983,
 Carnegie Mellon University). Gaussian is a federally registered
 trademark of Gaussian, Inc.
  
 This software contains proprietary and confidential information,
 including trade secrets, belonging to Gaussian, Inc.
  
 This software is provided under written license and may be
 used, copied, transmitted, or stored only in accord with that
 written license.
  
 The following legend is applicable only to US Government
 contracts under FAR:
  
                    RESTRICTED RIGHTS LEGEND
  
 Use, reproduction and disclosure by the US Government is
 subject to restrictions as set forth in subparagraphs (a)
 and (c) of the Commercial Computer Software - Restricted
 Rights clause in FAR 52.227-19.
  
 Gaussian, Inc.
 340 Quinnipiac St., Bldg. 40, Wallingford CT 06492
  
  
 ---------------------------------------------------------------
 Warning -- This program may not be used in any manner that
 competes with the business of Gaussian, Inc. or will provide
 assistance to any competitor of Gaussian, Inc.  The licensee
 of this program is prohibited from giving any competitor of
 Gaussian, Inc. access to this program.  By using this program,
 the user acknowledges that Gaussian, Inc. is engaged in the
 business of creating and licensing software in the field of
 computational chemistry and represents and warrants to the
 licensee that it is not a competitor of Gaussian, Inc. and that
 it will not use this program in any manner prohibited above.
 ---------------------------------------------------------------
  

 Cite this work as:
 Gaussian 16, Revision C.02,
 M. J. Frisch, G. W. Trucks, H. B. Schlegel, G. E. Scuseria, 
 M. A. Robb, J. R. Cheeseman, G. Scalmani, V. Barone, 
 G. A. Petersson, H. Nakatsuji, X. Li, M. Caricato, A. V. Marenich, 
 J. Bloino, B. G. Janesko, R. Gomperts, B. Mennucci, H. P. Hratchian, 
 J. V. Ortiz, A. F. Izmaylov, J. L. Sonnenberg, D. Williams-Young, 
 F. Ding, F. Lipparini, F. Egidi, J. Goings, B. Peng, A. Petrone, 
 T. Henderson, D. Ranasinghe, V. G. Zakrzewski, J. Gao, N. Rega, 
 G. Zheng, W. Liang, M. Hada, M. Ehara, K. Toyota, R. Fukuda, 
 J. Hasegawa, M. Ishida, T. Nakajima, Y. Honda, O. Kitao, H. Nakai, 
 T. Vreven, K. Throssell, J. A. Montgomery, Jr., J. E. Peralta, 
 F. Ogliaro, M. J. Bearpark, J. J. Heyd, E. N. Brothers, K. N. Kudin, 
 V. N. Staroverov, T. A. Keith, R. Kobayashi, J. Normand, 
 K. Raghavachari, A. P. Rendell, J. C. Burant, S. S. Iyengar, 
 J. Tomasi, M. Cossi, J. M. Millam, M. Klene, C. Adamo, R. Cammi, 
 J. W. Ochterski, R. L. Martin, K. Morokuma, O. Farkas, 
 J. B. Foresman, and D. J. Fox, Gaussian, Inc., Wallingford CT, 2019.
 
 ******************************************
 Gaussian 16:  ES64L-G16RevC.02  7-Dec-2021
                14-Aug-2024 
 ******************************************
 %mem=16GB
 %CPU=0-71
 SetSPE:  set environment variable "OMP_PROC_BIND" = "true"
 SetSPE:  set environment variable "OMP_PLACES" = "{0},{1},{2},{3},{4},{5},{6},{7},{8},{9},{10},{11},{12},{13},{14},{15},{16},{17},{18},{19},{20},{21},{22},{23},{24},{25},{26},{27},{28},{29},{30},{31},{32},{33},{34},{35},{36},{37},{38},{39},{40},{41},{42},{43},{44},{45},{46},{47},{48},{49},{50},{51},{52},{53},{54},{55},{56},{57},{58},{59},{60},{61},{62},{63},{64},{65},{66},{67},{68},{69},{70},{71}"
 Will use up to   72 processors via shared memory.
 %gpucpu=0,1,2,3=0,1,2,3
 Will use    4 GPUs:
 Thread  CPU   GPU
      0    0     0
      1    1     1
      2    2     2
      3    3     3
      4    4    -1
      5    5    -1
      6    6    -1
      7    7    -1
      8    8    -1
      9    9    -1
     10   10    -1
     11   11    -1
     12   12    -1
     13   13    -1
     14   14    -1
     15   15    -1
     16   16    -1
     17   17    -1
     18   18    -1
     19   19    -1
     20   20    -1
     21   21    -1
     22   22    -1
     23   23    -1
     24   24    -1
     25   25    -1
     26   26    -1
     27   27    -1
     28   28    -1
     29   29    -1
     30   30    -1
     31   31    -1
     32   32    -1
     33   33    -1
     34   34    -1
     35   35    -1
     36   36    -1
     37   37    -1
     38   38    -1
     39   39    -1
     40   40    -1
     41   41    -1
     42   42    -1
     43   43    -1
     44   44    -1
     45   45    -1
     46   46    -1
     47   47    -1
     48   48    -1
     49   49    -1
     50   50    -1
     51   51    -1
     52   52    -1
     53   53    -1
     54   54    -1
     55   55    -1
     56   56    -1
     57   57    -1
     58   58    -1
     59   59    -1
     60   60    -1
     61   61    -1
     62   62    -1
     63   63    -1
     64   64    -1
     65   65    -1
     66   66    -1
     67   67    -1
     68   68    -1
     69   69    -1
     70   70    -1
     71   71    -1
 SetGPE:  set environment variable "OMP_PROC_BIND" = "true"
 SetGPE:  set environment variable "OMP_PLACES" = "{0},{1},{2},{3},{4},{5},{6},{7},{8},{9},{10},{11},{12},{13},{14},{15},{16},{17},{18},{19},{20},{21},{22},{23},{24},{25},{26},{27},{28},{29},{30},{31},{32},{33},{34},{35},{36},{37},{38},{39},{40},{41},{42},{43},{44},{45},{46},{47},{48},{49},{50},{51},{52},{53},{54},{55},{56},{57},{58},{59},{60},{61},{62},{63},{64},{65},{66},{67},{68},{69},{70},{71}"
 %oldchk=1f65_II_S.chk
 %chk=1f65_II_Sre.chk
 Properties for Device   0
 Minimum vector length:                              32
 Maximum vector length:                            1024
 Number of SMPs:                                    108
 Maximum number of threads per SMP:                2048
 Number of ASync Engines:                             5
 Memory:                                           9207742464
 Properties for Device   1
 Minimum vector length:                              32
 Maximum vector length:                            1024
 Number of SMPs:                                    108
 Maximum number of threads per SMP:                2048
 Number of ASync Engines:                             5
 Memory:                                           9207742464
 Properties for Device   2
 Minimum vector length:                              32
 Maximum vector length:                            1024
 Number of SMPs:                                    108
 Maximum number of threads per SMP:                2048
 Number of ASync Engines:                             5
 Memory:                                           9207742464
 Properties for Device   3
 Minimum vector length:                              32
 Maximum vector length:                            1024
 Number of SMPs:                                    108
 Maximum number of threads per SMP:                2048
 Number of ASync Engines:                             5
 Memory:                                           9207742464
   8286968217 words of memory will be used on each GPU.
 Copying data from "1f65_II_S.chk" to current chk file "1f65_II_Sre.chk"
 IOpt=  2 FromEx=T IUOpen= 4 IOptOp= 5 NList=   0 IFRang= 0 IUIn= 4 IUOut= 2.
 --------------------------------------
 # apfd/gen scf=maxcycle=999 geom=check
 --------------------------------------
 1/29=2,38=1,172=1/1;
 2/12=2,40=1/2;
 3/5=7,11=2,14=-4,25=1,30=1,74=-44/1,2,3;
 4//1;
 5/5=2,7=999,38=5/2;
 6/7=2,8=2,9=2,10=2,28=1/1;
 99/5=1,9=1/99;
 ---------
 1f65_II_Q
 ---------
 Structure from the checkpoint file:  "1f65_II_Sre.chk"
 Charge =  0 Multiplicity = 5
 Z-Matrix found in chk file.
 Fe,0,34.9388742567,4.0946058642,10.0692608054
 N,0,36.8797114672,3.8472753409,9.4961842624
 N,0,34.6823138434,5.393336322,8.5387651915
 N,0,33.0541239483,4.3771172095,10.6877748851
 N,0,35.2684189709,2.8472773299,11.6393026134
 C,0,37.7886245296,3.0224120155,10.0725279198
 C,0,39.0202717595,3.0261450881,9.3130407987
 C,0,38.8252918718,3.8755149179,8.2677513279
 C,0,37.4769560567,4.3832874997,8.3998879457
 C,0,35.582201168,5.7191035528,7.5775569813
 C,0,34.9789404532,6.59998714,6.605870115
 C,0,33.6898607746,6.8068181343,7.0203414153
 C,0,33.5273786981,6.0268923394,8.2329231951
 C,0,32.1887246606,5.291496106,10.1653337946
 C,0,31.040905493,5.4414557795,11.0190235997
 C,0,31.2375016045,4.595848894,12.0809996101
 C,0,32.5124387257,3.9526286887,11.8533582329
 C,0,34.3919935081,2.5833965297,12.6440860146
 C,0,35.0381474192,1.7990339561,13.6772162131
 C,0,36.3225227462,1.6146216211,13.2717012227
 C,0,36.445917384,2.2785763849,11.9904940723
 C,0,37.6106450042,2.3124423001,11.2459608888
 H,0,38.4574599754,1.7603689617,11.6235408275
 C,0,36.8895937938,5.2659978799,7.5118502498
 H,0,37.500591583,5.6207861798,6.6954973999
 C,0,32.3645601323,5.9834699551,8.9801406238
 H,0,31.5512361697,6.6131957328,8.6523076371
 C,0,33.0861042805,3.0291045879,12.7157881928
 H,0,32.5069871444,2.732654091,13.5774517329
 C,0,39.7580632857,4.2413837244,7.163167997
 H,0,40.71402468,3.7385428593,7.2816739526
 H,0,39.9322252066,5.3176271557,7.1561800315
 H,0,39.3394162331,3.9587989612,6.1955470707
 C,0,40.2237719977,2.215880072,9.6573564432
 H,0,39.9637347546,1.1622555426,9.7623283862
 H,0,40.6521519859,2.5554478687,10.6001930789
 H,0,40.9837721548,2.3055203987,8.8846757425
 C,0,35.6509630507,7.1009162824,5.3766812692
 H,0,36.2717453772,6.3231828275,4.9341838626
 H,0,36.2898399085,7.9543829149,5.6056878609
 H,0,34.907758953,7.4125019396,4.6450248818
 C,0,32.6540630197,7.6118873578,6.410403921
 H,0,31.6432653202,7.2353111482,6.5136161879
 C,0,32.8569530904,8.7567090332,5.766508319
 H,0,33.8337965555,9.2002831965,5.6866221257
 H,0,32.0414766611,9.3087126595,5.3305045101
 C,0,29.9444433093,6.4230166603,10.8057247741
 H,0,29.2404250985,6.0746993607,10.0584597403
 H,0,30.3489214292,7.3697586442,10.4746145997
 H,0,29.4054387065,6.5894756439,11.7297063521
 C,0,30.4112760902,4.3936482574,13.251836888
 H,0,30.9442291963,4.2514270375,14.1772321407
 C,0,29.0788132422,4.3737850219,13.2598147462
 H,0,28.5099228212,4.4638124775,12.3535548194
 H,0,28.5188575197,4.2406590568,14.1700729462
 C,0,34.3767835645,1.382994646,14.9460131221
 H,0,33.4871519878,0.7873226579,14.7425585546
 H,0,34.0738993278,2.2618540141,15.5160038672
 H,0,35.0529512709,0.7946026288,15.5611617669
 C,0,37.4412023902,0.9226294317,13.9709559688
 H,0,37.8209662889,0.0948483792,13.3719812446
 H,0,37.1116449248,0.5303595136,14.9296058108
 H,0,38.261344983,1.6178458917,14.1486586998
 C,0,31.9935998965,-0.1149129344,7.2165911454
 H,0,32.0273466077,-0.1352338727,6.1270503052
 H,0,31.0232245372,0.2595196729,7.5273382282
 H,0,32.105861547,-1.136901416,7.5788833751
 N,0,34.3959755403,0.5094400043,7.54211397
 H,0,34.7697990468,-0.2584237387,7.007862101
 C,0,33.0649196783,0.7562389064,7.7615934618
 C,0,35.0998936491,1.4741307849,8.1713844957
 H,0,36.1692076553,1.531387269,8.1717097085
 N,0,34.3027520544,2.3169967289,8.7740956908
 C,0,33.0331241428,1.8862383632,8.529566804
 H,0,32.1881611357,2.414143235,8.9207290366
 O,0,35.457189664,5.3126073958,11.0996443605
 O,0,34.853353037,6.4408359331,11.1031878658
 Recover connectivity data from disk.
 Stoichiometry    C34H34FeN6O2(5)
 Framework group  C1[X(C34H34FeN6O2)]
 Deg. of freedom   225
 Full point group                 C1      NOp   1
 Largest Abelian subgroup         C1      NOp   1
 Largest concise Abelian subgroup C1      NOp   1
                         Standard orientation:                         
 ---------------------------------------------------------------------
 Center     Atomic      Atomic             Coordinates (Angstroms)
 Number     Number       Type             X           Y           Z
 ---------------------------------------------------------------------
      1         26           0       -0.149616   -0.119323   -0.321309
      2          7           0       -2.177359   -0.220503   -0.506942
      3          7           0       -0.271010    1.898795   -0.407341
      4          7           0        1.849267   -0.041859   -0.206757
      5          7           0       -0.072106   -2.149952   -0.321592
      6          6           0       -2.929137   -1.349000   -0.502549
      7          6           0       -4.336299   -1.013075   -0.531494
      8          6           0       -4.407198    0.345794   -0.554425
      9          6           0       -3.042610    0.826434   -0.540695
     10          6           0       -1.397193    2.653068   -0.458605
     11          6           0       -1.062189    4.056127   -0.401573
     12          6           0        0.303981    4.124051   -0.329078
     13          6           0        0.775019    2.751779   -0.323388
     14          6           0        2.595581    1.092693   -0.324046
     15          6           0        3.985631    0.764109   -0.493030
     16          6           0        4.061825   -0.605408   -0.482500
     17          6           0        2.707266   -1.083136   -0.315273
     18          6           0        1.058690   -2.903522   -0.349432
     19          6           0        0.722708   -4.301780   -0.528559
     20          6           0       -0.632233   -4.361664   -0.621406
     21          6           0       -1.111565   -3.001561   -0.487562
     22          6           0       -2.447103   -2.645093   -0.524110
     23          1           0       -3.171519   -3.441214   -0.600677
     24          6           0       -2.690947    2.164002   -0.535497
     25          1           0       -3.494553    2.883297   -0.585073
     26          6           0        2.108261    2.386968   -0.281616
     27          1           0        2.832936    3.186912   -0.303089
     28          6           0        2.352092   -2.423894   -0.270606
     29          1           0        3.152676   -3.147666   -0.301302
     30          6           0       -5.609992    1.227288   -0.571175
     31          1           0       -6.522093    0.636834   -0.585039
     32          1           0       -5.598389    1.866083   -1.454627
     33          1           0       -5.630056    1.868905    0.311624
     34          6           0       -5.441050   -2.014488   -0.517540
     35          1           0       -5.334209   -2.696686    0.326234
     36          1           0       -5.429863   -2.603854   -1.434207
     37          1           0       -6.407628   -1.522248   -0.439451
     38          6           0       -2.050640    5.167415   -0.363467
     39          1           0       -2.907674    4.898273    0.252243
     40          1           0       -2.413011    5.397227   -1.365908
     41          1           0       -1.590676    6.062623    0.051015
     42          6           0        1.156264    5.290781   -0.255644
     43          1           0        2.058664    5.178066    0.333546
     44          6           0        0.917260    6.449879   -0.860418
     45          1           0        0.065357    6.593157   -1.501586
     46          1           0        1.591395    7.284120   -0.763503
     47          6           0        5.068474    1.751268   -0.746320
     48          1           0        5.380390    2.241113    0.169175
     49          1           0        4.728646    2.510303   -1.437653
     50          1           0        5.930034    1.259533   -1.179781
     51          6           0        5.217998   -1.456637   -0.664344
     52          1           0        5.049347   -2.352343   -1.238703
     53          6           0        6.437085   -1.212299   -0.184719
     54          1           0        6.637277   -0.356418    0.432079
     55          1           0        7.264433   -1.875386   -0.373543
     56          6           0        1.729733   -5.392557   -0.656793
     57          1           0        2.372587   -5.432355    0.222308
     58          1           0        2.359282   -5.220110   -1.530264
     59          1           0        1.243417   -6.357882   -0.772814
     60          6           0       -1.509117   -5.542360   -0.858648
     61          1           0       -2.211494   -5.676271   -0.035879
     62          1           0       -0.916516   -6.448408   -0.955574
     63          1           0       -2.081846   -5.407546   -1.775897
     64          6           0        0.812519    0.014472    5.474277
     65          1           0        0.375706    0.822169    6.062044
     66          1           0        1.875738    0.202285    5.361655
     67          1           0        0.678865   -0.916807    6.024891
     68          7           0       -1.164917   -0.318847    3.975665
     69          1           0       -1.828275   -0.463532    4.719846
     70          6           0        0.174050   -0.069847    4.136776
     71          6           0       -1.420947   -0.336643    2.650432
     72          1           0       -2.390127   -0.512195    2.230215
     73          7           0       -0.332813   -0.113914    1.960885
     74          6           0        0.669193    0.054719    2.869097
     75          1           0        1.672115    0.252002    2.551480
     76          8           0       -0.046714   -0.247784   -1.990673
     77          8           0        0.689115    0.568672   -2.646025
 ---------------------------------------------------------------------
 Rotational constants (GHZ):           0.0884036           0.0876260           0.0590992
 General basis read from cards:  (5D, 7F)
 There are   734 symmetry adapted cartesian basis functions of A   symmetry.
 There are   689 symmetry adapted basis functions of A   symmetry.
   689 basis functions,  1398 primitive gaussians,   734 cartesian basis functions
   163 alpha electrons      159 beta electrons
       nuclear repulsion energy      6176.1935293061 Hartrees.
 NAtoms=   77 NActive=   77 NUniq=   77 SFac= 1.00D+00 NAtFMM=   60 NAOKFM=T Big=T
 Integral buffers will be    131072 words long.
 Raffenetti 2 integral format.
 Two-electron integral symmetry is turned on.
 R6APFD:  NTU= -4 IXU= 1 FactS= 1.050
 Nuclear repulsion after empirical dispersion term =     6176.0411148969 Hartrees.
 One-electron integrals computed using PRISM.
 NBasis=   689 RedAO= T EigKep=  2.62D-04  NBF=   689
 NBsUse=   689 1.00D-06 EigRej= -1.00D+00 NBFU=   689
 ExpMin= 4.20D-02 ExpMax= 3.01D+05 ExpMxC= 2.91D+03 IAcc=3 IRadAn=         5 AccDes= 0.00D+00
 Harris functional with IExCor= 3731 and IRadAn=       5 diagonalized for initial guess.
 HarFok:  IExCor= 3731 AccDes= 0.00D+00 IRadAn=         5 IDoV= 1 UseB2=F ITyADJ=14
 ICtDFT=  3500011 ScaDFX=  1.000000  1.000000  1.000000  1.000000
 FoFCou: FMM=F IPFlag=           0 FMFlag=      100000 FMFlg1=        2001
         NFxFlg=           0 DoJE=T BraDBF=F KetDBF=T FulRan=T
         wScrn=  0.000000 ICntrl=       500 IOpCl=  0 I1Cent=   200000004 NGrid=           0
         NMat0=    1 NMatS0=      1 NMatT0=    0 NMatD0=    1 NMtDS0=    0 NMtDT0=    0
 Petite list used in FoFCou.
 Initial guess <Sx>= 0.0000 <Sy>= 0.0000 <Sz>= 2.0000 <S**2>= 6.0000 S= 2.0000
 Requested convergence on RMS density matrix=1.00D-08 within 999 cycles.
 Requested convergence on MAX density matrix=1.00D-06.
 Requested convergence on             energy=1.00D-06.
 No special actions if energy rises.
 EnCoef did   100 forward-backward iterations
 EnCoef did   100 forward-backward iterations
 EnCoef did   100 forward-backward iterations
 EnCoef did   100 forward-backward iterations
 EnCoef did     1 forward-backward iterations
 EnCoef did     4 forward-backward iterations
 EnCoef did    10 forward-backward iterations
 Restarting incremental Fock formation.
 Restarting incremental Fock formation.
 Restarting incremental Fock formation.
 SCF Done:  E(UAPFD) =  -3057.16168357     A.U. after   68 cycles
            NFock= 68  Conv=0.55D-08     -V/T= 2.0037
 <Sx>= 0.0000 <Sy>= 0.0000 <Sz>= 2.0000 <S**2>= 6.0691 S= 2.0138
 <L.S>=  0.00000000000    
 Annihilation of the first spin contaminant:
 S**2 before annihilation     6.0691,   after     6.0018

 **********************************************************************

            Population analysis using the SCF Density.

 **********************************************************************

 Orbital symmetries:
 Alpha Orbitals:
       Occupied  (A) (A) (A) (A) (A) (A) (A) (A) (A) (A) (A) (A)
                 (A) (A) (A) (A) (A) (A) (A) (A) (A) (A) (A) (A)
                 (A) (A) (A) (A) (A) (A) (A) (A) (A) (A) (A) (A)
                 (A) (A) (A) (A) (A) (A) (A) (A) (A) (A) (A) (A)
                 (A) (A) (A) (A) (A) (A) (A) (A) (A) (A) (A) (A)
                 (A) (A) (A) (A) (A) (A) (A) (A) (A) (A) (A) (A)
                 (A) (A) (A) (A) (A) (A) (A) (A) (A) (A) (A) (A)
                 (A) (A) (A) (A) (A) (A) (A) (A) (A) (A) (A) (A)
                 (A) (A) (A) (A) (A) (A) (A) (A) (A) (A) (A) (A)
                 (A) (A) (A) (A) (A) (A) (A) (A) (A) (A) (A) (A)
                 (A) (A) (A) (A) (A) (A) (A) (A) (A) (A) (A) (A)
                 (A) (A) (A) (A) (A) (A) (A) (A) (A) (A) (A) (A)
                 (A) (A) (A) (A) (A) (A) (A) (A) (A) (A) (A) (A)
                 (A) (A) (A) (A) (A) (A) (A)
       Virtual   (A) (A) (A) (A) (A) (A) (A) (A) (A) (A) (A) (A)
                 (A) (A) (A) (A) (A) (A) (A) (A) (A) (A) (A) (A)
                 (A) (A) (A) (A) (A) (A) (A) (A) (A) (A) (A) (A)
                 (A) (A) (A) (A) (A) (A) (A) (A) (A) (A) (A) (A)
                 (A) (A) (A) (A) (A) (A) (A) (A) (A) (A) (A) (A)
                 (A) (A) (A) (A) (A) (A) (A) (A) (A) (A) (A) (A)
                 (A) (A) (A) (A) (A) (A) (A) (A) (A) (A) (A) (A)
                 (A) (A) (A) (A) (A) (A) (A) (A) (A) (A) (A) (A)
                 (A) (A) (A) (A) (A) (A) (A) (A) (A) (A) (A) (A)
                 (A) (A) (A) (A) (A) (A) (A) (A) (A) (A) (A) (A)
                 (A) (A) (A) (A) (A) (A) (A) (A) (A) (A) (A) (A)
                 (A) (A) (A) (A) (A) (A) (A) (A) (A) (A) (A) (A)
                 (A) (A) (A) (A) (A) (A) (A) (A) (A) (A) (A) (A)
                 (A) (A) (A) (A) (A) (A) (A) (A) (A) (A) (A) (A)
                 (A) (A) (A) (A) (A) (A) (A) (A) (A) (A) (A) (A)
                 (A) (A) (A) (A) (A) (A) (A) (A) (A) (A) (A) (A)
                 (A) (A) (A) (A) (A) (A) (A) (A) (A) (A) (A) (A)
                 (A) (A) (A) (A) (A) (A) (A) (A) (A) (A) (A) (A)
                 (A) (A) (A) (A) (A) (A) (A) (A) (A) (A) (A) (A)
                 (A) (A) (A) (A) (A) (A) (A) (A) (A) (A) (A) (A)
                 (A) (A) (A) (A) (A) (A) (A) (A) (A) (A) (A) (A)
                 (A) (A) (A) (A) (A) (A) (A) (A) (A) (A) (A) (A)
                 (A) (A) (A) (A) (A) (A) (A) (A) (A) (A) (A) (A)
                 (A) (A) (A) (A) (A) (A) (A) (A) (A) (A) (A) (A)
                 (A) (A) (A) (A) (A) (A) (A) (A) (A) (A) (A) (A)
                 (A) (A) (A) (A) (A) (A) (A) (A) (A) (A) (A) (A)
                 (A) (A) (A) (A) (A) (A) (A) (A) (A) (A) (A) (A)
                 (A) (A) (A) (A) (A) (A) (A) (A) (A) (A) (A) (A)
                 (A) (A) (A) (A) (A) (A) (A) (A) (A) (A) (A) (A)
                 (A) (A) (A) (A) (A) (A) (A) (A) (A) (A) (A) (A)
                 (A) (A) (A) (A) (A) (A) (A) (A) (A) (A) (A) (A)
                 (A) (A) (A) (A) (A) (A) (A) (A) (A) (A) (A) (A)
                 (A) (A) (A) (A) (A) (A) (A) (A) (A) (A) (A) (A)
                 (A) (A) (A) (A) (A) (A) (A) (A) (A) (A) (A) (A)
                 (A) (A) (A) (A) (A) (A) (A) (A) (A) (A) (A) (A)
                 (A) (A) (A) (A) (A) (A) (A) (A) (A) (A) (A) (A)
                 (A) (A) (A) (A) (A) (A) (A) (A) (A) (A) (A) (A)
                 (A) (A) (A) (A) (A) (A) (A) (A) (A) (A) (A) (A)
                 (A) (A) (A) (A) (A) (A) (A) (A) (A) (A) (A) (A)
                 (A) (A) (A) (A) (A) (A) (A) (A) (A) (A) (A) (A)
                 (A) (A) (A) (A) (A) (A) (A) (A) (A) (A) (A) (A)
                 (A) (A) (A) (A) (A) (A) (A) (A) (A) (A) (A) (A)
                 (A) (A) (A) (A) (A) (A) (A) (A) (A) (A) (A) (A)
                 (A) (A) (A) (A) (A) (A) (A) (A) (A) (A)
 Beta  Orbitals:
       Occupied  (A) (A) (A) (A) (A) (A) (A) (A) (A) (A) (A) (A)
                 (A) (A) (A) (A) (A) (A) (A) (A) (A) (A) (A) (A)
                 (A) (A) (A) (A) (A) (A) (A) (A) (A) (A) (A) (A)
                 (A) (A) (A) (A) (A) (A) (A) (A) (A) (A) (A) (A)
                 (A) (A) (A) (A) (A) (A) (A) (A) (A) (A) (A) (A)
                 (A) (A) (A) (A) (A) (A) (A) (A) (A) (A) (A) (A)
                 (A) (A) (A) (A) (A) (A) (A) (A) (A) (A) (A) (A)
                 (A) (A) (A) (A) (A) (A) (A) (A) (A) (A) (A) (A)
                 (A) (A) (A) (A) (A) (A) (A) (A) (A) (A) (A) (A)
                 (A) (A) (A) (A) (A) (A) (A) (A) (A) (A) (A) (A)
                 (A) (A) (A) (A) (A) (A) (A) (A) (A) (A) (A) (A)
                 (A) (A) (A) (A) (A) (A) (A) (A) (A) (A) (A) (A)
                 (A) (A) (A) (A) (A) (A) (A) (A) (A) (A) (A) (A)
                 (A) (A) (A)
       Virtual   (A) (A) (A) (A) (A) (A) (A) (A) (A) (A) (A) (A)
                 (A) (A) (A) (A) (A) (A) (A) (A) (A) (A) (A) (A)
                 (A) (A) (A) (A) (A) (A) (A) (A) (A) (A) (A) (A)
                 (A) (A) (A) (A) (A) (A) (A) (A) (A) (A) (A) (A)
                 (A) (A) (A) (A) (A) (A) (A) (A) (A) (A) (A) (A)
                 (A) (A) (A) (A) (A) (A) (A) (A) (A) (A) (A) (A)
                 (A) (A) (A) (A) (A) (A) (A) (A) (A) (A) (A) (A)
                 (A) (A) (A) (A) (A) (A) (A) (A) (A) (A) (A) (A)
                 (A) (A) (A) (A) (A) (A) (A) (A) (A) (A) (A) (A)
                 (A) (A) (A) (A) (A) (A) (A) (A) (A) (A) (A) (A)
                 (A) (A) (A) (A) (A) (A) (A) (A) (A) (A) (A) (A)
                 (A) (A) (A) (A) (A) (A) (A) (A) (A) (A) (A) (A)
                 (A) (A) (A) (A) (A) (A) (A) (A) (A) (A) (A) (A)
                 (A) (A) (A) (A) (A) (A) (A) (A) (A) (A) (A) (A)
                 (A) (A) (A) (A) (A) (A) (A) (A) (A) (A) (A) (A)
                 (A) (A) (A) (A) (A) (A) (A) (A) (A) (A) (A) (A)
                 (A) (A) (A) (A) (A) (A) (A) (A) (A) (A) (A) (A)
                 (A) (A) (A) (A) (A) (A) (A) (A) (A) (A) (A) (A)
                 (A) (A) (A) (A) (A) (A) (A) (A) (A) (A) (A) (A)
                 (A) (A) (A) (A) (A) (A) (A) (A) (A) (A) (A) (A)
                 (A) (A) (A) (A) (A) (A) (A) (A) (A) (A) (A) (A)
                 (A) (A) (A) (A) (A) (A) (A) (A) (A) (A) (A) (A)
                 (A) (A) (A) (A) (A) (A) (A) (A) (A) (A) (A) (A)
                 (A) (A) (A) (A) (A) (A) (A) (A) (A) (A) (A) (A)
                 (A) (A) (A) (A) (A) (A) (A) (A) (A) (A) (A) (A)
                 (A) (A) (A) (A) (A) (A) (A) (A) (A) (A) (A) (A)
                 (A) (A) (A) (A) (A) (A) (A) (A) (A) (A) (A) (A)
                 (A) (A) (A) (A) (A) (A) (A) (A) (A) (A) (A) (A)
                 (A) (A) (A) (A) (A) (A) (A) (A) (A) (A) (A) (A)
                 (A) (A) (A) (A) (A) (A) (A) (A) (A) (A) (A) (A)
                 (A) (A) (A) (A) (A) (A) (A) (A) (A) (A) (A) (A)
                 (A) (A) (A) (A) (A) (A) (A) (A) (A) (A) (A) (A)
                 (A) (A) (A) (A) (A) (A) (A) (A) (A) (A) (A) (A)
                 (A) (A) (A) (A) (A) (A) (A) (A) (A) (A) (A) (A)
                 (A) (A) (A) (A) (A) (A) (A) (A) (A) (A) (A) (A)
                 (A) (A) (A) (A) (A) (A) (A) (A) (A) (A) (A) (A)
                 (A) (A) (A) (A) (A) (A) (A) (A) (A) (A) (A) (A)
                 (A) (A) (A) (A) (A) (A) (A) (A) (A) (A) (A) (A)
                 (A) (A) (A) (A) (A) (A) (A) (A) (A) (A) (A) (A)
                 (A) (A) (A) (A) (A) (A) (A) (A) (A) (A) (A) (A)
                 (A) (A) (A) (A) (A) (A) (A) (A) (A) (A) (A) (A)
                 (A) (A) (A) (A) (A) (A) (A) (A) (A) (A) (A) (A)
                 (A) (A) (A) (A) (A) (A) (A) (A) (A) (A) (A) (A)
                 (A) (A) (A) (A) (A) (A) (A) (A) (A) (A) (A) (A)
                 (A) (A)
 The electronic state is 5-A.
 Alpha  occ. eigenvalues -- -256.23982 -30.10934 -25.95428 -25.95080 -25.93110
 Alpha  occ. eigenvalues --  -19.23609 -19.18975 -14.43783 -14.37889 -14.36638
 Alpha  occ. eigenvalues --  -14.36591 -14.36353 -14.36321 -10.27090 -10.25189
 Alpha  occ. eigenvalues --  -10.22502 -10.22366 -10.22234 -10.22113 -10.22108
 Alpha  occ. eigenvalues --  -10.21891 -10.21873 -10.21785 -10.21770 -10.21612
 Alpha  occ. eigenvalues --  -10.21604 -10.21584 -10.20295 -10.19870 -10.19804
 Alpha  occ. eigenvalues --  -10.19795 -10.19738 -10.19628 -10.19426 -10.19412
 Alpha  occ. eigenvalues --  -10.19403 -10.19338 -10.19279 -10.19240 -10.19151
 Alpha  occ. eigenvalues --  -10.18964 -10.18928 -10.18739 -10.18674 -10.18464
 Alpha  occ. eigenvalues --  -10.18419 -10.17820  -3.50269  -2.28755  -2.27443
 Alpha  occ. eigenvalues --   -2.23206  -1.15989  -1.06105  -0.98080  -0.97246
 Alpha  occ. eigenvalues --   -0.96958  -0.96107  -0.91421  -0.83242  -0.81772
 Alpha  occ. eigenvalues --   -0.81354  -0.81157  -0.80901  -0.80803  -0.80648
 Alpha  occ. eigenvalues --   -0.80385  -0.77823  -0.76695  -0.75587  -0.75388
 Alpha  occ. eigenvalues --   -0.74538  -0.73563  -0.72420  -0.71087  -0.70047
 Alpha  occ. eigenvalues --   -0.68573  -0.68296  -0.68231  -0.65064  -0.64886
 Alpha  occ. eigenvalues --   -0.64768  -0.61876  -0.60553  -0.59977  -0.58256
 Alpha  occ. eigenvalues --   -0.58062  -0.56504  -0.54842  -0.54163  -0.53356
 Alpha  occ. eigenvalues --   -0.52757  -0.51595  -0.51512  -0.50982  -0.49007
 Alpha  occ. eigenvalues --   -0.48334  -0.48271  -0.47936  -0.47836  -0.47642
 Alpha  occ. eigenvalues --   -0.46769  -0.45546  -0.45332  -0.44810  -0.44686
 Alpha  occ. eigenvalues --   -0.44268  -0.44184  -0.43704  -0.43643  -0.43614
 Alpha  occ. eigenvalues --   -0.43407  -0.43149  -0.42861  -0.42768  -0.42563
 Alpha  occ. eigenvalues --   -0.42336  -0.42067  -0.42012  -0.41660  -0.41546
 Alpha  occ. eigenvalues --   -0.40646  -0.40493  -0.40108  -0.40053  -0.39848
 Alpha  occ. eigenvalues --   -0.39564  -0.39295  -0.39090  -0.39035  -0.38267
 Alpha  occ. eigenvalues --   -0.38029  -0.37714  -0.37196  -0.36667  -0.36375
 Alpha  occ. eigenvalues --   -0.35837  -0.35530  -0.34588  -0.34193  -0.33673
 Alpha  occ. eigenvalues --   -0.33540  -0.32999  -0.32489  -0.32158  -0.31073
 Alpha  occ. eigenvalues --   -0.30440  -0.30232  -0.29280  -0.29153  -0.28866
 Alpha  occ. eigenvalues --   -0.27454  -0.27282  -0.26638  -0.24288  -0.23494
 Alpha  occ. eigenvalues --   -0.22960  -0.22121  -0.21802  -0.21103  -0.20454
 Alpha  occ. eigenvalues --   -0.19555  -0.18197  -0.10992
 Alpha virt. eigenvalues --   -0.07108  -0.02592  -0.02428  -0.01895   0.01782
 Alpha virt. eigenvalues --    0.01900   0.02838   0.05570   0.06067   0.07105
 Alpha virt. eigenvalues --    0.08308   0.09098   0.09512   0.10491   0.10899
 Alpha virt. eigenvalues --    0.11749   0.11804   0.12305   0.12797   0.13024
 Alpha virt. eigenvalues --    0.13745   0.14095   0.14265   0.14483   0.14562
 Alpha virt. eigenvalues --    0.15021   0.15167   0.15749   0.15850   0.16241
 Alpha virt. eigenvalues --    0.16860   0.16938   0.17349   0.17500   0.17554
 Alpha virt. eigenvalues --    0.17656   0.18226   0.18547   0.18612   0.18816
 Alpha virt. eigenvalues --    0.19053   0.19324   0.19783   0.20141   0.20890
 Alpha virt. eigenvalues --    0.21355   0.21438   0.21556   0.21734   0.22483
 Alpha virt. eigenvalues --    0.22593   0.22753   0.23301   0.24195   0.24339
 Alpha virt. eigenvalues --    0.24769   0.25249   0.25933   0.26173   0.26456
 Alpha virt. eigenvalues --    0.26902   0.27274   0.27438   0.27485   0.29165
 Alpha virt. eigenvalues --    0.29713   0.30377   0.30554   0.31797   0.32444
 Alpha virt. eigenvalues --    0.33153   0.33574   0.34462   0.35109   0.35755
 Alpha virt. eigenvalues --    0.36122   0.36232   0.36811   0.37187   0.38819
 Alpha virt. eigenvalues --    0.39457   0.40666   0.41580   0.42138   0.42830
 Alpha virt. eigenvalues --    0.43263   0.43784   0.44727   0.45786   0.47019
 Alpha virt. eigenvalues --    0.47866   0.48094   0.48449   0.48496   0.49006
 Alpha virt. eigenvalues --    0.49197   0.50178   0.50822   0.51262   0.51619
 Alpha virt. eigenvalues --    0.52046   0.52443   0.52892   0.53211   0.53392
 Alpha virt. eigenvalues --    0.53423   0.53732   0.54266   0.54515   0.54923
 Alpha virt. eigenvalues --    0.55200   0.55476   0.56144   0.56960   0.57524
 Alpha virt. eigenvalues --    0.57872   0.58125   0.58496   0.58719   0.59418
 Alpha virt. eigenvalues --    0.60030   0.60478   0.60907   0.61340   0.61698
 Alpha virt. eigenvalues --    0.61771   0.61933   0.62625   0.62875   0.63139
 Alpha virt. eigenvalues --    0.63977   0.64197   0.65198   0.65267   0.65749
 Alpha virt. eigenvalues --    0.65821   0.65961   0.66511   0.66548   0.66920
 Alpha virt. eigenvalues --    0.67147   0.67362   0.67546   0.67795   0.68203
 Alpha virt. eigenvalues --    0.68838   0.68986   0.69652   0.70646   0.71208
 Alpha virt. eigenvalues --    0.71586   0.71635   0.72400   0.72966   0.73403
 Alpha virt. eigenvalues --    0.74031   0.74662   0.75048   0.75298   0.76074
 Alpha virt. eigenvalues --    0.76309   0.76673   0.77435   0.77958   0.77978
 Alpha virt. eigenvalues --    0.78404   0.78651   0.79301   0.79353   0.79555
 Alpha virt. eigenvalues --    0.79626   0.80290   0.80391   0.81176   0.81544
 Alpha virt. eigenvalues --    0.82219   0.82463   0.82989   0.83428   0.84574
 Alpha virt. eigenvalues --    0.85614   0.85918   0.86486   0.86814   0.87256
 Alpha virt. eigenvalues --    0.87337   0.87530   0.87788   0.87973   0.88289
 Alpha virt. eigenvalues --    0.88309   0.88791   0.89843   0.89946   0.90379
 Alpha virt. eigenvalues --    0.90776   0.90813   0.91539   0.91782   0.92032
 Alpha virt. eigenvalues --    0.92115   0.92454   0.93156   0.93656   0.93859
 Alpha virt. eigenvalues --    0.94040   0.94592   0.95272   0.95357   0.96209
 Alpha virt. eigenvalues --    0.96386   0.96845   0.97308   0.98042   0.98477
 Alpha virt. eigenvalues --    0.98840   0.99093   0.99417   0.99900   0.99977
 Alpha virt. eigenvalues --    1.00397   1.00738   1.01214   1.01354   1.01544
 Alpha virt. eigenvalues --    1.02184   1.02957   1.04100   1.04570   1.04691
 Alpha virt. eigenvalues --    1.04914   1.05512   1.06189   1.06434   1.07255
 Alpha virt. eigenvalues --    1.07486   1.08775   1.09039   1.09749   1.10245
 Alpha virt. eigenvalues --    1.10819   1.12490   1.13255   1.14159   1.14721
 Alpha virt. eigenvalues --    1.15942   1.16085   1.16998   1.17468   1.17583
 Alpha virt. eigenvalues --    1.17910   1.19016   1.19409   1.19703   1.20145
 Alpha virt. eigenvalues --    1.20633   1.21081   1.21911   1.22293   1.22485
 Alpha virt. eigenvalues --    1.23033   1.23814   1.24066   1.24690   1.25765
 Alpha virt. eigenvalues --    1.27079   1.27578   1.28182   1.29438   1.30313
 Alpha virt. eigenvalues --    1.30762   1.31737   1.31871   1.32613   1.32812
 Alpha virt. eigenvalues --    1.34089   1.34228   1.34703   1.35636   1.35986
 Alpha virt. eigenvalues --    1.36523   1.36942   1.37482   1.37848   1.38129
 Alpha virt. eigenvalues --    1.38750   1.38919   1.39603   1.39894   1.41261
 Alpha virt. eigenvalues --    1.41605   1.43073   1.43837   1.44251   1.44757
 Alpha virt. eigenvalues --    1.45325   1.46306   1.47273   1.47650   1.48260
 Alpha virt. eigenvalues --    1.49281   1.50446   1.51428   1.52343   1.52759
 Alpha virt. eigenvalues --    1.53287   1.54206   1.54321   1.54537   1.56128
 Alpha virt. eigenvalues --    1.56636   1.57498   1.58441   1.58822   1.60072
 Alpha virt. eigenvalues --    1.60379   1.61473   1.62281   1.63010   1.63822
 Alpha virt. eigenvalues --    1.64208   1.64733   1.65159   1.66950   1.67344
 Alpha virt. eigenvalues --    1.69280   1.70424   1.70448   1.71606   1.72147
 Alpha virt. eigenvalues --    1.72843   1.74661   1.75799   1.76395   1.77992
 Alpha virt. eigenvalues --    1.78984   1.79675   1.79789   1.80955   1.81406
 Alpha virt. eigenvalues --    1.81493   1.81956   1.82839   1.83050   1.83536
 Alpha virt. eigenvalues --    1.83614   1.84566   1.85368   1.85814   1.86312
 Alpha virt. eigenvalues --    1.87140   1.87325   1.87643   1.88350   1.88620
 Alpha virt. eigenvalues --    1.89838   1.90271   1.90689   1.90899   1.91989
 Alpha virt. eigenvalues --    1.92149   1.92440   1.93332   1.94003   1.94723
 Alpha virt. eigenvalues --    1.95055   1.95430   1.96231   1.96680   1.97482
 Alpha virt. eigenvalues --    1.98610   2.00020   2.00129   2.00538   2.00751
 Alpha virt. eigenvalues --    2.02167   2.02525   2.03045   2.04008   2.04575
 Alpha virt. eigenvalues --    2.04947   2.05422   2.06539   2.06833   2.07584
 Alpha virt. eigenvalues --    2.08474   2.08737   2.09685   2.11390   2.11728
 Alpha virt. eigenvalues --    2.11920   2.13271   2.13742   2.14475   2.15022
 Alpha virt. eigenvalues --    2.15497   2.16167   2.17015   2.17319   2.17588
 Alpha virt. eigenvalues --    2.18689   2.19514   2.20850   2.21866   2.22169
 Alpha virt. eigenvalues --    2.22651   2.23359   2.23624   2.24130   2.24572
 Alpha virt. eigenvalues --    2.25823   2.26546   2.26848   2.27034   2.27721
 Alpha virt. eigenvalues --    2.28491   2.28834   2.29525   2.29961   2.30383
 Alpha virt. eigenvalues --    2.30924   2.31173   2.31804   2.32225   2.32942
 Alpha virt. eigenvalues --    2.33986   2.34623   2.34724   2.35407   2.35698
 Alpha virt. eigenvalues --    2.36018   2.36605   2.37628   2.37925   2.38027
 Alpha virt. eigenvalues --    2.39244   2.39532   2.40207   2.41178   2.41544
 Alpha virt. eigenvalues --    2.42458   2.42795   2.42879   2.43785   2.43881
 Alpha virt. eigenvalues --    2.44056   2.45268   2.46265   2.47552   2.48094
 Alpha virt. eigenvalues --    2.48674   2.50592   2.51848   2.52798   2.52909
 Alpha virt. eigenvalues --    2.53020   2.54329   2.54871   2.55067   2.55637
 Alpha virt. eigenvalues --    2.55807   2.56916   2.57172   2.58775   2.59830
 Alpha virt. eigenvalues --    2.59952   2.60834   2.61576   2.61889   2.62526
 Alpha virt. eigenvalues --    2.63718   2.65360   2.66414   2.67382   2.69748
 Alpha virt. eigenvalues --    2.70309   2.70706   2.72328   2.72533   2.74245
 Alpha virt. eigenvalues --    2.74798   2.76568   2.78326   2.79996   2.80799
 Alpha virt. eigenvalues --    2.81508   2.81610   2.87477   2.87692   2.88447
 Alpha virt. eigenvalues --    2.89976   2.92016   2.92763   2.93711   2.95140
 Alpha virt. eigenvalues --    2.97064   2.97667   2.98308   2.99207   2.99998
 Alpha virt. eigenvalues --    3.00322   3.00780   3.05239   3.06028   3.06353
 Alpha virt. eigenvalues --    3.07008   3.09956   3.13561   3.14679   3.15172
 Alpha virt. eigenvalues --    3.21742   3.23413   3.25936   3.30552   3.30930
 Alpha virt. eigenvalues --    3.38569   3.39217   3.41245   3.46605   3.47598
 Alpha virt. eigenvalues --    3.64279   3.67424   3.86320   3.89509   4.19511
 Alpha virt. eigenvalues --    4.29099
  Beta  occ. eigenvalues -- -256.23945 -30.08540 -25.92877 -25.92721 -25.92023
  Beta  occ. eigenvalues --  -19.22389 -19.17286 -14.43783 -14.37890 -14.36356
  Beta  occ. eigenvalues --  -14.36188 -14.36080 -14.35953 -10.27086 -10.25189
  Beta  occ. eigenvalues --  -10.22708 -10.22565 -10.22264 -10.22234 -10.22108
  Beta  occ. eigenvalues --  -10.21825 -10.21750 -10.21748 -10.21580 -10.21484
  Beta  occ. eigenvalues --  -10.21481 -10.21432 -10.19905 -10.19880 -10.19821
  Beta  occ. eigenvalues --  -10.19788 -10.19611 -10.19472 -10.19405 -10.19333
  Beta  occ. eigenvalues --  -10.19293 -10.19292 -10.19248 -10.18984 -10.18923
  Beta  occ. eigenvalues --  -10.18912 -10.18830 -10.18745 -10.18489 -10.18422
  Beta  occ. eigenvalues --  -10.18404 -10.17838  -3.44545  -2.20653  -2.20503
  Beta  occ. eigenvalues --   -2.20003  -1.13053  -1.06102  -0.97570  -0.96736
  Beta  occ. eigenvalues --   -0.96495  -0.95649  -0.91417  -0.82520  -0.81582
  Beta  occ. eigenvalues --   -0.81154  -0.80957  -0.80880  -0.80572  -0.80090
  Beta  occ. eigenvalues --   -0.79570  -0.76582  -0.75325  -0.74426  -0.74199
  Beta  occ. eigenvalues --   -0.73656  -0.73360  -0.72415  -0.70910  -0.69871
  Beta  occ. eigenvalues --   -0.68412  -0.68139  -0.68125  -0.65056  -0.64639
  Beta  occ. eigenvalues --   -0.64261  -0.61873  -0.60427  -0.59874  -0.57989
  Beta  occ. eigenvalues --   -0.57471  -0.56493  -0.54687  -0.53998  -0.53228
  Beta  occ. eigenvalues --   -0.52616  -0.51359  -0.51266  -0.50815  -0.48820
  Beta  occ. eigenvalues --   -0.48226  -0.48101  -0.47807  -0.47606  -0.46007
  Beta  occ. eigenvalues --   -0.45070  -0.44725  -0.44355  -0.44283  -0.44119
  Beta  occ. eigenvalues --   -0.43720  -0.43657  -0.43593  -0.43354  -0.43128
  Beta  occ. eigenvalues --   -0.43039  -0.42834  -0.42376  -0.42192  -0.42112
  Beta  occ. eigenvalues --   -0.41947  -0.41738  -0.41582  -0.41496  -0.40625
  Beta  occ. eigenvalues --   -0.40495  -0.39968  -0.39914  -0.39761  -0.39472
  Beta  occ. eigenvalues --   -0.39131  -0.38827  -0.38354  -0.38044  -0.37738
  Beta  occ. eigenvalues --   -0.37253  -0.36932  -0.36829  -0.36365  -0.35919
  Beta  occ. eigenvalues --   -0.35529  -0.35352  -0.34496  -0.33986  -0.33560
  Beta  occ. eigenvalues --   -0.33256  -0.31796  -0.31606  -0.30778  -0.30035
  Beta  occ. eigenvalues --   -0.29771  -0.28504  -0.28238  -0.25876  -0.25225
  Beta  occ. eigenvalues --   -0.24394  -0.24214  -0.23601  -0.22673  -0.21464
  Beta  occ. eigenvalues --   -0.21386  -0.19871  -0.18483  -0.17746
  Beta virt. eigenvalues --   -0.13385  -0.06916  -0.05747  -0.03340  -0.02649
  Beta virt. eigenvalues --   -0.00603   0.00450   0.00861   0.01873   0.02233
  Beta virt. eigenvalues --    0.03900   0.06130   0.06820   0.07186   0.08919
  Beta virt. eigenvalues --    0.09640   0.09898   0.10588   0.11321   0.11783
  Beta virt. eigenvalues --    0.11910   0.12483   0.12904   0.13212   0.14068
  Beta virt. eigenvalues --    0.14450   0.14524   0.15002   0.15239   0.15517
  Beta virt. eigenvalues --    0.15819   0.15951   0.16147   0.16675   0.17009
  Beta virt. eigenvalues --    0.17320   0.17481   0.17679   0.17776   0.17961
  Beta virt. eigenvalues --    0.18391   0.18614   0.18741   0.19149   0.19321
  Beta virt. eigenvalues --    0.19450   0.20027   0.20261   0.20956   0.21500
  Beta virt. eigenvalues --    0.21596   0.21653   0.21841   0.22607   0.22826
  Beta virt. eigenvalues --    0.22976   0.23588   0.24340   0.24855   0.25455
  Beta virt. eigenvalues --    0.25949   0.26239   0.26336   0.26597   0.27009
  Beta virt. eigenvalues --    0.27466   0.27577   0.27944   0.29515   0.30291
  Beta virt. eigenvalues --    0.30688   0.30850   0.32105   0.32815   0.33306
  Beta virt. eigenvalues --    0.33772   0.34742   0.35301   0.35987   0.36356
  Beta virt. eigenvalues --    0.36397   0.36941   0.37312   0.38991   0.39643
  Beta virt. eigenvalues --    0.41160   0.41855   0.42229   0.43418   0.43669
  Beta virt. eigenvalues --    0.44038   0.45099   0.46035   0.47488   0.48041
  Beta virt. eigenvalues --    0.48493   0.48704   0.48863   0.49163   0.49412
  Beta virt. eigenvalues --    0.50364   0.51003   0.51445   0.51708   0.52218
  Beta virt. eigenvalues --    0.52747   0.53052   0.53328   0.53547   0.53651
  Beta virt. eigenvalues --    0.53921   0.54669   0.55174   0.55242   0.55578
  Beta virt. eigenvalues --    0.55854   0.56471   0.57465   0.57816   0.58201
  Beta virt. eigenvalues --    0.58477   0.58822   0.58989   0.59963   0.60337
  Beta virt. eigenvalues --    0.60862   0.61121   0.61729   0.62080   0.62272
  Beta virt. eigenvalues --    0.62350   0.62940   0.63366   0.63838   0.64430
  Beta virt. eigenvalues --    0.64696   0.65497   0.65531   0.66027   0.66091
  Beta virt. eigenvalues --    0.66231   0.66776   0.67020   0.67247   0.67582
  Beta virt. eigenvalues --    0.67887   0.68106   0.68506   0.68694   0.69256
  Beta virt. eigenvalues --    0.69432   0.69986   0.71039   0.71408   0.71707
  Beta virt. eigenvalues --    0.71906   0.72831   0.73173   0.73919   0.74321
  Beta virt. eigenvalues --    0.74971   0.75353   0.75585   0.76468   0.76528
  Beta virt. eigenvalues --    0.77005   0.77641   0.78183   0.78276   0.78721
  Beta virt. eigenvalues --    0.79000   0.79482   0.79703   0.79756   0.79995
  Beta virt. eigenvalues --    0.80539   0.80623   0.81525   0.81731   0.82500
  Beta virt. eigenvalues --    0.82824   0.83439   0.84089   0.84752   0.85832
  Beta virt. eigenvalues --    0.86345   0.86885   0.87083   0.87461   0.87605
  Beta virt. eigenvalues --    0.87685   0.88038   0.88196   0.88441   0.88482
  Beta virt. eigenvalues --    0.89103   0.90107   0.90176   0.90521   0.91083
  Beta virt. eigenvalues --    0.91376   0.91705   0.91948   0.92274   0.92413
  Beta virt. eigenvalues --    0.92631   0.93411   0.93991   0.94045   0.94280
  Beta virt. eigenvalues --    0.94818   0.95329   0.95527   0.96538   0.96829
  Beta virt. eigenvalues --    0.97332   0.97624   0.98258   0.98971   0.99161
  Beta virt. eigenvalues --    0.99344   0.99554   1.00034   1.00186   1.00620
  Beta virt. eigenvalues --    1.00951   1.01388   1.01665   1.01918   1.02543
  Beta virt. eigenvalues --    1.03381   1.04338   1.04822   1.05091   1.05402
  Beta virt. eigenvalues --    1.05810   1.06605   1.06754   1.07545   1.08013
  Beta virt. eigenvalues --    1.09293   1.09677   1.10167   1.11153   1.11583
  Beta virt. eigenvalues --    1.13378   1.13685   1.14766   1.15603   1.16310
  Beta virt. eigenvalues --    1.16574   1.17225   1.17748   1.17897   1.18466
  Beta virt. eigenvalues --    1.19229   1.19893   1.20076   1.20653   1.20878
  Beta virt. eigenvalues --    1.21552   1.22247   1.22811   1.22842   1.23538
  Beta virt. eigenvalues --    1.24186   1.24297   1.25105   1.26236   1.27439
  Beta virt. eigenvalues --    1.28214   1.28580   1.29777   1.30941   1.31016
  Beta virt. eigenvalues --    1.32092   1.32520   1.32872   1.33223   1.34245
  Beta virt. eigenvalues --    1.34610   1.34930   1.35868   1.36289   1.36820
  Beta virt. eigenvalues --    1.37263   1.37818   1.38020   1.38484   1.39139
  Beta virt. eigenvalues --    1.39350   1.39935   1.40200   1.41635   1.41995
  Beta virt. eigenvalues --    1.43473   1.44437   1.44886   1.45533   1.45779
  Beta virt. eigenvalues --    1.46664   1.47528   1.48485   1.49036   1.50012
  Beta virt. eigenvalues --    1.50924   1.51723   1.52571   1.53232   1.53486
  Beta virt. eigenvalues --    1.54577   1.54699   1.54941   1.56454   1.56957
  Beta virt. eigenvalues --    1.58382   1.59088   1.59411   1.60689   1.61020
  Beta virt. eigenvalues --    1.61867   1.62639   1.63386   1.64205   1.64596
  Beta virt. eigenvalues --    1.65405   1.65539   1.67534   1.68556   1.69888
  Beta virt. eigenvalues --    1.70704   1.70818   1.72111   1.72601   1.73290
  Beta virt. eigenvalues --    1.75692   1.76233   1.77631   1.78267   1.79445
  Beta virt. eigenvalues --    1.79923   1.80059   1.81275   1.81772   1.81912
  Beta virt. eigenvalues --    1.82457   1.83139   1.83327   1.83779   1.83987
  Beta virt. eigenvalues --    1.84916   1.85736   1.86467   1.86987   1.87400
  Beta virt. eigenvalues --    1.87731   1.87968   1.88677   1.88898   1.90147
  Beta virt. eigenvalues --    1.90534   1.91072   1.91162   1.92571   1.92796
  Beta virt. eigenvalues --    1.93139   1.94416   1.94887   1.95236   1.95606
  Beta virt. eigenvalues --    1.95928   1.96645   1.97585   1.98091   1.99496
  Beta virt. eigenvalues --    2.00236   2.00403   2.00987   2.01381   2.02539
  Beta virt. eigenvalues --    2.02813   2.03525   2.04488   2.04856   2.05686
  Beta virt. eigenvalues --    2.05786   2.07054   2.07288   2.07749   2.09112
  Beta virt. eigenvalues --    2.09183   2.10040   2.11515   2.11855   2.12287
  Beta virt. eigenvalues --    2.13720   2.14392   2.14529   2.15324   2.15725
  Beta virt. eigenvalues --    2.16446   2.17298   2.17725   2.18053   2.19028
  Beta virt. eigenvalues --    2.19771   2.21161   2.22224   2.22283   2.22963
  Beta virt. eigenvalues --    2.23575   2.24055   2.24554   2.24835   2.26204
  Beta virt. eigenvalues --    2.26886   2.27027   2.27245   2.28007   2.28661
  Beta virt. eigenvalues --    2.29420   2.29863   2.30157   2.30639   2.31272
  Beta virt. eigenvalues --    2.31655   2.32057   2.32599   2.33310   2.34277
  Beta virt. eigenvalues --    2.34998   2.35089   2.35840   2.36088   2.36515
  Beta virt. eigenvalues --    2.36942   2.38019   2.38204   2.38308   2.39670
  Beta virt. eigenvalues --    2.39857   2.40400   2.41294   2.41890   2.42601
  Beta virt. eigenvalues --    2.42974   2.43176   2.43925   2.44188   2.44443
  Beta virt. eigenvalues --    2.46160   2.46469   2.47735   2.48394   2.48986
  Beta virt. eigenvalues --    2.51249   2.52652   2.53077   2.53171   2.53620
  Beta virt. eigenvalues --    2.54836   2.55311   2.55942   2.56259   2.56612
  Beta virt. eigenvalues --    2.57377   2.57712   2.59364   2.59892   2.60328
  Beta virt. eigenvalues --    2.61206   2.61874   2.62898   2.63844   2.64137
  Beta virt. eigenvalues --    2.65716   2.67315   2.67985   2.70596   2.71161
  Beta virt. eigenvalues --    2.71378   2.72776   2.73181   2.74530   2.75264
  Beta virt. eigenvalues --    2.77201   2.78512   2.80107   2.81056   2.81823
  Beta virt. eigenvalues --    2.82074   2.87666   2.87905   2.89006   2.90414
  Beta virt. eigenvalues --    2.92291   2.93117   2.94101   2.96007   2.97428
  Beta virt. eigenvalues --    2.97987   2.98465   2.99518   3.00283   3.00756
  Beta virt. eigenvalues --    3.00904   3.06050   3.06280   3.06674   3.07195
  Beta virt. eigenvalues --    3.11093   3.13688   3.14889   3.15250   3.21809
  Beta virt. eigenvalues --    3.23503   3.26245   3.30650   3.31015   3.38769
  Beta virt. eigenvalues --    3.39350   3.41492   3.46811   3.47813   3.67998
  Beta virt. eigenvalues --    3.74083   3.89057   3.91386   4.20728   4.31071
          Condensed to atoms (all electrons):
          Atomic-Atomic Spin Densities.
 Mulliken charges and spin densities:
               1          2
     1  Fe   0.922821   1.111657
     2  N   -0.618351   0.128419
     3  N   -0.641900   0.183473
     4  N   -0.639701   0.109807
     5  N   -0.626273   0.184848
     6  C    0.298396  -0.121680
     7  C    0.019415   0.114573
     8  C    0.031042  -0.041703
     9  C    0.286155   0.074324
    10  C    0.309131   0.025522
    11  C    0.036733  -0.054670
    12  C   -0.014239   0.093108
    13  C    0.343962  -0.147985
    14  C    0.320499  -0.120997
    15  C    0.029064   0.153106
    16  C   -0.008644  -0.040154
    17  C    0.297163   0.073792
    18  C    0.311811   0.022148
    19  C    0.037821  -0.060267
    20  C    0.025308   0.084385
    21  C    0.331742  -0.152251
    22  C   -0.295462   0.506070
    23  H    0.171685  -0.024417
    24  C   -0.259375   0.226439
    25  H    0.180208  -0.011379
    26  C   -0.284390   0.526005
    27  H    0.172857  -0.025343
    28  C   -0.254080   0.235143
    29  H    0.181221  -0.011687
    30  C   -0.610406   0.002541
    31  H    0.185065  -0.000333
    32  H    0.193571  -0.001193
    33  H    0.182438  -0.001166
    34  C   -0.607595  -0.010746
    35  H    0.179300   0.005135
    36  H    0.191951   0.005720
    37  H    0.182559   0.000290
    38  C   -0.612648   0.004253
    39  H    0.178234  -0.000913
    40  H    0.192999  -0.002307
    41  H    0.197177  -0.000675
    42  C   -0.146923  -0.028260
    43  H    0.161964   0.003485
    44  C   -0.403374   0.043880
    45  H    0.174706  -0.002224
    46  H    0.164890  -0.002201
    47  C   -0.611542  -0.013562
    48  H    0.178776   0.007463
    49  H    0.191961   0.005399
    50  H    0.195281   0.000792
    51  C   -0.154068   0.006548
    52  H    0.165042  -0.000438
    53  C   -0.402614  -0.002258
    54  H    0.171749   0.000054
    55  H    0.164724  -0.000046
    56  C   -0.611803   0.004729
    57  H    0.188719  -0.001996
    58  H    0.195894  -0.002228
    59  H    0.185818  -0.000293
    60  C   -0.608106  -0.007342
    61  H    0.183134   0.003828
    62  H    0.184698   0.000187
    63  H    0.193302   0.004309
    64  C   -0.602358   0.000033
    65  H    0.195986  -0.000007
    66  H    0.212527  -0.000009
    67  H    0.195454   0.000007
    68  N   -0.628869   0.000197
    69  H    0.365688   0.000020
    70  C    0.274488  -0.000184
    71  C    0.232429   0.001432
    72  H    0.222079  -0.000133
    73  N   -0.447924  -0.005845
    74  C   -0.053300   0.000200
    75  H    0.201466  -0.000181
    76  O   -0.243134   0.361875
    77  O   -0.204023   0.581875
 Sum of Mulliken charges =  -0.00000   4.00000
 Mulliken charges and spin densities with hydrogens summed into heavy atoms:
               1          2
     1  Fe   0.922821   1.111657
     2  N   -0.618351   0.128419
     3  N   -0.641900   0.183473
     4  N   -0.639701   0.109807
     5  N   -0.626273   0.184848
     6  C    0.298396  -0.121680
     7  C    0.019415   0.114573
     8  C    0.031042  -0.041703
     9  C    0.286155   0.074324
    10  C    0.309131   0.025522
    11  C    0.036733  -0.054670
    12  C   -0.014239   0.093108
    13  C    0.343962  -0.147985
    14  C    0.320499  -0.120997
    15  C    0.029064   0.153106
    16  C   -0.008644  -0.040154
    17  C    0.297163   0.073792
    18  C    0.311811   0.022148
    19  C    0.037821  -0.060267
    20  C    0.025308   0.084385
    21  C    0.331742  -0.152251
    22  C   -0.123777   0.481653
    24  C   -0.079167   0.215060
    26  C   -0.111533   0.500662
    28  C   -0.072859   0.223456
    30  C   -0.049332  -0.000152
    34  C   -0.053784   0.000399
    38  C   -0.044239   0.000357
    42  C    0.015042  -0.024774
    44  C   -0.063778   0.039456
    47  C   -0.045526   0.000092
    51  C    0.010974   0.006110
    53  C   -0.066141  -0.002250
    56  C   -0.041372   0.000212
    60  C   -0.046971   0.000982
    64  C    0.001609   0.000024
    68  N   -0.263181   0.000218
    70  C    0.274488  -0.000184
    71  C    0.454508   0.001300
    73  N   -0.447924  -0.005845
    74  C    0.148165   0.000019
    76  O   -0.243134   0.361875
    77  O   -0.204023   0.581875
 Electronic spatial extent (au):  <R**2>=          20491.8694
 Charge=             -0.0000 electrons
 Dipole moment (field-independent basis, Debye):
    X=             -3.0275    Y=             -1.5601    Z=              8.3650  Tot=              9.0318
 Quadrupole moment (field-independent basis, Debye-Ang):
   XX=           -230.3714   YY=           -234.2760   ZZ=           -237.1640
   XY=             -0.9510   XZ=             -3.7376   YZ=              0.9885
 Traceless Quadrupole moment (field-independent basis, Debye-Ang):
   XX=              3.5657   YY=             -0.3389   ZZ=             -3.2269
   XY=             -0.9510   XZ=             -3.7376   YZ=              0.9885
 Octapole moment (field-independent basis, Debye-Ang**2):
  XXX=            -47.2928  YYY=            -39.7755  ZZZ=            188.4229  XYY=             -1.8889
  XXY=             -0.2983  XXZ=             14.8465  XZZ=            -45.1408  YZZ=            -18.3597
  YYZ=            -38.0358  XYZ=             21.8662
 Hexadecapole moment (field-independent basis, Debye-Ang**3):
 XXXX=         -11547.7713 YYYY=         -11319.1150 ZZZZ=          -3250.9038 XXXY=            -27.0662
 XXXZ=             -0.6502 YYYX=            -11.1246 YYYZ=            -13.0341 ZZZX=           -148.9199
 ZZZY=            -46.1256 XXYY=          -3757.4091 XXZZ=          -2622.7126 YYZZ=          -2699.3168
 XXYZ=             34.3218 YYXZ=             18.4695 ZZXY=             15.0984
 N-N= 6.176041114897D+03 E-N=-1.953649335697D+04  KE= 3.046003847805D+03
                          Isotropic Fermi Contact Couplings
        Atom                 a.u.       MegaHertz       Gauss      10(-4) cm-1
     1  Fe(57)             0.11192       4.05829       1.44810       1.35370
     2  N(14)              0.01921       1.55154       0.55363       0.51754
     3  N(14)              0.02191       1.76997       0.63157       0.59040
     4  N(14)              0.00745       0.60188       0.21477       0.20077
     5  N(14)              0.02851       2.30279       0.82169       0.76813
     6  C(13)             -0.02573      -7.23226      -2.58065      -2.41242
     7  C(13)              0.01674       4.70577       1.67914       1.56968
     8  C(13)             -0.00906      -2.54691      -0.90880      -0.84956
     9  C(13)              0.00380       1.06785       0.38104       0.35620
    10  C(13)             -0.00362      -1.01689      -0.36285      -0.33920
    11  C(13)             -0.01047      -2.94358      -1.05034      -0.98187
    12  C(13)              0.01392       3.91178       1.39582       1.30483
    13  C(13)             -0.03064      -8.61089      -3.07258      -2.87228
    14  C(13)             -0.02602      -7.31374      -2.60972      -2.43960
    15  C(13)              0.02183       6.13486       2.18907       2.04637
    16  C(13)             -0.00931      -2.61739      -0.93395      -0.87307
    17  C(13)              0.00411       1.15421       0.41185       0.38500
    18  C(13)             -0.00423      -1.18925      -0.42435      -0.39669
    19  C(13)             -0.01081      -3.03877      -1.08431      -1.01363
    20  C(13)              0.01304       3.66418       1.30747       1.22224
    21  C(13)             -0.03117      -8.75976      -3.12570      -2.92194
    22  C(13)              0.06659      18.71411       6.67766       6.24235
    23  H(1)              -0.00787      -8.79301      -3.13757      -2.93303
    24  C(13)              0.02570       7.22292       2.57732       2.40931
    25  H(1)              -0.00378      -4.22313      -1.50692      -1.40868
    26  C(13)              0.06940      19.50369       6.95940       6.50573
    27  H(1)              -0.00815      -9.10354      -3.24837      -3.03661
    28  C(13)              0.02700       7.58731       2.70734       2.53085
    29  H(1)              -0.00387      -4.32481      -1.54320      -1.44260
    30  C(13)              0.00062       0.17506       0.06246       0.05839
    31  H(1)              -0.00014      -0.15377      -0.05487      -0.05129
    32  H(1)              -0.00052      -0.58589      -0.20906      -0.19543
    33  H(1)              -0.00052      -0.58185      -0.20762      -0.19408
    34  C(13)             -0.00397      -1.11588      -0.39817      -0.37222
    35  H(1)               0.00166       1.85129       0.66059       0.61753
    36  H(1)               0.00219       2.44769       0.87340       0.81646
    37  H(1)               0.00010       0.11558       0.04124       0.03855
    38  C(13)              0.00142       0.39834       0.14214       0.13287
    39  H(1)              -0.00059      -0.65572      -0.23398      -0.21872
    40  H(1)              -0.00115      -1.28073      -0.45700      -0.42721
    41  H(1)              -0.00026      -0.29116      -0.10389      -0.09712
    42  C(13)             -0.00547      -1.53864      -0.54902      -0.51323
    43  H(1)               0.00075       0.83758       0.29887       0.27939
    44  C(13)              0.00628       1.76378       0.62936       0.58833
    45  H(1)              -0.00067      -0.75403      -0.26906      -0.25152
    46  H(1)              -0.00067      -0.74673      -0.26645      -0.24908
    47  C(13)             -0.00499      -1.40164      -0.50014      -0.46754
    48  H(1)               0.00334       3.72881       1.33053       1.24380
    49  H(1)               0.00154       1.72171       0.61435       0.57430
    50  H(1)               0.00054       0.60169       0.21470       0.20070
    51  C(13)              0.00105       0.29534       0.10538       0.09851
    52  H(1)              -0.00027      -0.30194      -0.10774      -0.10072
    53  C(13)             -0.00074      -0.20851      -0.07440      -0.06955
    54  H(1)               0.00006       0.06518       0.02326       0.02174
    55  H(1)               0.00000       0.00136       0.00048       0.00045
    56  C(13)              0.00151       0.42394       0.15127       0.14141
    57  H(1)              -0.00103      -1.14958      -0.41020      -0.38346
    58  H(1)              -0.00116      -1.29648      -0.46262      -0.43246
    59  H(1)              -0.00012      -0.13959      -0.04981      -0.04656
    60  C(13)             -0.00268      -0.75266      -0.26857      -0.25106
    61  H(1)               0.00129       1.44294       0.51488       0.48131
    62  H(1)               0.00006       0.06470       0.02309       0.02158
    63  H(1)               0.00120       1.34201       0.47886       0.44765
    64  C(13)              0.00002       0.00581       0.00207       0.00194
    65  H(1)               0.00000       0.00083       0.00030       0.00028
    66  H(1)              -0.00000      -0.00500      -0.00178      -0.00167
    67  H(1)               0.00000       0.00510       0.00182       0.00170
    68  N(14)             -0.00023      -0.01873      -0.00668      -0.00625
    69  H(1)               0.00001       0.01244       0.00444       0.00415
    70  C(13)             -0.00027      -0.07477      -0.02668      -0.02494
    71  C(13)              0.00021       0.05805       0.02071       0.01936
    72  H(1)              -0.00006      -0.06504      -0.02321      -0.02170
    73  N(14)              0.00021       0.01736       0.00619       0.00579
    74  C(13)             -0.00048      -0.13479      -0.04810      -0.04496
    75  H(1)              -0.00005      -0.05256      -0.01876      -0.01753
    76  O(17)              0.14137     -21.42383      -7.64456      -7.14622
    77  O(17)              0.10738     -16.27391      -5.80693      -5.42839
 --------------------------------------------------------
       Center         ----  Spin Dipole Couplings  ----
                      3XX-RR        3YY-RR        3ZZ-RR
 --------------------------------------------------------
     1   Atom       -1.176605     -0.316984      1.493590
     2   Atom       -0.142610     -0.163453      0.306062
     3   Atom       -0.220470     -0.220358      0.440828
     4   Atom       -0.137514     -0.147799      0.285313
     5   Atom       -0.219881     -0.202921      0.422802
     6   Atom        0.037880      0.044992     -0.082872
     7   Atom       -0.049767     -0.060809      0.110576
     8   Atom        0.019434      0.011413     -0.030847
     9   Atom       -0.047510     -0.052661      0.100171
    10   Atom       -0.020500     -0.024445      0.044944
    11   Atom        0.021000      0.029505     -0.050504
    12   Atom       -0.046878     -0.034769      0.081646
    13   Atom        0.059167      0.052194     -0.111361
    14   Atom        0.034024      0.039410     -0.073434
    15   Atom       -0.062382     -0.082125      0.144507
    16   Atom        0.016308      0.009283     -0.025590
    17   Atom       -0.047981     -0.052648      0.100629
    18   Atom       -0.019077     -0.019876      0.038952
    19   Atom        0.024392      0.032057     -0.056449
    20   Atom       -0.042700     -0.028938      0.071639
    21   Atom        0.063474      0.054281     -0.117755
    22   Atom       -0.236902     -0.234683      0.471585
    23   Atom       -0.000338      0.005475     -0.005137
    24   Atom       -0.107411     -0.110898      0.218309
    25   Atom        0.005332      0.000842     -0.006174
    26   Atom       -0.250671     -0.248100      0.498771
    27   Atom       -0.000626      0.006234     -0.005608
    28   Atom       -0.114218     -0.114006      0.228223
    29   Atom        0.004586      0.001643     -0.006229
    30   Atom        0.005996     -0.002419     -0.003577
    31   Atom        0.004130     -0.001555     -0.002575
    32   Atom        0.005357     -0.002161     -0.003196
    33   Atom        0.005185     -0.002060     -0.003126
    34   Atom        0.006502     -0.002431     -0.004071
    35   Atom        0.005404     -0.001545     -0.003859
    36   Atom        0.005247     -0.001563     -0.003685
    37   Atom        0.005244     -0.002421     -0.002822
    38   Atom       -0.001503      0.005350     -0.003847
    39   Atom       -0.001684      0.004843     -0.003159
    40   Atom       -0.001308      0.004306     -0.002997
    41   Atom       -0.000837      0.003273     -0.002436
    42   Atom       -0.001610      0.014914     -0.013304
    43   Atom       -0.003783      0.007952     -0.004170
    44   Atom       -0.006270     -0.007351      0.013621
    45   Atom        0.000101      0.001599     -0.001700
    46   Atom       -0.000990      0.003575     -0.002584
    47   Atom        0.007224     -0.003155     -0.004069
    48   Atom        0.005609     -0.001720     -0.003889
    49   Atom        0.006245     -0.001645     -0.004600
    50   Atom        0.006334     -0.003119     -0.003216
    51   Atom        0.004965     -0.002630     -0.002335
    52   Atom        0.005368     -0.001799     -0.003569
    53   Atom        0.004925      0.000293     -0.005218
    54   Atom        0.003955     -0.001996     -0.001959
    55   Atom        0.002611     -0.000985     -0.001625
    56   Atom       -0.001980      0.005617     -0.003637
    57   Atom       -0.002010      0.004935     -0.002925
    58   Atom       -0.002015      0.005013     -0.002998
    59   Atom       -0.001176      0.003475     -0.002299
    60   Atom       -0.002678      0.006521     -0.003842
    61   Atom       -0.002253      0.005950     -0.003697
    62   Atom       -0.002352      0.004855     -0.002503
    63   Atom       -0.002483      0.005721     -0.003238
    64   Atom       -0.001701     -0.001781      0.003482
    65   Atom       -0.001375     -0.001361      0.002736
    66   Atom       -0.001397     -0.001704      0.003101
    67   Atom       -0.001359     -0.001363      0.002722
    68   Atom       -0.003310     -0.002369      0.005679
    69   Atom       -0.001742     -0.002201      0.003942
    70   Atom       -0.003308     -0.003073      0.006381
    71   Atom       -0.004441     -0.006012      0.010453
    72   Atom       -0.000920     -0.005771      0.006691
    73   Atom       -0.015259     -0.014398      0.029657
    74   Atom       -0.005559     -0.006851      0.012410
    75   Atom       -0.003678     -0.006025      0.009703
    76   Atom        0.739565      0.146615     -0.886180
    77   Atom        0.986274      0.229374     -1.215647
 --------------------------------------------------------
                        XY            XZ            YZ
 --------------------------------------------------------
     1   Atom        1.344468     -0.005639      0.414150
     2   Atom        0.000851     -0.031072      0.014941
     3   Atom       -0.002524     -0.054713      0.017288
     4   Atom        0.000901      0.048997      0.004726
     5   Atom        0.006388     -0.043632     -0.076610
     6   Atom        0.006663      0.001141      0.000296
     7   Atom        0.001420     -0.005124      0.003582
     8   Atom       -0.000386      0.001502      0.000374
     9   Atom       -0.005805     -0.007875      0.006458
    10   Atom       -0.009177     -0.010553      0.002421
    11   Atom       -0.002224      0.001303      0.003917
    12   Atom       -0.001032     -0.008164      0.002011
    13   Atom        0.007812      0.008342      0.010791
    14   Atom        0.005753     -0.003786      0.004441
    15   Atom        0.002561      0.044276      0.008543
    16   Atom       -0.001307      0.000201      0.000908
    17   Atom       -0.005531      0.017351      0.005260
    18   Atom       -0.006125     -0.013730     -0.013780
    19   Atom       -0.001237      0.003375      0.008462
    20   Atom        0.000828     -0.005946     -0.016944
    21   Atom        0.008907      0.010457      0.016107
    22   Atom        0.014187     -0.030845     -0.035860
    23   Atom        0.035954      0.001010      0.001219
    24   Atom       -0.006870     -0.021099      0.001893
    25   Atom       -0.020982     -0.000202     -0.000591
    26   Atom        0.012792      0.004847     -0.006043
    27   Atom        0.037791      0.000809      0.001535
    28   Atom       -0.007137      0.000933     -0.004544
    29   Atom       -0.021617      0.000510     -0.001086
    30   Atom       -0.001293     -0.000127     -0.000047
    31   Atom       -0.000883     -0.000109     -0.000003
    32   Atom       -0.002190      0.001508     -0.000399
    33   Atom       -0.002098     -0.001833      0.000506
    34   Atom        0.002253     -0.000308      0.000037
    35   Atom        0.003276     -0.002377     -0.000960
    36   Atom        0.003296      0.002005      0.000758
    37   Atom        0.001395     -0.000326     -0.000099
    38   Atom       -0.001652     -0.000451      0.000582
    39   Atom       -0.003054     -0.000770      0.001713
    40   Atom       -0.002026      0.000144     -0.000792
    41   Atom       -0.001196     -0.000430      0.000820
    42   Atom        0.004449      0.010257     -0.006620
    43   Atom        0.002595      0.000408      0.001992
    44   Atom       -0.011395     -0.024334      0.018501
    45   Atom       -0.001435      0.001469     -0.000454
    46   Atom        0.002892     -0.000666      0.001225
    47   Atom        0.002915     -0.000713      0.000589
    48   Atom        0.003654      0.001979      0.000798
    49   Atom        0.004628     -0.002687     -0.001170
    50   Atom        0.001657     -0.001282     -0.000307
    51   Atom       -0.001099     -0.001651     -0.002398
    52   Atom       -0.003552     -0.001517      0.000557
    53   Atom       -0.000751      0.001041      0.000595
    54   Atom       -0.000896      0.001201     -0.000158
    55   Atom       -0.000960      0.000207     -0.000073
    56   Atom       -0.001487      0.000294     -0.000004
    57   Atom       -0.002126      0.000322     -0.001226
    58   Atom       -0.002411     -0.000299      0.001724
    59   Atom       -0.001079      0.000002      0.000059
    60   Atom        0.000811     -0.000173      0.000465
    61   Atom        0.002039     -0.000272     -0.001269
    62   Atom        0.000346     -0.000016      0.000492
    63   Atom        0.001863      0.000470      0.002874
    64   Atom        0.000058      0.000566      0.000010
    65   Atom        0.000063      0.000160      0.000450
    66   Atom        0.000088      0.001206      0.000096
    67   Atom       -0.000003      0.000359     -0.000483
    68   Atom        0.000247     -0.002161      0.000330
    69   Atom        0.000198     -0.001733     -0.000307
    70   Atom        0.000262      0.000495     -0.000115
    71   Atom       -0.001209     -0.007008      0.000125
    72   Atom        0.001107     -0.008148     -0.001156
    73   Atom        0.001588     -0.004141      0.000208
    74   Atom        0.000053      0.003761     -0.000059
    75   Atom        0.000854      0.006480      0.000764
    76   Atom       -1.279351      0.234475     -0.152711
    77   Atom       -1.599472      0.287733     -0.235278
 --------------------------------------------------------


 ---------------------------------------------------------------------------------
              Anisotropic Spin Dipole Couplings in Principal Axis System
 ---------------------------------------------------------------------------------

       Atom             a.u.   MegaHertz   Gauss  10(-4) cm-1        Axes

              Baa    -2.1753   -37.661   -13.439   -12.562  0.8010 -0.5947  0.0684
     1 Fe(57) Bbb     0.5511     9.541     3.405     3.183  0.5816  0.7460 -0.3243
              Bcc     1.6242    28.120    10.034     9.380  0.1419  0.2996  0.9435
 
              Baa    -0.1641    -6.329    -2.258    -2.111 -0.0941  0.9948 -0.0378
     2 N(14)  Bbb    -0.1446    -5.576    -1.990    -1.860  0.9932  0.0964  0.0653
              Bcc     0.3087    11.905     4.248     3.971 -0.0686  0.0314  0.9971
 
              Baa    -0.2252    -8.687    -3.100    -2.898  0.9677  0.2411  0.0732
     3 N(14)  Bbb    -0.2205    -8.506    -3.035    -2.837 -0.2383  0.9702 -0.0451
              Bcc     0.4458    17.193     6.135     5.735 -0.0819  0.0262  0.9963
 
              Baa    -0.1479    -5.703    -2.035    -1.902 -0.0757  0.9971 -0.0023
     4 N(14)  Bbb    -0.1431    -5.519    -1.969    -1.841  0.9906  0.0749 -0.1141
              Bcc     0.2910    11.222     4.004     3.743  0.1136  0.0109  0.9935
 
              Baa    -0.2230    -8.599    -3.068    -2.868  0.9925 -0.1098  0.0540
     5 N(14)  Bbb    -0.2120    -8.178    -2.918    -2.728  0.1023  0.9867  0.1261
              Bcc     0.4350    16.777     5.987     5.596 -0.0672 -0.1196  0.9905
 
              Baa    -0.0829   -11.122    -3.969    -3.710 -0.0093 -0.0018  1.0000
     6 C(13)  Bbb     0.0339     4.548     1.623     1.517  0.8573 -0.5147  0.0071
              Bcc     0.0490     6.574     2.346     2.193  0.5147  0.8574  0.0064
 
              Baa    -0.0611    -8.198    -2.925    -2.735 -0.1353  0.9905 -0.0247
     7 C(13)  Bbb    -0.0497    -6.672    -2.381    -2.226  0.9903  0.1360  0.0286
              Bcc     0.1108    14.870     5.306     4.960 -0.0317  0.0206  0.9993
 
              Baa    -0.0309    -4.146    -1.479    -1.383 -0.0299 -0.0091  0.9995
     8 C(13)  Bbb     0.0114     1.530     0.546     0.510  0.0461  0.9989  0.0105
              Bcc     0.0195     2.616     0.934     0.873  0.9985 -0.0464  0.0294
 
              Baa    -0.0564    -7.574    -2.703    -2.527  0.5401  0.8416 -0.0075
     9 C(13)  Bbb    -0.0444    -5.964    -2.128    -1.989  0.8398 -0.5384  0.0698
              Bcc     0.1009    13.538     4.831     4.516 -0.0547  0.0440  0.9975
 
              Baa    -0.0322    -4.317    -1.540    -1.440  0.6528  0.7547  0.0656
    10 C(13)  Bbb    -0.0146    -1.965    -0.701    -0.655  0.7401 -0.6538  0.1576
              Bcc     0.0468     6.282     2.241     2.095 -0.1619  0.0543  0.9853
 
              Baa    -0.0507    -6.807    -2.429    -2.270 -0.0197 -0.0493  0.9986
    11 C(13)  Bbb     0.0205     2.754     0.983     0.919  0.9733  0.2276  0.0304
              Bcc     0.0302     4.053     1.446     1.352 -0.2288  0.9725  0.0435
 
              Baa    -0.0475    -6.368    -2.272    -2.124  0.9955  0.0712  0.0618
    12 C(13)  Bbb    -0.0347    -4.662    -1.663    -1.555 -0.0699  0.9973 -0.0221
              Bcc     0.0822    11.030     3.936     3.679 -0.0633  0.0177  0.9978
 
              Baa    -0.1124   -15.087    -5.383    -5.032 -0.0456 -0.0632  0.9970
    13 C(13)  Bbb     0.0472     6.340     2.262     2.115 -0.5610  0.8274  0.0268
              Bcc     0.0652     8.746     3.121     2.918  0.8266  0.5581  0.0732
 
              Baa    -0.0738    -9.898    -3.532    -3.302  0.0373 -0.0411  0.9985
    14 C(13)  Bbb     0.0307     4.115     1.468     1.373  0.8465 -0.5296 -0.0534
              Bcc     0.0431     5.783     2.063     1.929  0.5310  0.8472  0.0150
 
              Baa    -0.0825   -11.073    -3.951    -3.694 -0.0776  0.9967 -0.0224
    15 C(13)  Bbb    -0.0714    -9.582    -3.419    -3.196  0.9765  0.0715 -0.2031
              Bcc     0.1539    20.654     7.370     6.890  0.2008  0.0376  0.9789
 
              Baa    -0.0256    -3.437    -1.227    -1.147 -0.0056 -0.0262  0.9996
    16 C(13)  Bbb     0.0091     1.217     0.434     0.406  0.1769  0.9839  0.0268
              Bcc     0.0165     2.220     0.792     0.740  0.9842 -0.1770  0.0009
 
              Baa    -0.0576    -7.734    -2.760    -2.580  0.6162  0.7820 -0.0935
    17 C(13)  Bbb    -0.0451    -6.056    -2.161    -2.020  0.7794 -0.6225 -0.0703
              Bcc     0.1028    13.790     4.921     4.600  0.1132  0.0296  0.9931
 
              Baa    -0.0310    -4.162    -1.485    -1.388  0.6653  0.6969  0.2678
    18 C(13)  Bbb    -0.0133    -1.790    -0.639    -0.597  0.7219 -0.6920  0.0072
              Bcc     0.0444     5.953     2.124     1.986 -0.1903 -0.1885  0.9635
 
              Baa    -0.0574    -7.702    -2.748    -2.569 -0.0425 -0.0947  0.9946
    19 C(13)  Bbb     0.0244     3.280     1.170     1.094  0.9933  0.1032  0.0522
              Bcc     0.0330     4.423     1.578     1.475 -0.1076  0.9901  0.0896
 
              Baa    -0.0430    -5.771    -2.059    -1.925  0.9986  0.0044  0.0524
    20 C(13)  Bbb    -0.0317    -4.256    -1.519    -1.420 -0.0128  0.9869  0.1611
              Bcc     0.0747    10.027     3.578     3.345 -0.0510 -0.1615  0.9856
 
              Baa    -0.1198   -16.070    -5.734    -5.360 -0.0524 -0.0894  0.9946
    21 C(13)  Bbb     0.0492     6.607     2.357     2.204 -0.5536  0.8316  0.0455
              Bcc     0.0705     9.463     3.377     3.157  0.8312  0.5482  0.0931
 
              Baa    -0.2500   -33.551   -11.972   -11.192  0.7312 -0.6822 -0.0026
    22 C(13)  Bbb    -0.2248   -30.162   -10.763   -10.061  0.6808  0.7294  0.0677
              Bcc     0.4748    63.713    22.734    21.252 -0.0443 -0.0513  0.9977
 
              Baa    -0.0335   -17.875    -6.378    -5.963  0.7350 -0.6781  0.0030
    23 H(1)   Bbb    -0.0052    -2.771    -0.989    -0.924 -0.0266 -0.0245  0.9993
              Bcc     0.0387    20.646     7.367     6.887  0.6776  0.7346  0.0360
 
              Baa    -0.1167   -15.655    -5.586    -5.222  0.6482  0.7606  0.0365
    24 C(13)  Bbb    -0.1030   -13.825    -4.933    -4.611  0.7588 -0.6492  0.0536
              Bcc     0.2197    29.480    10.519     9.833 -0.0645  0.0071  0.9979
 
              Baa    -0.0180    -9.627    -3.435    -3.211  0.6674  0.7431  0.0484
    25 H(1)   Bbb    -0.0061    -3.280    -1.171    -1.094 -0.0383 -0.0306  0.9988
              Bcc     0.0242    12.907     4.606     4.305  0.7437 -0.6685  0.0081
 
              Baa    -0.2623   -35.201   -12.560   -11.742  0.7413 -0.6712 -0.0100
    26 C(13)  Bbb    -0.2365   -31.740   -11.326   -10.587  0.6712  0.7413  0.0017
              Bcc     0.4988    66.941    23.886    22.329  0.0063 -0.0080  0.9999
 
              Baa    -0.0351   -18.754    -6.692    -6.256  0.7381 -0.6746  0.0148
    27 H(1)   Bbb    -0.0057    -3.021    -1.078    -1.008 -0.0353 -0.0167  0.9992
              Bcc     0.0408    21.775     7.770     7.263  0.6738  0.7380  0.0362
 
              Baa    -0.1213   -16.273    -5.807    -5.428  0.7109  0.7032  0.0072
    28 C(13)  Bbb    -0.1070   -14.361    -5.124    -4.790 -0.7033  0.7108  0.0116
              Bcc     0.2283    30.634    10.931    10.218  0.0030 -0.0133  0.9999
 
              Baa    -0.0186    -9.907    -3.535    -3.305  0.6816  0.7309  0.0361
    29 H(1)   Bbb    -0.0063    -3.336    -1.190    -1.113 -0.0509 -0.0019  0.9987
              Bcc     0.0248    13.244     4.726     4.418  0.7300 -0.6825  0.0359
 
              Baa    -0.0036    -0.481    -0.172    -0.160  0.0219  0.0645  0.9977
    30 C(13)  Bbb    -0.0026    -0.350    -0.125    -0.117  0.1473  0.9868 -0.0670
              Bcc     0.0062     0.831     0.296     0.277  0.9889 -0.1484 -0.0121
 
              Baa    -0.0026    -1.375    -0.491    -0.459  0.0189  0.0193  0.9996
    31 H(1)   Bbb    -0.0017    -0.901    -0.321    -0.301  0.1496  0.9885 -0.0219
              Bcc     0.0043     2.276     0.812     0.759  0.9886 -0.1499 -0.0158
 
              Baa    -0.0035    -1.844    -0.658    -0.615 -0.1611  0.0312  0.9864
    32 H(1)   Bbb    -0.0028    -1.468    -0.524    -0.490  0.2587  0.9659  0.0116
              Bcc     0.0062     3.312     1.182     1.105  0.9524 -0.2570  0.1637
 
              Baa    -0.0035    -1.876    -0.669    -0.626  0.1904 -0.0661  0.9795
    33 H(1)   Bbb    -0.0026    -1.400    -0.499    -0.467  0.2626  0.9648  0.0141
              Bcc     0.0061     3.276     1.169     1.093  0.9459 -0.2545 -0.2010
 
              Baa    -0.0041    -0.549    -0.196    -0.183  0.0474 -0.0864  0.9951
    34 C(13)  Bbb    -0.0030    -0.397    -0.142    -0.132 -0.2277  0.9691  0.0950
              Bcc     0.0070     0.946     0.337     0.315  0.9726  0.2311 -0.0262
 
              Baa    -0.0044    -2.373    -0.847    -0.792  0.2048  0.0912  0.9745
    35 H(1)   Bbb    -0.0028    -1.518    -0.542    -0.506 -0.3712  0.9285 -0.0089
              Bcc     0.0073     3.892     1.389     1.298  0.9057  0.3600 -0.2240
 
              Baa    -0.0041    -2.196    -0.784    -0.733 -0.1967 -0.0370  0.9798
    36 H(1)   Bbb    -0.0029    -1.545    -0.551    -0.515 -0.3668  0.9295 -0.0386
              Bcc     0.0070     3.741     1.335     1.248  0.9093  0.3670  0.1964
 
              Baa    -0.0028    -1.518    -0.542    -0.506  0.0004  0.2250  0.9744
    37 H(1)   Bbb    -0.0027    -1.418    -0.506    -0.473 -0.1784  0.9587 -0.2213
              Bcc     0.0055     2.936     1.048     0.979  0.9840  0.1737 -0.0405
 
              Baa    -0.0039    -0.529    -0.189    -0.176  0.1600 -0.0333  0.9866
    38 C(13)  Bbb    -0.0018    -0.246    -0.088    -0.082  0.9612  0.2330 -0.1480
              Bcc     0.0058     0.775     0.276     0.258 -0.2249  0.9719  0.0693
 
              Baa    -0.0035    -1.888    -0.674    -0.630  0.1908 -0.1294  0.9731
    39 H(1)   Bbb    -0.0029    -1.536    -0.548    -0.512  0.9124  0.3891 -0.1272
              Bcc     0.0064     3.424     1.222     1.142 -0.3621  0.9121  0.1923
 
              Baa    -0.0031    -1.647    -0.588    -0.549  0.0593  0.1224  0.9907
    40 H(1)   Bbb    -0.0020    -1.042    -0.372    -0.348  0.9507  0.2959 -0.0934
              Bcc     0.0050     2.689     0.959     0.897 -0.3046  0.9474 -0.0988
 
              Baa    -0.0026    -1.385    -0.494    -0.462  0.1700 -0.1023  0.9801
    41 H(1)   Bbb    -0.0011    -0.604    -0.216    -0.201  0.9496  0.2829 -0.1352
              Bcc     0.0037     1.989     0.710     0.663 -0.2635  0.9537  0.1453
 
              Baa    -0.0210    -2.822    -1.007    -0.941 -0.4943  0.2163  0.8419
    42 C(13)  Bbb     0.0043     0.581     0.207     0.194  0.8573 -0.0392  0.5134
              Bcc     0.0167     2.241     0.800     0.747  0.1441  0.9755 -0.1660
 
              Baa    -0.0045    -2.395    -0.855    -0.799  0.0445 -0.1670  0.9850
    43 H(1)   Bbb    -0.0043    -2.310    -0.824    -0.771  0.9779 -0.1941 -0.0771
              Bcc     0.0088     4.705     1.679     1.570  0.2041  0.9667  0.1547
 
              Baa    -0.0227    -3.050    -1.088    -1.017  0.7914 -0.1317  0.5969
    44 C(13)  Bbb    -0.0172    -2.309    -0.824    -0.770  0.3489  0.8991 -0.2642
              Bcc     0.0399     5.359     1.912     1.788 -0.5019  0.4174  0.7576
 
              Baa    -0.0025    -1.360    -0.485    -0.454 -0.5183 -0.0861  0.8509
    45 H(1)   Bbb    -0.0002    -0.126    -0.045    -0.042  0.6435  0.6160  0.4543
              Bcc     0.0028     1.486     0.530     0.496 -0.5633  0.7830 -0.2639
 
              Baa    -0.0037    -1.957    -0.698    -0.653  0.5657 -0.3520  0.7457
    46 H(1)   Bbb    -0.0014    -0.745    -0.266    -0.249  0.7104 -0.2512 -0.6575
              Bcc     0.0051     2.702     0.964     0.901  0.4188  0.9017  0.1080
 
              Baa    -0.0048    -0.639    -0.228    -0.213  0.1988 -0.6349  0.7466
    47 C(13)  Bbb    -0.0033    -0.436    -0.156    -0.146 -0.1582  0.7310  0.6638
              Bcc     0.0080     1.075     0.384     0.359  0.9672  0.2501 -0.0449
 
              Baa    -0.0043    -2.288    -0.817    -0.763 -0.1764 -0.0546  0.9828
    48 H(1)   Bbb    -0.0032    -1.723    -0.615    -0.575 -0.3788  0.9253 -0.0166
              Bcc     0.0075     4.012     1.432     1.338  0.9085  0.3752  0.1839
 
              Baa    -0.0052    -2.792    -0.996    -0.931  0.2089  0.0489  0.9767
    49 H(1)   Bbb    -0.0038    -2.016    -0.719    -0.672 -0.4095  0.9113  0.0419
              Bcc     0.0090     4.808     1.716     1.604  0.8880  0.4088 -0.2104
 
              Baa    -0.0035    -1.858    -0.663    -0.620 -0.0355  0.7347  0.6775
    50 H(1)   Bbb    -0.0033    -1.765    -0.630    -0.589  0.2092 -0.6574  0.7239
              Bcc     0.0068     3.622     1.293     1.208  0.9772  0.1674 -0.1304
 
              Baa    -0.0053    -0.705    -0.251    -0.235  0.1864  0.7045  0.6848
    51 C(13)  Bbb    -0.0001    -0.015    -0.006    -0.005 -0.0764  0.7053 -0.7048
              Bcc     0.0054     0.720     0.257     0.240  0.9795 -0.0791 -0.1853
 
              Baa    -0.0038    -2.039    -0.727    -0.680  0.1797  0.0452  0.9827
    52 H(1)   Bbb    -0.0033    -1.736    -0.620    -0.579  0.3622  0.9257 -0.1088
              Bcc     0.0071     3.775     1.347     1.259  0.9146 -0.3754 -0.1500
 
              Baa    -0.0054    -0.725    -0.259    -0.242 -0.1080 -0.1174  0.9872
    53 C(13)  Bbb     0.0003     0.037     0.013     0.012  0.1295  0.9829  0.1311
              Bcc     0.0051     0.688     0.246     0.230  0.9857 -0.1420  0.0910
 
              Baa    -0.0022    -1.172    -0.418    -0.391 -0.2182 -0.2252  0.9496
    54 H(1)   Bbb    -0.0021    -1.133    -0.404    -0.378  0.0927  0.9638  0.2499
              Bcc     0.0043     2.305     0.823     0.769  0.9715 -0.1425  0.1894
 
              Baa    -0.0016    -0.873    -0.312    -0.291 -0.0351  0.0597  0.9976
    55 H(1)   Bbb    -0.0012    -0.654    -0.233    -0.218  0.2451  0.9683 -0.0493
              Bcc     0.0029     1.527     0.545     0.509  0.9689 -0.2428  0.0486
 
              Baa    -0.0037    -0.496    -0.177    -0.165 -0.1943 -0.0306  0.9805
    56 C(13)  Bbb    -0.0022    -0.296    -0.105    -0.099  0.9632  0.1833  0.1966
              Bcc     0.0059     0.791     0.282     0.264 -0.1857  0.9826 -0.0061
 
              Baa    -0.0031    -1.660    -0.592    -0.554  0.0035  0.1515  0.9884
    57 H(1)   Bbb    -0.0026    -1.392    -0.497    -0.464  0.9634  0.2643 -0.0440
              Bcc     0.0057     3.052     1.089     1.018 -0.2679  0.9525 -0.1450
 
              Baa    -0.0034    -1.817    -0.648    -0.606 -0.2585 -0.2644  0.9291
    58 H(1)   Bbb    -0.0027    -1.434    -0.512    -0.478  0.9226  0.2176  0.3186
              Bcc     0.0061     3.250     1.160     1.084 -0.2864  0.9396  0.1877
 
              Baa    -0.0023    -1.227    -0.438    -0.409 -0.0138 -0.0128  0.9998
    59 H(1)   Bbb    -0.0014    -0.754    -0.269    -0.252  0.9764  0.2154  0.0162
              Bcc     0.0037     1.981     0.707     0.661 -0.2155  0.9765  0.0095
 
              Baa    -0.0039    -0.523    -0.187    -0.175  0.1774 -0.0577  0.9824
    60 C(13)  Bbb    -0.0027    -0.364    -0.130    -0.121  0.9804 -0.0769 -0.1815
              Bcc     0.0066     0.887     0.317     0.296  0.0861  0.9954  0.0429
 
              Baa    -0.0039    -2.060    -0.735    -0.687  0.0070  0.1268  0.9919
    61 H(1)   Bbb    -0.0027    -1.457    -0.520    -0.486  0.9740 -0.2256  0.0220
              Bcc     0.0066     3.517     1.255     1.173  0.2265  0.9659 -0.1251
 
              Baa    -0.0025    -1.358    -0.484    -0.453  0.2164 -0.0748  0.9734
    62 H(1)   Bbb    -0.0024    -1.259    -0.449    -0.420  0.9752 -0.0318 -0.2192
              Bcc     0.0049     2.617     0.934     0.873  0.0473  0.9967  0.0660
 
              Baa    -0.0041    -2.180    -0.778    -0.727  0.0583 -0.2910  0.9549
    63 H(1)   Bbb    -0.0029    -1.531    -0.546    -0.511  0.9782 -0.1744 -0.1129
              Bcc     0.0070     3.711     1.324     1.238  0.1994  0.9407  0.2745
 
              Baa    -0.0018    -0.245    -0.088    -0.082 -0.6438  0.7623  0.0671
    64 C(13)  Bbb    -0.0017    -0.230    -0.082    -0.077  0.7576  0.6473 -0.0838
              Bcc     0.0035     0.475     0.170     0.159  0.1073  0.0031  0.9942
 
              Baa    -0.0014    -0.770    -0.275    -0.257 -0.5933  0.8025 -0.0636
    65 H(1)   Bbb    -0.0013    -0.719    -0.257    -0.240  0.8040  0.5868 -0.0961
              Bcc     0.0028     1.489     0.531     0.497  0.0398  0.1081  0.9933
 
              Baa    -0.0018    -0.942    -0.336    -0.314 -0.6711  0.7256  0.1521
    66 H(1)   Bbb    -0.0016    -0.876    -0.313    -0.292  0.7001  0.6877 -0.1919
              Bcc     0.0034     1.818     0.649     0.606  0.2439  0.0223  0.9696
 
              Baa    -0.0014    -0.772    -0.275    -0.257 -0.5607  0.8156  0.1429
    67 H(1)   Bbb    -0.0014    -0.727    -0.259    -0.243  0.8236  0.5672 -0.0054
              Bcc     0.0028     1.499     0.535     0.500  0.0854 -0.1147  0.9897
 
              Baa    -0.0039    -0.149    -0.053    -0.050  0.9528 -0.2061  0.2228
    68 N(14)  Bbb    -0.0023    -0.089    -0.032    -0.030  0.2079  0.9780  0.0159
              Bcc     0.0062     0.238     0.085     0.079 -0.2211  0.0312  0.9747
 
              Baa    -0.0023    -1.244    -0.444    -0.415  0.7050 -0.6907  0.1609
    69 H(1)   Bbb    -0.0021    -1.129    -0.403    -0.377  0.6554  0.7213  0.2240
              Bcc     0.0044     2.373     0.847     0.791 -0.2708 -0.0525  0.9612
 
              Baa    -0.0035    -0.470    -0.168    -0.157  0.8459 -0.5311 -0.0486
    70 C(13)  Bbb    -0.0029    -0.390    -0.139    -0.130  0.5310  0.8472 -0.0178
              Bcc     0.0064     0.860     0.307     0.287  0.0506 -0.0108  0.9987
 
              Baa    -0.0079    -1.054    -0.376    -0.352  0.8056  0.5080  0.3049
    71 C(13)  Bbb    -0.0054    -0.724    -0.258    -0.241 -0.4628  0.8609 -0.2115
              Bcc     0.0132     1.778     0.634     0.593 -0.3699  0.0293  0.9286
 
              Baa    -0.0063    -3.380    -1.206    -1.127  0.7080 -0.5884  0.3906
    72 H(1)   Bbb    -0.0057    -3.031    -1.082    -1.011  0.4596  0.8037  0.3778
              Bcc     0.0120     6.412     2.288     2.139 -0.5362 -0.0879  0.8395
 
              Baa    -0.0167    -0.645    -0.230    -0.215  0.8215 -0.5651  0.0759
    73 N(14)  Bbb    -0.0133    -0.513    -0.183    -0.171  0.5628  0.8250  0.0503
              Bcc     0.0300     1.158     0.413     0.386 -0.0910  0.0014  0.9959
 
              Baa    -0.0069    -0.920    -0.328    -0.307 -0.1135  0.9932  0.0252
    74 C(13)  Bbb    -0.0063    -0.846    -0.302    -0.282  0.9738  0.1163 -0.1953
              Bcc     0.0132     1.767     0.630     0.589  0.1969 -0.0024  0.9804
 
              Baa    -0.0067    -3.579    -1.277    -1.194  0.7347 -0.6262 -0.2610
    75 H(1)   Bbb    -0.0057    -3.029    -1.081    -1.010  0.5646  0.7776 -0.2765
              Bcc     0.0124     6.608     2.358     2.204  0.3761  0.0558  0.9249
 
              Baa    -0.9272    67.095    23.941    22.381 -0.3330 -0.2681  0.9040
    76 O(17)  Bbb    -0.8581    62.095    22.157    20.713  0.5309  0.7390  0.4147
              Bcc     1.7854  -129.190   -46.098   -43.093  0.7793 -0.6180  0.1037
 
              Baa    -1.2552    90.825    32.409    30.296 -0.0657  0.0868  0.9941
    77 O(17)  Bbb    -1.0356    74.939    26.740    24.997  0.6226  0.7821 -0.0271
              Bcc     2.2908  -165.764   -59.149   -55.293  0.7798 -0.6171  0.1054
 

 ---------------------------------------------------------------------------------

 Unable to Open any file for archive entry.
 1\1\GINC-BGN1014\SP\UAPFD\Gen\C34H34Fe1N6O2(5)\BEBJONES\14-Aug-2024\0\
 \# apfd/gen scf=maxcycle=999 geom=check\\1f65_II_Q\\0,5\Fe,0,34.938874
 2567,4.0946058642,10.0692608054\N,0,36.8797114672,3.8472753409,9.49618
 42624\N,0,34.6823138434,5.393336322,8.5387651915\N,0,33.0541239483,4.3
 771172095,10.6877748851\N,0,35.2684189709,2.8472773299,11.6393026134\C
 ,0,37.7886245296,3.0224120155,10.0725279198\C,0,39.0202717595,3.026145
 0881,9.3130407987\C,0,38.8252918718,3.8755149179,8.2677513279\C,0,37.4
 769560567,4.3832874997,8.3998879457\C,0,35.582201168,5.7191035528,7.57
 75569813\C,0,34.9789404532,6.59998714,6.605870115\C,0,33.6898607746,6.
 8068181343,7.0203414153\C,0,33.5273786981,6.0268923394,8.2329231951\C,
 0,32.1887246606,5.291496106,10.1653337946\C,0,31.040905493,5.441455779
 5,11.0190235997\C,0,31.2375016045,4.595848894,12.0809996101\C,0,32.512
 4387257,3.9526286887,11.8533582329\C,0,34.3919935081,2.5833965297,12.6
 440860146\C,0,35.0381474192,1.7990339561,13.6772162131\C,0,36.32252274
 62,1.6146216211,13.2717012227\C,0,36.445917384,2.2785763849,11.9904940
 723\C,0,37.6106450042,2.3124423001,11.2459608888\H,0,38.4574599754,1.7
 603689617,11.6235408275\C,0,36.8895937938,5.2659978799,7.5118502498\H,
 0,37.500591583,5.6207861798,6.6954973999\C,0,32.3645601323,5.983469955
 1,8.9801406238\H,0,31.5512361697,6.6131957328,8.6523076371\C,0,33.0861
 042805,3.0291045879,12.7157881928\H,0,32.5069871444,2.732654091,13.577
 4517329\C,0,39.7580632857,4.2413837244,7.163167997\H,0,40.71402468,3.7
 385428593,7.2816739526\H,0,39.9322252066,5.3176271557,7.1561800315\H,0
 ,39.3394162331,3.9587989612,6.1955470707\C,0,40.2237719977,2.215880072
 ,9.6573564432\H,0,39.9637347546,1.1622555426,9.7623283862\H,0,40.65215
 19859,2.5554478687,10.6001930789\H,0,40.9837721548,2.3055203987,8.8846
 757425\C,0,35.6509630507,7.1009162824,5.3766812692\H,0,36.2717453772,6
 .3231828275,4.9341838626\H,0,36.2898399085,7.9543829149,5.6056878609\H
 ,0,34.907758953,7.4125019396,4.6450248818\C,0,32.6540630197,7.61188735
 78,6.410403921\H,0,31.6432653202,7.2353111482,6.5136161879\C,0,32.8569
 530904,8.7567090332,5.766508319\H,0,33.8337965555,9.2002831965,5.68662
 21257\H,0,32.0414766611,9.3087126595,5.3305045101\C,0,29.9444433093,6.
 4230166603,10.8057247741\H,0,29.2404250985,6.0746993607,10.0584597403\
 H,0,30.3489214292,7.3697586442,10.4746145997\H,0,29.4054387065,6.58947
 56439,11.7297063521\C,0,30.4112760902,4.3936482574,13.251836888\H,0,30
 .9442291963,4.2514270375,14.1772321407\C,0,29.0788132422,4.3737850219,
 13.2598147462\H,0,28.5099228212,4.4638124775,12.3535548194\H,0,28.5188
 575197,4.2406590568,14.1700729462\C,0,34.3767835645,1.382994646,14.946
 0131221\H,0,33.4871519878,0.7873226579,14.7425585546\H,0,34.0738993278
 ,2.2618540141,15.5160038672\H,0,35.0529512709,0.7946026288,15.56116176
 69\C,0,37.4412023902,0.9226294317,13.9709559688\H,0,37.8209662889,0.09
 48483792,13.3719812446\H,0,37.1116449248,0.5303595136,14.9296058108\H,
 0,38.261344983,1.6178458917,14.1486586998\C,0,31.9935998965,-0.1149129
 344,7.2165911454\H,0,32.0273466077,-0.1352338727,6.1270503052\H,0,31.0
 232245372,0.2595196729,7.5273382282\H,0,32.105861547,-1.136901416,7.57
 88833751\N,0,34.3959755403,0.5094400043,7.54211397\H,0,34.7697990468,-
 0.2584237387,7.007862101\C,0,33.0649196783,0.7562389064,7.7615934618\C
 ,0,35.0998936491,1.4741307849,8.1713844957\H,0,36.1692076553,1.5313872
 69,8.1717097085\N,0,34.3027520544,2.3169967289,8.7740956908\C,0,33.033
 1241428,1.8862383632,8.529566804\H,0,32.1881611357,2.414143235,8.92072
 90366\O,0,35.457189664,5.3126073958,11.0996443605\O,0,34.853353037,6.4
 408359331,11.1031878658\\Version=ES64L-G16RevC.02\State=5-A\HF=-3057.1
 616836\S2=6.06913\S2-1=0.\S2A=6.001803\RMSD=5.468e-09\Dipole=0.053465,
 -3.0986017,-1.7384838\Quadrupole=-0.028548,-1.5946794,1.6232273,-2.427
 0592,-2.5541603,0.4260766\PG=C01 [X(C34H34Fe1N6O2)]\\@
 The archive entry for this job was punched.


 ACCORDING TO HEN3RY, LIFE IS MUCH LIKE A SEWER........
 YOU GET OUT OF IT JUST WHAT YOU PUT INTO IT...........
                         TOM LEHRER - (THE 3 IS SILENT)
 Job cpu time:       0 days  4 hours  1 minutes 32.5 seconds.
 Elapsed time:       0 days  0 hours  4 minutes 15.7 seconds.
 File lengths (MBytes):  RWF=    442 Int=      0 D2E=      0 Chk=    157 Scr=      1
 Normal termination of Gaussian 16 at Wed Aug 14 16:43:18 2024.
