 Entering Gaussian System, Link 0=g16
 Input=1fcs01.com
 Output=1fcs01.log
 Initial command:
 /sw/chem/gaussian/g16_C02/a100/g16/l1.exe "/local/bebjones_7975075/Gau-2806272.inp" -scrdir="/local/bebjones_7975075/"
 Entering Link 1 = /sw/chem/gaussian/g16_C02/a100/g16/l1.exe PID=   2806273.
  
 Copyright (c) 1988-2021, Gaussian, Inc.  All Rights Reserved.
  
 This is part of the Gaussian(R) 16 program.  It is based on
 the Gaussian(R) 09 system (copyright 2009, Gaussian, Inc.),
 the Gaussian(R) 03 system (copyright 2003, Gaussian, Inc.),
 the Gaussian(R) 98 system (copyright 1998, Gaussian, Inc.),
 the Gaussian(R) 94 system (copyright 1995, Gaussian, Inc.),
 the Gaussian 92(TM) system (copyright 1992, Gaussian, Inc.),
 the Gaussian 90(TM) system (copyright 1990, Gaussian, Inc.),
 the Gaussian 88(TM) system (copyright 1988, Gaussian, Inc.),
 the Gaussian 86(TM) system (copyright 1986, Carnegie Mellon
 University), and the Gaussian 82(TM) system (copyright 1983,
 Carnegie Mellon University). Gaussian is a federally registered
 trademark of Gaussian, Inc.
  
 This software contains proprietary and confidential information,
 including trade secrets, belonging to Gaussian, Inc.
  
 This software is provided under written license and may be
 used, copied, transmitted, or stored only in accord with that
 written license.
  
 The following legend is applicable only to US Government
 contracts under FAR:
  
                    RESTRICTED RIGHTS LEGEND
  
 Use, reproduction and disclosure by the US Government is
 subject to restrictions as set forth in subparagraphs (a)
 and (c) of the Commercial Computer Software - Restricted
 Rights clause in FAR 52.227-19.
  
 Gaussian, Inc.
 340 Quinnipiac St., Bldg. 40, Wallingford CT 06492
  
  
 ---------------------------------------------------------------
 Warning -- This program may not be used in any manner that
 competes with the business of Gaussian, Inc. or will provide
 assistance to any competitor of Gaussian, Inc.  The licensee
 of this program is prohibited from giving any competitor of
 Gaussian, Inc. access to this program.  By using this program,
 the user acknowledges that Gaussian, Inc. is engaged in the
 business of creating and licensing software in the field of
 computational chemistry and represents and warrants to the
 licensee that it is not a competitor of Gaussian, Inc. and that
 it will not use this program in any manner prohibited above.
 ---------------------------------------------------------------
  

 Cite this work as:
 Gaussian 16, Revision C.02,
 M. J. Frisch, G. W. Trucks, H. B. Schlegel, G. E. Scuseria, 
 M. A. Robb, J. R. Cheeseman, G. Scalmani, V. Barone, 
 G. A. Petersson, H. Nakatsuji, X. Li, M. Caricato, A. V. Marenich, 
 J. Bloino, B. G. Janesko, R. Gomperts, B. Mennucci, H. P. Hratchian, 
 J. V. Ortiz, A. F. Izmaylov, J. L. Sonnenberg, D. Williams-Young, 
 F. Ding, F. Lipparini, F. Egidi, J. Goings, B. Peng, A. Petrone, 
 T. Henderson, D. Ranasinghe, V. G. Zakrzewski, J. Gao, N. Rega, 
 G. Zheng, W. Liang, M. Hada, M. Ehara, K. Toyota, R. Fukuda, 
 J. Hasegawa, M. Ishida, T. Nakajima, Y. Honda, O. Kitao, H. Nakai, 
 T. Vreven, K. Throssell, J. A. Montgomery, Jr., J. E. Peralta, 
 F. Ogliaro, M. J. Bearpark, J. J. Heyd, E. N. Brothers, K. N. Kudin, 
 V. N. Staroverov, T. A. Keith, R. Kobayashi, J. Normand, 
 K. Raghavachari, A. P. Rendell, J. C. Burant, S. S. Iyengar, 
 J. Tomasi, M. Cossi, J. M. Millam, M. Klene, C. Adamo, R. Cammi, 
 J. W. Ochterski, R. L. Martin, K. Morokuma, O. Farkas, 
 J. B. Foresman, and D. J. Fox, Gaussian, Inc., Wallingford CT, 2019.
 
 ******************************************
 Gaussian 16:  ES64L-G16RevC.02  7-Dec-2021
                12-Aug-2024 
 ******************************************
 %mem=16GB
 %CPU=0-71
 SetSPE:  set environment variable "OMP_PROC_BIND" = "true"
 SetSPE:  set environment variable "OMP_PLACES" = "{0},{1},{2},{3},{4},{5},{6},{7},{8},{9},{10},{11},{12},{13},{14},{15},{16},{17},{18},{19},{20},{21},{22},{23},{24},{25},{26},{27},{28},{29},{30},{31},{32},{33},{34},{35},{36},{37},{38},{39},{40},{41},{42},{43},{44},{45},{46},{47},{48},{49},{50},{51},{52},{53},{54},{55},{56},{57},{58},{59},{60},{61},{62},{63},{64},{65},{66},{67},{68},{69},{70},{71}"
 Will use up to   72 processors via shared memory.
 %gpucpu=0,1,2,3=0,1,2,3
 Will use    4 GPUs:
 Thread  CPU   GPU
      0    0     0
      1    1     1
      2    2     2
      3    3     3
      4    4    -1
      5    5    -1
      6    6    -1
      7    7    -1
      8    8    -1
      9    9    -1
     10   10    -1
     11   11    -1
     12   12    -1
     13   13    -1
     14   14    -1
     15   15    -1
     16   16    -1
     17   17    -1
     18   18    -1
     19   19    -1
     20   20    -1
     21   21    -1
     22   22    -1
     23   23    -1
     24   24    -1
     25   25    -1
     26   26    -1
     27   27    -1
     28   28    -1
     29   29    -1
     30   30    -1
     31   31    -1
     32   32    -1
     33   33    -1
     34   34    -1
     35   35    -1
     36   36    -1
     37   37    -1
     38   38    -1
     39   39    -1
     40   40    -1
     41   41    -1
     42   42    -1
     43   43    -1
     44   44    -1
     45   45    -1
     46   46    -1
     47   47    -1
     48   48    -1
     49   49    -1
     50   50    -1
     51   51    -1
     52   52    -1
     53   53    -1
     54   54    -1
     55   55    -1
     56   56    -1
     57   57    -1
     58   58    -1
     59   59    -1
     60   60    -1
     61   61    -1
     62   62    -1
     63   63    -1
     64   64    -1
     65   65    -1
     66   66    -1
     67   67    -1
     68   68    -1
     69   69    -1
     70   70    -1
     71   71    -1
 SetGPE:  set environment variable "OMP_PROC_BIND" = "true"
 SetGPE:  set environment variable "OMP_PLACES" = "{0},{1},{2},{3},{4},{5},{6},{7},{8},{9},{10},{11},{12},{13},{14},{15},{16},{17},{18},{19},{20},{21},{22},{23},{24},{25},{26},{27},{28},{29},{30},{31},{32},{33},{34},{35},{36},{37},{38},{39},{40},{41},{42},{43},{44},{45},{46},{47},{48},{49},{50},{51},{52},{53},{54},{55},{56},{57},{58},{59},{60},{61},{62},{63},{64},{65},{66},{67},{68},{69},{70},{71}"
 %chk=1fcs_II_O.chk
 Properties for Device   0
 Minimum vector length:                              32
 Maximum vector length:                            1024
 Number of SMPs:                                    108
 Maximum number of threads per SMP:                2048
 Number of ASync Engines:                             5
 Memory:                                           9207742464
 Properties for Device   1
 Minimum vector length:                              32
 Maximum vector length:                            1024
 Number of SMPs:                                    108
 Maximum number of threads per SMP:                2048
 Number of ASync Engines:                             5
 Memory:                                           9207742464
 Properties for Device   2
 Minimum vector length:                              32
 Maximum vector length:                            1024
 Number of SMPs:                                    108
 Maximum number of threads per SMP:                2048
 Number of ASync Engines:                             5
 Memory:                                           9207742464
 Properties for Device   3
 Minimum vector length:                              32
 Maximum vector length:                            1024
 Number of SMPs:                                    108
 Maximum number of threads per SMP:                2048
 Number of ASync Engines:                             5
 Memory:                                           9207742464
   8286968217 words of memory will be used on each GPU.
 ------------------------------------------
 # polar def2tzvp apfd int=(grid=ultrafine)
 ------------------------------------------
 1/38=1,172=1/1;
 2/12=2,17=6,18=5,40=1/2;
 3/5=44,7=101,11=2,25=1,30=1,74=-44,75=-5/1,2,3;
 4//1;
 5/5=2,38=5,98=1/2;
 8/6=4,10=90,11=11/1;
 10/6=1,13=10/2;
 6/7=2,8=2,9=2,10=2,28=1/1;
 99/5=1,9=1/99;
 ---------
 1fcs_II_S
 ---------
 Symbolic Z-matrix:
 Charge =  0 Multiplicity = 1
 Fe                    35.19586   4.45844   10.08547 
 N                     37.16509   4.26377   9.76434 
 N                     35.63483   3.4267    11.87404 
 N                     33.42939   4.91821   11.01611 
 N                     34.80913   5.61963   8.65236 
 C                     37.69943   4.7353    8.59439 
 C                     39.05681   4.26636   8.4269 
 C                     39.33536   3.50453   9.51995 
 C                     38.14595   3.52291   10.3363 
 C                     36.81923   2.86899   12.27061 
 C                     36.66089   2.08988   13.4768 
 C                     35.37259   2.26176   13.86873 
 C                     34.75222   3.09683   12.86288 
 C                     32.82255   4.38147   12.10071 
 C                     31.5255   4.98373   12.32687 
 C                     31.30926   5.81861   11.26182 
 C                     32.4977   5.75432   10.45048 
 C                     33.75512   6.45186   8.44473 
 C                     33.88867   7.13565   7.17303 
 C                     35.14048   6.82152   6.70988 
 C                     35.72682   5.93322   7.68458 
 C                     37.0507   5.52726   7.66196 
 H                     37.64244   5.86095   6.82213 
 C                     37.99837   2.87569   11.54537 
 H                     38.84594   2.34418   11.94932 
 C                     33.4448   3.52109   12.98054 
 H                     32.88459   3.17751   13.8358 
 C                     32.63903   6.46321   9.26396 
 H                     31.82834   7.12226   8.99085 
 C                     39.92742   4.59139   7.26205 
 H                     40.06944   5.66902   7.17994 
 H                     39.47614   4.2378    6.3347 
 H                     40.90399   4.12534   7.36767 
 C                     40.58337   2.77385   9.87917 
 H                     40.38387   1.70916   10.00461 
 H                     40.98982   3.15293   10.81709 
 H                     41.33859   2.89257   9.10624 
 C                     35.78533   7.22777   5.43117 
 H                     36.39112   6.4161    5.03134 
 H                     36.43359   8.09297   5.57972 
 H                     35.02588   7.49084   4.69764 
 C                     32.87471   7.99197   6.60004 
 H                     31.85303   7.73094   6.85113 
 C                     33.09332   9.04692   5.82103 
 H                     34.08406   9.38777   5.57858 
 H                     32.27807   9.62711   5.42149 
 C                     30.09317   6.61834   10.94866 
 H                     29.86417   6.57215   9.88486 
 H                     30.23595   7.66595   11.21801 
 H                     29.24084   6.23283   11.50413 
 C                     30.65608   4.6675    13.43799 
 H                     30.71744   3.64972   13.806 
 C                     29.82318   5.5176    14.02959 
 H                     29.75758   6.55149   13.739 
 H                     29.19411   5.21111   14.84886 
 C                     34.66897   1.71092   15.0612 
 H                     34.32628   2.51845   15.70904 
 H                     35.33239   1.07001   15.6372 
 H                     33.8001   1.12446   14.7606 
 C                     37.75869   1.33032   14.13958 
 H                     38.15074   0.56045   13.47406 
 H                     37.40098   0.84816   15.04594 
 H                     38.579    1.99668   14.40687 
 C                     32.27556   0.6283    7.2631 
 H                     32.6567   0.27379   6.30537 
 H                     31.44602   1.30377   7.07874 
 H                     31.90854  -0.23144   7.82335 
 N                     34.49148   0.72171   8.42474 
 H                     34.73328  -0.24108   8.2566 
 C                     33.33559   1.33754   8.02291 
 C                     35.23559   1.63589   9.08812 
 H                     36.1951   1.43198   9.51927 
 N                     34.62153   2.7964    9.13153 
 C                     33.43716   2.6238    8.46979 
 H                     32.74293   3.4329    8.36438 
 
 Stoichiometry    C34H34FeN6
 Framework group  C1[X(C34H34FeN6)]
 Deg. of freedom   219
 Full point group                 C1      NOp   1
 Largest Abelian subgroup         C1      NOp   1
 Largest concise Abelian subgroup C1      NOp   1
                         Standard orientation:                         
 ---------------------------------------------------------------------
 Center     Atomic      Atomic             Coordinates (Angstroms)
 Number     Number       Type             X           Y           Z
 ---------------------------------------------------------------------
      1         26           0        0.127572   -0.151836   -0.284538
      2          7           0        1.601865   -1.456193   -0.664046
      3          7           0        1.665184    1.276295   -0.513387
      4          7           0       -1.126227    1.455516   -0.490245
      5          7           0       -1.317033   -1.360156   -0.353809
      6          6           0        1.326543   -2.797975   -0.642686
      7          6           0        2.548256   -3.570828   -0.665959
      8          6           0        3.568787   -2.670994   -0.705426
      9          6           0        2.953905   -1.365854   -0.707833
     10          6           0        3.006058    1.068518   -0.686540
     11          6           0        3.748014    2.305988   -0.614791
     12          6           0        2.823102    3.292099   -0.492411
     13          6           0        1.535824    2.633720   -0.433999
     14          6           0       -0.899278    2.786496   -0.391876
     15          6           0       -2.129143    3.538814   -0.524699
     16          6           0       -3.133624    2.608122   -0.579010
     17          6           0       -2.492134    1.318961   -0.542388
     18          6           0       -2.645936   -1.144172   -0.538217
     19          6           0       -3.376618   -2.395845   -0.493069
     20          6           0       -2.425115   -3.382429   -0.454415
     21          6           0       -1.144799   -2.716414   -0.443150
     22          6           0        0.067967   -3.371657   -0.576720
     23          1           0        0.029404   -4.449811   -0.630930
     24          6           0        3.631514   -0.165056   -0.745787
     25          1           0        4.707340   -0.185590   -0.824702
     26          6           0        0.358886    3.350418   -0.368094
     27          1           0        0.432106    4.425649   -0.324846
     28          6           0       -3.200792    0.124081   -0.562324
     29          1           0       -4.273621    0.195731   -0.662639
     30          6           0        2.608983   -5.059622   -0.649553
     31          1           0        2.086459   -5.473005   -1.512277
     32          1           0        2.138531   -5.453366    0.251731
     33          1           0        3.639659   -5.404584   -0.677074
     34          6           0        5.040565   -2.900634   -0.745359
     35          1           0        5.528027   -2.424120    0.105770
     36          1           0        5.466868   -2.479882   -1.656301
     37          1           0        5.268238   -3.963363   -0.720222
     38          6           0       -2.619556   -4.855638   -0.366066
     39          1           0       -1.853911   -5.307367    0.262742
     40          1           0       -2.561748   -5.315909   -1.353835
     41          1           0       -3.596343   -5.078051    0.058717
     42          6           0       -4.818203   -2.497358   -0.528568
     43          1           0       -5.351561   -1.663360   -0.087004
     44          6           0       -5.517261   -3.499301   -1.052964
     45          1           0       -5.048547   -4.329143   -1.551158
     46          1           0       -6.594353   -3.505475   -1.026187
     47          6           0       -4.603565    2.839153   -0.627973
     48          1           0       -5.126509    2.136625    0.019511
     49          1           0       -4.984379    2.710986   -1.642359
     50          1           0       -4.832608    3.850622   -0.299184
     51          6           0       -2.212892    4.982235   -0.521716
     52          1           0       -1.469686    5.493419    0.079459
     53          6           0       -3.102681    5.702845   -1.196530
     54          1           0       -3.830642    5.251265   -1.847554
     55          1           0       -3.114595    6.778752   -1.140469
     56          6           0        3.023377    4.765969   -0.402540
     57          1           0        2.545519    5.268180   -1.244364
     58          1           0        4.082677    5.011672   -0.415676
     59          1           0        2.590757    5.159398    0.517944
     60          6           0        5.230488    2.407606   -0.730232
     61          1           0        5.718198    1.854455    0.073196
     62          1           0        5.551119    3.444891   -0.674019
     63          1           0        5.570331    1.994957   -1.680286
     64          6           0       -0.932645    0.200824    5.184967
     65          1           0       -0.787895   -0.681224    5.808854
     66          1           0       -1.997354    0.349121    5.034052
     67          1           0       -0.531245    1.063710    5.716043
     68          7           0        1.091486   -0.139732    3.751309
     69          1           0        1.749830   -0.167258    4.512571
     70          6           0       -0.262204    0.033456    3.870999
     71          6           0        1.376287   -0.258316    2.434371
     72          1           0        2.363397   -0.401604    2.042964
     73          7           0        0.283973   -0.171152    1.709800
     74          6           0       -0.744030    0.009172    2.593614
     75          1           0       -1.753556    0.111060    2.249821
 ---------------------------------------------------------------------
 Rotational constants (GHZ):           0.0930149           0.0922520           0.0593919
 Standard basis: def2TZVP (5D, 7F)
 There are  1696 symmetry adapted cartesian basis functions of A   symmetry.
 There are  1489 symmetry adapted basis functions of A   symmetry.
  1489 basis functions,  2414 primitive gaussians,  1696 cartesian basis functions
   153 alpha electrons      153 beta electrons
       nuclear repulsion energy      5555.8771811345 Hartrees.
 NAtoms=   75 NActive=   75 NUniq=   75 SFac= 1.00D+00 NAtFMM=   60 NAOKFM=T Big=T
 Integral buffers will be    131072 words long.
 Raffenetti 2 integral format.
 Two-electron integral symmetry is turned on.
 R6APFD:  NTU= -4 IXU= 1 FactS= 1.050
 Nuclear repulsion after empirical dispersion term =     5555.7416156184 Hartrees.
 One-electron integrals computed using PRISM.
   1 Symmetry operations used in ECPInt.
 ECPInt:  NShTT=  174936 NPrTT=  542361 LenC2=  137070 LenP2D=  281213.
 LDataN:  DoStor=T MaxTD1= 6 Len=  172
 Number of processors reduced to  24 by ecpmxn.
 NBasis=  1489 RedAO= T EigKep=  3.84D-06  NBF=  1489
 NBsUse=  1489 1.00D-06 EigRej= -1.00D+00 NBFU=  1489
 ExpMin= 4.20D-02 ExpMax= 3.01D+05 ExpMxC= 2.91D+03 IAcc=3 IRadAn=         5 AccDes= 0.00D+00
 Harris functional with IExCor= 3731 and IRadAn=       5 diagonalized for initial guess.
 HarFok:  IExCor= 3731 AccDes= 0.00D+00 IRadAn=         5 IDoV= 1 UseB2=F ITyADJ=14
 ICtDFT=  3500011 ScaDFX=  1.000000  1.000000  1.000000  1.000000
 FoFCou: FMM=F IPFlag=           0 FMFlag=      100000 FMFlg1=        2001
         NFxFlg=           0 DoJE=T BraDBF=F KetDBF=T FulRan=T
         wScrn=  0.000000 ICntrl=       500 IOpCl=  0 I1Cent=   200000004 NGrid=           0
         NMat0=    1 NMatS0=      1 NMatT0=    0 NMatD0=    1 NMtDS0=    0 NMtDT0=    0
 Petite list used in FoFCou.
 Requested convergence on RMS density matrix=1.00D-08 within 128 cycles.
 Requested convergence on MAX density matrix=1.00D-06.
 Requested convergence on             energy=1.00D-06.
 No special actions if energy rises.
 EnCoef did     5 forward-backward iterations
 EnCoef did   100 forward-backward iterations
 EnCoef did   100 forward-backward iterations
 EnCoef did   100 forward-backward iterations
 EnCoef did     6 forward-backward iterations
 EnCoef did     3 forward-backward iterations
 Restarting incremental Fock formation.
 SCF Done:  E(RAPFD) =  -2907.58753905     A.U. after   31 cycles
            NFock= 31  Conv=0.21D-08     -V/T= 2.0035
 DoSCS=F DFT=T ScalE2(SS,OS)=  1.000000  1.000000
 Range of M.O.s used for correlation:     1  1489
 NBasis=  1489 NAE=   153 NBE=   153 NFC=     0 NFV=     0
 NROrb=   1489 NOA=   153 NOB=   153 NVA=  1336 NVB=  1336

 **** Warning!!: The largest alpha MO coefficient is  0.55089064D+02

          Differentiating once with respect to electric field.
                with respect to dipole field.
          Electric field/nuclear overlap derivatives assumed to be zero.
          There are     3 degrees of freedom in the 1st order CPHF.  IDoFFX=0 NUNeed=     3.
      3 vectors produced by pass  0 Test12= 6.81D-12 3.33D-08 XBig12= 1.88D+03 2.94D+01.
 AX will form     3 AO Fock derivatives at one time.
      3 vectors produced by pass  1 Test12= 6.81D-12 3.33D-08 XBig12= 1.18D+03 9.03D+00.
      3 vectors produced by pass  2 Test12= 6.81D-12 3.33D-08 XBig12= 3.25D+02 4.83D+00.
      3 vectors produced by pass  3 Test12= 6.81D-12 3.33D-08 XBig12= 2.27D+02 3.41D+00.
      3 vectors produced by pass  4 Test12= 6.81D-12 3.33D-08 XBig12= 1.62D+02 2.12D+00.
      3 vectors produced by pass  5 Test12= 6.81D-12 3.33D-08 XBig12= 6.15D+01 2.04D+00.
      3 vectors produced by pass  6 Test12= 6.81D-12 3.33D-08 XBig12= 4.83D+01 2.23D+00.
      3 vectors produced by pass  7 Test12= 6.81D-12 3.33D-08 XBig12= 2.14D+01 1.98D+00.
      3 vectors produced by pass  8 Test12= 6.81D-12 3.33D-08 XBig12= 1.35D+01 1.26D+00.
      3 vectors produced by pass  9 Test12= 6.81D-12 3.33D-08 XBig12= 9.58D+00 8.18D-01.
      3 vectors produced by pass 10 Test12= 6.81D-12 3.33D-08 XBig12= 2.71D+00 3.69D-01.
      3 vectors produced by pass 11 Test12= 6.81D-12 3.33D-08 XBig12= 1.25D+00 1.84D-01.
      3 vectors produced by pass 12 Test12= 6.81D-12 3.33D-08 XBig12= 5.52D-01 1.86D-01.
      3 vectors produced by pass 13 Test12= 6.81D-12 3.33D-08 XBig12= 2.77D-01 1.51D-01.
      3 vectors produced by pass 14 Test12= 6.81D-12 3.33D-08 XBig12= 1.26D-01 8.41D-02.
      3 vectors produced by pass 15 Test12= 6.81D-12 3.33D-08 XBig12= 5.02D-02 3.65D-02.
      3 vectors produced by pass 16 Test12= 6.81D-12 3.33D-08 XBig12= 1.45D-02 1.85D-02.
      3 vectors produced by pass 17 Test12= 6.81D-12 3.33D-08 XBig12= 5.09D-03 1.02D-02.
      3 vectors produced by pass 18 Test12= 6.81D-12 3.33D-08 XBig12= 1.73D-03 7.59D-03.
      3 vectors produced by pass 19 Test12= 6.81D-12 3.33D-08 XBig12= 2.93D-04 3.43D-03.
      3 vectors produced by pass 20 Test12= 6.81D-12 3.33D-08 XBig12= 6.67D-05 1.73D-03.
      3 vectors produced by pass 21 Test12= 6.81D-12 3.33D-08 XBig12= 1.33D-05 7.16D-04.
      3 vectors produced by pass 22 Test12= 6.81D-12 3.33D-08 XBig12= 4.90D-06 4.81D-04.
      3 vectors produced by pass 23 Test12= 6.81D-12 3.33D-08 XBig12= 5.77D-07 1.30D-04.
      3 vectors produced by pass 24 Test12= 6.81D-12 3.33D-08 XBig12= 1.14D-07 5.02D-05.
      3 vectors produced by pass 25 Test12= 6.81D-12 3.33D-08 XBig12= 2.11D-08 1.45D-05.
      3 vectors produced by pass 26 Test12= 6.81D-12 3.33D-08 XBig12= 3.39D-09 9.67D-06.
      3 vectors produced by pass 27 Test12= 6.81D-12 3.33D-08 XBig12= 7.57D-10 2.42D-06.
      3 vectors produced by pass 28 Test12= 6.81D-12 3.33D-08 XBig12= 8.32D-11 1.12D-06.
      3 vectors produced by pass 29 Test12= 6.81D-12 3.33D-08 XBig12= 8.59D-12 6.32D-07.
      3 vectors produced by pass 30 Test12= 6.81D-12 3.33D-08 XBig12= 1.19D-12 2.77D-07.
      2 vectors produced by pass 31 Test12= 6.81D-12 3.33D-08 XBig12= 1.23D-13 1.01D-07.
      1 vectors produced by pass 32 Test12= 6.81D-12 3.33D-08 XBig12= 1.48D-14 3.48D-08.
 InvSVY:  IOpt=1 It=  1 EMax= 4.26D-14
 Solved reduced A of dimension    96 with     3 vectors.
 Isotropic polarizability for W=    0.000000      573.50 Bohr**3.
 End of Minotr F.D. properties file   721 does not exist.
 End of Minotr F.D. properties file   722 does not exist.
 End of Minotr F.D. properties file   788 does not exist.

 **********************************************************************

            Population analysis using the SCF Density.

 **********************************************************************

 Orbital symmetries:
       Occupied  (A) (A) (A) (A) (A) (A) (A) (A) (A) (A) (A) (A)
                 (A) (A) (A) (A) (A) (A) (A) (A) (A) (A) (A) (A)
                 (A) (A) (A) (A) (A) (A) (A) (A) (A) (A) (A) (A)
                 (A) (A) (A) (A) (A) (A) (A) (A) (A) (A) (A) (A)
                 (A) (A) (A) (A) (A) (A) (A) (A) (A) (A) (A) (A)
                 (A) (A) (A) (A) (A) (A) (A) (A) (A) (A) (A) (A)
                 (A) (A) (A) (A) (A) (A) (A) (A) (A) (A) (A) (A)
                 (A) (A) (A) (A) (A) (A) (A) (A) (A) (A) (A) (A)
                 (A) (A) (A) (A) (A) (A) (A) (A) (A) (A) (A) (A)
                 (A) (A) (A) (A) (A) (A) (A) (A) (A) (A) (A) (A)
                 (A) (A) (A) (A) (A) (A) (A) (A) (A) (A) (A) (A)
                 (A) (A) (A) (A) (A) (A) (A) (A) (A) (A) (A) (A)
                 (A) (A) (A) (A) (A) (A) (A) (A) (A)
       Virtual   (A) (A) (A) (A) (A) (A) (A) (A) (A) (A) (A) (A)
                 (A) (A) (A) (A) (A) (A) (A) (A) (A) (A) (A) (A)
                 (A) (A) (A) (A) (A) (A) (A) (A) (A) (A) (A) (A)
                 (A) (A) (A) (A) (A) (A) (A) (A) (A) (A) (A) (A)
                 (A) (A) (A) (A) (A) (A) (A) (A) (A) (A) (A) (A)
                 (A) (A) (A) (A) (A) (A) (A) (A) (A) (A) (A) (A)
                 (A) (A) (A) (A) (A) (A) (A) (A) (A) (A) (A) (A)
                 (A) (A) (A) (A) (A) (A) (A) (A) (A) (A) (A) (A)
                 (A) (A) (A) (A) (A) (A) (A) (A) (A) (A) (A) (A)
                 (A) (A) (A) (A) (A) (A) (A) (A) (A) (A) (A) (A)
                 (A) (A) (A) (A) (A) (A) (A) (A) (A) (A) (A) (A)
                 (A) (A) (A) (A) (A) (A) (A) (A) (A) (A) (A) (A)
                 (A) (A) (A) (A) (A) (A) (A) (A) (A) (A) (A) (A)
                 (A) (A) (A) (A) (A) (A) (A) (A) (A) (A) (A) (A)
                 (A) (A) (A) (A) (A) (A) (A) (A) (A) (A) (A) (A)
                 (A) (A) (A) (A) (A) (A) (A) (A) (A) (A) (A) (A)
                 (A) (A) (A) (A) (A) (A) (A) (A) (A) (A) (A) (A)
                 (A) (A) (A) (A) (A) (A) (A) (A) (A) (A) (A) (A)
                 (A) (A) (A) (A) (A) (A) (A) (A) (A) (A) (A) (A)
                 (A) (A) (A) (A) (A) (A) (A) (A) (A) (A) (A) (A)
                 (A) (A) (A) (A) (A) (A) (A) (A) (A) (A) (A) (A)
                 (A) (A) (A) (A) (A) (A) (A) (A) (A) (A) (A) (A)
                 (A) (A) (A) (A) (A) (A) (A) (A) (A) (A) (A) (A)
                 (A) (A) (A) (A) (A) (A) (A) (A) (A) (A) (A) (A)
                 (A) (A) (A) (A) (A) (A) (A) (A) (A) (A) (A) (A)
                 (A) (A) (A) (A) (A) (A) (A) (A) (A) (A) (A) (A)
                 (A) (A) (A) (A) (A) (A) (A) (A) (A) (A) (A) (A)
                 (A) (A) (A) (A) (A) (A) (A) (A) (A) (A) (A) (A)
                 (A) (A) (A) (A) (A) (A) (A) (A) (A) (A) (A) (A)
                 (A) (A) (A) (A) (A) (A) (A) (A) (A) (A) (A) (A)
                 (A) (A) (A) (A) (A) (A) (A) (A) (A) (A) (A) (A)
                 (A) (A) (A) (A) (A) (A) (A) (A) (A) (A) (A) (A)
                 (A) (A) (A) (A) (A) (A) (A) (A) (A) (A) (A) (A)
                 (A) (A) (A) (A) (A) (A) (A) (A) (A) (A) (A) (A)
                 (A) (A) (A) (A) (A) (A) (A) (A) (A) (A) (A) (A)
                 (A) (A) (A) (A) (A) (A) (A) (A) (A) (A) (A) (A)
                 (A) (A) (A) (A) (A) (A) (A) (A) (A) (A) (A) (A)
                 (A) (A) (A) (A) (A) (A) (A) (A) (A) (A) (A) (A)
                 (A) (A) (A) (A) (A) (A) (A) (A) (A) (A) (A) (A)
                 (A) (A) (A) (A) (A) (A) (A) (A) (A) (A) (A) (A)
                 (A) (A) (A) (A) (A) (A) (A) (A) (A) (A) (A) (A)
                 (A) (A) (A) (A) (A) (A) (A) (A) (A) (A) (A) (A)
                 (A) (A) (A) (A) (A) (A) (A) (A) (A) (A) (A) (A)
                 (A) (A) (A) (A) (A) (A) (A) (A) (A) (A) (A) (A)
                 (A) (A) (A) (A) (A) (A) (A) (A) (A) (A) (A) (A)
                 (A) (A) (A) (A) (A) (A) (A) (A) (A) (A) (A) (A)
                 (A) (A) (A) (A) (A) (A) (A) (A) (A) (A) (A) (A)
                 (A) (A) (A) (A) (A) (A) (A) (A) (A) (A) (A) (A)
                 (A) (A) (A) (A) (A) (A) (A) (A) (A) (A) (A) (A)
                 (A) (A) (A) (A) (A) (A) (A) (A) (A) (A) (A) (A)
                 (A) (A) (A) (A) (A) (A) (A) (A) (A) (A) (A) (A)
                 (A) (A) (A) (A) (A) (A) (A) (A) (A) (A) (A) (A)
                 (A) (A) (A) (A) (A) (A) (A) (A) (A) (A) (A) (A)
                 (A) (A) (A) (A) (A) (A) (A) (A) (A) (A) (A) (A)
                 (A) (A) (A) (A) (A) (A) (A) (A) (A) (A) (A) (A)
                 (A) (A) (A) (A) (A) (A) (A) (A) (A) (A) (A) (A)
                 (A) (A) (A) (A) (A) (A) (A) (A) (A) (A) (A) (A)
                 (A) (A) (A) (A) (A) (A) (A) (A) (A) (A) (A) (A)
                 (A) (A) (A) (A) (A) (A) (A) (A) (A) (A) (A) (A)
                 (A) (A) (A) (A) (A) (A) (A) (A) (A) (A) (A) (A)
                 (A) (A) (A) (A) (A) (A) (A) (A) (A) (A) (A) (A)
                 (A) (A) (A) (A) (A) (A) (A) (A) (A) (A) (A) (A)
                 (A) (A) (A) (A) (A) (A) (A) (A) (A) (A) (A) (A)
                 (A) (A) (A) (A) (A) (A) (A) (A) (A) (A) (A) (A)
                 (A) (A) (A) (A) (A) (A) (A) (A) (A) (A) (A) (A)
                 (A) (A) (A) (A) (A) (A) (A) (A) (A) (A) (A) (A)
                 (A) (A) (A) (A) (A) (A) (A) (A) (A) (A) (A) (A)
                 (A) (A) (A) (A) (A) (A) (A) (A) (A) (A) (A) (A)
                 (A) (A) (A) (A) (A) (A) (A) (A) (A) (A) (A) (A)
                 (A) (A) (A) (A) (A) (A) (A) (A) (A) (A) (A) (A)
                 (A) (A) (A) (A) (A) (A) (A) (A) (A) (A) (A) (A)
                 (A) (A) (A) (A) (A) (A) (A) (A) (A) (A) (A) (A)
                 (A) (A) (A) (A) (A) (A) (A) (A) (A) (A) (A) (A)
                 (A) (A) (A) (A) (A) (A) (A) (A) (A) (A) (A) (A)
                 (A) (A) (A) (A) (A) (A) (A) (A) (A) (A) (A) (A)
                 (A) (A) (A) (A) (A) (A) (A) (A) (A) (A) (A) (A)
                 (A) (A) (A) (A) (A) (A) (A) (A) (A) (A) (A) (A)
                 (A) (A) (A) (A) (A) (A) (A) (A) (A) (A) (A) (A)
                 (A) (A) (A) (A) (A) (A) (A) (A) (A) (A) (A) (A)
                 (A) (A) (A) (A) (A) (A) (A) (A) (A) (A) (A) (A)
                 (A) (A) (A) (A) (A) (A) (A) (A) (A) (A) (A) (A)
                 (A) (A) (A) (A) (A) (A) (A) (A) (A) (A) (A) (A)
                 (A) (A) (A) (A) (A) (A) (A) (A) (A) (A) (A) (A)
                 (A) (A) (A) (A) (A) (A) (A) (A) (A) (A) (A) (A)
                 (A) (A) (A) (A) (A) (A) (A) (A) (A) (A) (A) (A)
                 (A) (A) (A) (A) (A) (A) (A) (A) (A) (A) (A) (A)
                 (A) (A) (A) (A) (A) (A) (A) (A) (A) (A) (A) (A)
                 (A) (A) (A) (A) (A) (A) (A) (A) (A) (A) (A) (A)
                 (A) (A) (A) (A) (A) (A) (A) (A) (A) (A) (A) (A)
                 (A) (A) (A) (A) (A) (A) (A) (A) (A) (A) (A) (A)
                 (A) (A) (A) (A) (A) (A) (A) (A) (A) (A) (A) (A)
                 (A) (A) (A) (A) (A) (A) (A) (A) (A) (A) (A) (A)
                 (A) (A) (A) (A) (A) (A) (A) (A) (A) (A) (A) (A)
                 (A) (A) (A) (A) (A) (A) (A) (A) (A) (A) (A) (A)
                 (A) (A) (A) (A) (A) (A) (A) (A) (A) (A) (A) (A)
                 (A) (A) (A) (A) (A) (A) (A) (A) (A) (A) (A) (A)
                 (A) (A) (A) (A) (A) (A) (A) (A) (A) (A) (A) (A)
                 (A) (A) (A) (A) (A) (A) (A) (A) (A) (A) (A) (A)
                 (A) (A) (A) (A) (A) (A) (A) (A) (A) (A) (A) (A)
                 (A) (A) (A) (A) (A) (A) (A) (A) (A) (A) (A) (A)
                 (A) (A) (A) (A) (A) (A) (A) (A) (A) (A) (A) (A)
                 (A) (A) (A) (A) (A) (A) (A) (A) (A) (A) (A) (A)
                 (A) (A) (A) (A) (A) (A) (A) (A) (A) (A) (A) (A)
                 (A) (A) (A) (A) (A) (A) (A) (A) (A) (A) (A) (A)
                 (A) (A) (A) (A) (A) (A) (A) (A) (A) (A) (A) (A)
                 (A) (A) (A) (A) (A) (A) (A) (A) (A) (A) (A) (A)
                 (A) (A) (A) (A) (A) (A) (A) (A) (A) (A) (A) (A)
                 (A) (A) (A) (A) (A) (A) (A) (A) (A) (A) (A) (A)
                 (A) (A) (A) (A) (A) (A) (A) (A) (A) (A) (A) (A)
                 (A) (A) (A) (A) (A) (A) (A) (A) (A) (A) (A) (A)
                 (A) (A) (A) (A) (A) (A) (A) (A) (A) (A) (A) (A)
                 (A) (A) (A) (A)
 The electronic state is 1-A.
 Alpha  occ. eigenvalues -- -256.18261 -30.03152 -25.87353 -25.87026 -25.86769
 Alpha  occ. eigenvalues --  -14.42545 -14.37604 -14.34143 -14.33595 -14.33546
 Alpha  occ. eigenvalues --  -14.33286 -10.26391 -10.24513 -10.21692 -10.21672
 Alpha  occ. eigenvalues --  -10.21383 -10.21125 -10.21098 -10.21066 -10.21066
 Alpha  occ. eigenvalues --  -10.20974 -10.20916 -10.20805 -10.19681 -10.19594
 Alpha  occ. eigenvalues --  -10.19289 -10.19098 -10.18943 -10.18909 -10.18836
 Alpha  occ. eigenvalues --  -10.18819 -10.18792 -10.18770 -10.18755 -10.18682
 Alpha  occ. eigenvalues --  -10.18641 -10.18599 -10.18598 -10.18536 -10.18525
 Alpha  occ. eigenvalues --  -10.18507 -10.18359 -10.18287 -10.18258 -10.18145
 Alpha  occ. eigenvalues --   -3.41028  -2.17811  -2.17038  -2.16603  -1.06089
 Alpha  occ. eigenvalues --   -0.97037  -0.96109  -0.95963  -0.94895  -0.91698
 Alpha  occ. eigenvalues --   -0.82305  -0.81984  -0.81685  -0.80998  -0.80864
 Alpha  occ. eigenvalues --   -0.80461  -0.79683  -0.79676  -0.76843  -0.75735
 Alpha  occ. eigenvalues --   -0.74388  -0.74020  -0.73263  -0.72503  -0.71117
 Alpha  occ. eigenvalues --   -0.70300  -0.68410  -0.67998  -0.67952  -0.65335
 Alpha  occ. eigenvalues --   -0.64251  -0.64138  -0.62072  -0.60732  -0.60093
 Alpha  occ. eigenvalues --   -0.57974  -0.56693  -0.56549  -0.54603  -0.53661
 Alpha  occ. eigenvalues --   -0.53435  -0.52720  -0.51249  -0.51087  -0.50603
 Alpha  occ. eigenvalues --   -0.48871  -0.48476  -0.48214  -0.47919  -0.47256
 Alpha  occ. eigenvalues --   -0.45136  -0.44819  -0.44643  -0.44622  -0.44109
 Alpha  occ. eigenvalues --   -0.43943  -0.43853  -0.43527  -0.43448  -0.43227
 Alpha  occ. eigenvalues --   -0.43129  -0.43044  -0.42858  -0.42479  -0.42287
 Alpha  occ. eigenvalues --   -0.41832  -0.41617  -0.41462  -0.40546  -0.40333
 Alpha  occ. eigenvalues --   -0.40234  -0.39963  -0.39596  -0.39403  -0.39164
 Alpha  occ. eigenvalues --   -0.38631  -0.38341  -0.37894  -0.37703  -0.37240
 Alpha  occ. eigenvalues --   -0.37042  -0.36652  -0.36251  -0.36082  -0.35200
 Alpha  occ. eigenvalues --   -0.34574  -0.34401  -0.34286  -0.33804  -0.32745
 Alpha  occ. eigenvalues --   -0.31828  -0.31555  -0.30567  -0.30164  -0.29403
 Alpha  occ. eigenvalues --   -0.28976  -0.26913  -0.26721  -0.24989  -0.24370
 Alpha  occ. eigenvalues --   -0.23609  -0.22988  -0.22200  -0.19870  -0.18907
 Alpha  occ. eigenvalues --   -0.18495  -0.18133  -0.17900
 Alpha virt. eigenvalues --   -0.06786  -0.06605  -0.02091  -0.01834   0.00475
 Alpha virt. eigenvalues --    0.00703   0.02070   0.02252   0.03833   0.03868
 Alpha virt. eigenvalues --    0.04374   0.04933   0.05184   0.05692   0.05848
 Alpha virt. eigenvalues --    0.06127   0.07045   0.07378   0.07740   0.07976
 Alpha virt. eigenvalues --    0.08256   0.08774   0.09182   0.09377   0.09646
 Alpha virt. eigenvalues --    0.09983   0.10530   0.10924   0.11140   0.11268
 Alpha virt. eigenvalues --    0.11656   0.11768   0.11938   0.12050   0.12290
 Alpha virt. eigenvalues --    0.12530   0.12866   0.13013   0.13213   0.13561
 Alpha virt. eigenvalues --    0.13742   0.14047   0.14131   0.14438   0.14542
 Alpha virt. eigenvalues --    0.14890   0.15236   0.15538   0.15646   0.15734
 Alpha virt. eigenvalues --    0.16011   0.16037   0.16231   0.16350   0.16843
 Alpha virt. eigenvalues --    0.17106   0.17298   0.17569   0.17832   0.18024
 Alpha virt. eigenvalues --    0.18397   0.18615   0.19297   0.19482   0.19662
 Alpha virt. eigenvalues --    0.19775   0.20055   0.20222   0.20788   0.20846
 Alpha virt. eigenvalues --    0.21135   0.21508   0.21929   0.22029   0.22386
 Alpha virt. eigenvalues --    0.22528   0.22739   0.23154   0.23487   0.23615
 Alpha virt. eigenvalues --    0.24007   0.24604   0.25127   0.25541   0.25611
 Alpha virt. eigenvalues --    0.26045   0.26245   0.26364   0.26723   0.26800
 Alpha virt. eigenvalues --    0.27005   0.27254   0.27436   0.27664   0.27764
 Alpha virt. eigenvalues --    0.28711   0.28789   0.29003   0.29302   0.29371
 Alpha virt. eigenvalues --    0.29647   0.29839   0.29868   0.30491   0.30621
 Alpha virt. eigenvalues --    0.30921   0.30961   0.31360   0.32041   0.32192
 Alpha virt. eigenvalues --    0.32565   0.32813   0.33008   0.33295   0.33492
 Alpha virt. eigenvalues --    0.33696   0.34010   0.34474   0.34687   0.35101
 Alpha virt. eigenvalues --    0.35543   0.35809   0.35854   0.36134   0.36472
 Alpha virt. eigenvalues --    0.36813   0.37189   0.37279   0.37454   0.37757
 Alpha virt. eigenvalues --    0.38115   0.38319   0.38760   0.38976   0.39141
 Alpha virt. eigenvalues --    0.39296   0.39579   0.39870   0.40011   0.40108
 Alpha virt. eigenvalues --    0.40479   0.40570   0.40828   0.41032   0.41097
 Alpha virt. eigenvalues --    0.41631   0.41858   0.42029   0.42219   0.42425
 Alpha virt. eigenvalues --    0.42573   0.42648   0.42924   0.43189   0.43472
 Alpha virt. eigenvalues --    0.43912   0.43968   0.44000   0.44374   0.44579
 Alpha virt. eigenvalues --    0.44910   0.45067   0.45241   0.45473   0.45817
 Alpha virt. eigenvalues --    0.46100   0.46357   0.46570   0.46781   0.46943
 Alpha virt. eigenvalues --    0.47121   0.47453   0.47659   0.47726   0.47947
 Alpha virt. eigenvalues --    0.48097   0.48434   0.48594   0.48705   0.48957
 Alpha virt. eigenvalues --    0.49108   0.49259   0.49473   0.49703   0.50089
 Alpha virt. eigenvalues --    0.50257   0.50574   0.50728   0.50855   0.51383
 Alpha virt. eigenvalues --    0.51494   0.51628   0.51875   0.52260   0.52345
 Alpha virt. eigenvalues --    0.52640   0.52871   0.52983   0.53392   0.53644
 Alpha virt. eigenvalues --    0.53875   0.53965   0.54278   0.54694   0.55012
 Alpha virt. eigenvalues --    0.55246   0.55375   0.55693   0.55995   0.56185
 Alpha virt. eigenvalues --    0.56425   0.57097   0.57199   0.57552   0.57818
 Alpha virt. eigenvalues --    0.58165   0.58262   0.58613   0.58882   0.59197
 Alpha virt. eigenvalues --    0.59390   0.59674   0.60156   0.60469   0.60889
 Alpha virt. eigenvalues --    0.61308   0.61727   0.62198   0.62282   0.62365
 Alpha virt. eigenvalues --    0.62820   0.62985   0.63460   0.63832   0.64145
 Alpha virt. eigenvalues --    0.64503   0.64940   0.65140   0.65281   0.65764
 Alpha virt. eigenvalues --    0.65986   0.66254   0.66762   0.66953   0.67273
 Alpha virt. eigenvalues --    0.67497   0.67958   0.68104   0.68737   0.68978
 Alpha virt. eigenvalues --    0.69693   0.69858   0.70281   0.70349   0.70633
 Alpha virt. eigenvalues --    0.71013   0.71115   0.71389   0.71650   0.72219
 Alpha virt. eigenvalues --    0.72646   0.72739   0.73200   0.73267   0.73759
 Alpha virt. eigenvalues --    0.74035   0.74312   0.74429   0.75136   0.75357
 Alpha virt. eigenvalues --    0.75463   0.75886   0.76041   0.76734   0.76847
 Alpha virt. eigenvalues --    0.77139   0.77483   0.77771   0.78150   0.78283
 Alpha virt. eigenvalues --    0.78882   0.79436   0.79545   0.80213   0.80316
 Alpha virt. eigenvalues --    0.80450   0.80779   0.81342   0.81584   0.82295
 Alpha virt. eigenvalues --    0.82580   0.83304   0.83599   0.83917   0.84149
 Alpha virt. eigenvalues --    0.84598   0.84937   0.85348   0.85592   0.85816
 Alpha virt. eigenvalues --    0.86150   0.86667   0.87524   0.87917   0.88093
 Alpha virt. eigenvalues --    0.88562   0.88869   0.89239   0.89351   0.89672
 Alpha virt. eigenvalues --    0.90365   0.90727   0.91110   0.91384   0.91897
 Alpha virt. eigenvalues --    0.92087   0.92472   0.92791   0.92832   0.93548
 Alpha virt. eigenvalues --    0.93810   0.94150   0.94550   0.94866   0.95562
 Alpha virt. eigenvalues --    0.95834   0.96379   0.96669   0.97049   0.97997
 Alpha virt. eigenvalues --    0.98106   0.98226   0.98355   0.98581   0.99385
 Alpha virt. eigenvalues --    0.99491   0.99873   1.00159   1.00510   1.01318
 Alpha virt. eigenvalues --    1.01432   1.01513   1.01781   1.02227   1.02362
 Alpha virt. eigenvalues --    1.02776   1.03079   1.03322   1.03663   1.04130
 Alpha virt. eigenvalues --    1.04441   1.04691   1.04938   1.05154   1.05465
 Alpha virt. eigenvalues --    1.06085   1.06382   1.07044   1.07303   1.07498
 Alpha virt. eigenvalues --    1.07834   1.08520   1.08928   1.09251   1.09825
 Alpha virt. eigenvalues --    1.10362   1.10570   1.10861   1.11809   1.11969
 Alpha virt. eigenvalues --    1.12211   1.13073   1.13360   1.13571   1.14324
 Alpha virt. eigenvalues --    1.14504   1.15217   1.15403   1.15922   1.16674
 Alpha virt. eigenvalues --    1.16907   1.16967   1.17379   1.17963   1.18411
 Alpha virt. eigenvalues --    1.18668   1.19017   1.19341   1.19790   1.20088
 Alpha virt. eigenvalues --    1.20662   1.21106   1.21344   1.22151   1.22656
 Alpha virt. eigenvalues --    1.22773   1.23232   1.23493   1.24446   1.25055
 Alpha virt. eigenvalues --    1.25469   1.25780   1.26251   1.26737   1.26907
 Alpha virt. eigenvalues --    1.27330   1.27770   1.27955   1.28201   1.28845
 Alpha virt. eigenvalues --    1.29134   1.29384   1.29429   1.30002   1.30082
 Alpha virt. eigenvalues --    1.30863   1.31361   1.31622   1.31950   1.32512
 Alpha virt. eigenvalues --    1.32897   1.33541   1.34078   1.35147   1.35767
 Alpha virt. eigenvalues --    1.36513   1.37046   1.37195   1.37895   1.38508
 Alpha virt. eigenvalues --    1.38960   1.39625   1.40259   1.40699   1.41210
 Alpha virt. eigenvalues --    1.41411   1.42077   1.42423   1.43172   1.43987
 Alpha virt. eigenvalues --    1.44130   1.44981   1.45347   1.45861   1.46363
 Alpha virt. eigenvalues --    1.46668   1.47102   1.47296   1.47490   1.47730
 Alpha virt. eigenvalues --    1.48025   1.48745   1.49004   1.49481   1.49721
 Alpha virt. eigenvalues --    1.50287   1.50325   1.50777   1.50986   1.51399
 Alpha virt. eigenvalues --    1.51497   1.51645   1.51808   1.52168   1.52837
 Alpha virt. eigenvalues --    1.53110   1.53394   1.53424   1.53801   1.54107
 Alpha virt. eigenvalues --    1.54459   1.54628   1.54722   1.55046   1.55104
 Alpha virt. eigenvalues --    1.55451   1.55852   1.55955   1.56435   1.56891
 Alpha virt. eigenvalues --    1.57161   1.57469   1.57678   1.57989   1.58309
 Alpha virt. eigenvalues --    1.58389   1.58694   1.59114   1.59221   1.59732
 Alpha virt. eigenvalues --    1.60075   1.60225   1.60697   1.60812   1.61287
 Alpha virt. eigenvalues --    1.61637   1.61935   1.62516   1.62757   1.63073
 Alpha virt. eigenvalues --    1.63620   1.63779   1.64216   1.64383   1.64508
 Alpha virt. eigenvalues --    1.64803   1.65094   1.65498   1.65755   1.65971
 Alpha virt. eigenvalues --    1.66148   1.66556   1.66877   1.67063   1.67136
 Alpha virt. eigenvalues --    1.67594   1.68259   1.68473   1.68845   1.69031
 Alpha virt. eigenvalues --    1.69864   1.70254   1.70848   1.71041   1.71514
 Alpha virt. eigenvalues --    1.71895   1.72121   1.72677   1.73228   1.73656
 Alpha virt. eigenvalues --    1.74101   1.74638   1.75076   1.75260   1.76070
 Alpha virt. eigenvalues --    1.76887   1.77596   1.78804   1.79003   1.79704
 Alpha virt. eigenvalues --    1.79929   1.80466   1.80947   1.81148   1.81434
 Alpha virt. eigenvalues --    1.82070   1.82393   1.83121   1.83503   1.84245
 Alpha virt. eigenvalues --    1.85034   1.85561   1.86059   1.86445   1.86539
 Alpha virt. eigenvalues --    1.87004   1.87187   1.87383   1.88164   1.88344
 Alpha virt. eigenvalues --    1.89074   1.89309   1.90000   1.90107   1.90330
 Alpha virt. eigenvalues --    1.90903   1.91146   1.92396   1.92777   1.93352
 Alpha virt. eigenvalues --    1.93686   1.94249   1.94551   1.95303   1.95701
 Alpha virt. eigenvalues --    1.96303   1.97072   1.97664   1.97985   1.98051
 Alpha virt. eigenvalues --    1.98366   1.98828   1.99213   1.99984   2.00464
 Alpha virt. eigenvalues --    2.01024   2.01236   2.01545   2.02025   2.02809
 Alpha virt. eigenvalues --    2.03108   2.03339   2.04105   2.05384   2.05569
 Alpha virt. eigenvalues --    2.05801   2.06499   2.06932   2.07646   2.07944
 Alpha virt. eigenvalues --    2.08516   2.09085   2.09267   2.09892   2.10031
 Alpha virt. eigenvalues --    2.10348   2.11109   2.11437   2.11546   2.12379
 Alpha virt. eigenvalues --    2.12764   2.13214   2.13406   2.14041   2.14162
 Alpha virt. eigenvalues --    2.14463   2.15087   2.15756   2.16140   2.16823
 Alpha virt. eigenvalues --    2.17162   2.17648   2.18459   2.19032   2.19354
 Alpha virt. eigenvalues --    2.19458   2.19929   2.20524   2.21186   2.22020
 Alpha virt. eigenvalues --    2.22249   2.22891   2.23084   2.23961   2.24518
 Alpha virt. eigenvalues --    2.25259   2.25542   2.26191   2.26519   2.26582
 Alpha virt. eigenvalues --    2.26971   2.27419   2.27981   2.28358   2.28605
 Alpha virt. eigenvalues --    2.28904   2.29260   2.29682   2.30357   2.30821
 Alpha virt. eigenvalues --    2.31432   2.31702   2.32795   2.33145   2.33563
 Alpha virt. eigenvalues --    2.34102   2.34178   2.34957   2.35442   2.35660
 Alpha virt. eigenvalues --    2.36598   2.37060   2.37197   2.37351   2.37848
 Alpha virt. eigenvalues --    2.38129   2.38694   2.39189   2.40072   2.40362
 Alpha virt. eigenvalues --    2.40551   2.40924   2.41021   2.41454   2.41905
 Alpha virt. eigenvalues --    2.42188   2.42652   2.43441   2.43832   2.44427
 Alpha virt. eigenvalues --    2.44751   2.45318   2.45447   2.45758   2.46064
 Alpha virt. eigenvalues --    2.46722   2.46997   2.47290   2.47782   2.48256
 Alpha virt. eigenvalues --    2.48842   2.49252   2.49576   2.50722   2.51308
 Alpha virt. eigenvalues --    2.51473   2.51621   2.52494   2.52912   2.53122
 Alpha virt. eigenvalues --    2.53598   2.54172   2.54446   2.54964   2.55513
 Alpha virt. eigenvalues --    2.55998   2.56190   2.56323   2.56696   2.56866
 Alpha virt. eigenvalues --    2.56904   2.57800   2.58227   2.58940   2.59334
 Alpha virt. eigenvalues --    2.59638   2.60039   2.60192   2.60364   2.60743
 Alpha virt. eigenvalues --    2.61407   2.62016   2.62352   2.62668   2.62795
 Alpha virt. eigenvalues --    2.63617   2.64130   2.64594   2.64978   2.65128
 Alpha virt. eigenvalues --    2.65649   2.66004   2.66326   2.66651   2.67080
 Alpha virt. eigenvalues --    2.67425   2.68406   2.68711   2.68977   2.69346
 Alpha virt. eigenvalues --    2.70124   2.70331   2.70870   2.71064   2.71126
 Alpha virt. eigenvalues --    2.71666   2.71788   2.72827   2.73326   2.73733
 Alpha virt. eigenvalues --    2.74148   2.74704   2.75219   2.75504   2.76232
 Alpha virt. eigenvalues --    2.76657   2.77228   2.77569   2.78040   2.78283
 Alpha virt. eigenvalues --    2.79033   2.79492   2.80102   2.80341   2.80719
 Alpha virt. eigenvalues --    2.80887   2.81504   2.82172   2.82613   2.82807
 Alpha virt. eigenvalues --    2.83188   2.83789   2.84340   2.84811   2.85592
 Alpha virt. eigenvalues --    2.85851   2.86069   2.86304   2.86872   2.87254
 Alpha virt. eigenvalues --    2.87440   2.88223   2.88496   2.88811   2.89050
 Alpha virt. eigenvalues --    2.89161   2.89633   2.90160   2.90562   2.90989
 Alpha virt. eigenvalues --    2.91787   2.91925   2.92315   2.92583   2.92840
 Alpha virt. eigenvalues --    2.92868   2.93106   2.93868   2.94189   2.94420
 Alpha virt. eigenvalues --    2.94527   2.95402   2.95899   2.96455   2.96807
 Alpha virt. eigenvalues --    2.97212   2.97479   2.97947   2.98118   2.98227
 Alpha virt. eigenvalues --    2.98760   2.98924   2.99200   2.99904   3.00297
 Alpha virt. eigenvalues --    3.00826   3.01309   3.01478   3.01814   3.02408
 Alpha virt. eigenvalues --    3.02751   3.03671   3.04206   3.04356   3.04690
 Alpha virt. eigenvalues --    3.05233   3.05616   3.06040   3.06382   3.06809
 Alpha virt. eigenvalues --    3.06853   3.07049   3.07747   3.08056   3.08230
 Alpha virt. eigenvalues --    3.08466   3.08707   3.08930   3.09342   3.09842
 Alpha virt. eigenvalues --    3.10334   3.10394   3.10794   3.11142   3.11756
 Alpha virt. eigenvalues --    3.11878   3.12189   3.12694   3.13442   3.13608
 Alpha virt. eigenvalues --    3.13720   3.14146   3.14224   3.14309   3.14918
 Alpha virt. eigenvalues --    3.15214   3.15473   3.15645   3.15964   3.16409
 Alpha virt. eigenvalues --    3.16681   3.17450   3.17669   3.17832   3.18300
 Alpha virt. eigenvalues --    3.18815   3.19146   3.19588   3.19634   3.20032
 Alpha virt. eigenvalues --    3.20260   3.20605   3.20967   3.21125   3.21861
 Alpha virt. eigenvalues --    3.22221   3.22493   3.22737   3.23066   3.23336
 Alpha virt. eigenvalues --    3.23742   3.23976   3.24066   3.24382   3.24914
 Alpha virt. eigenvalues --    3.25061   3.25268   3.25586   3.25867   3.26083
 Alpha virt. eigenvalues --    3.26491   3.26665   3.27392   3.27550   3.27664
 Alpha virt. eigenvalues --    3.27761   3.28046   3.28918   3.29052   3.29385
 Alpha virt. eigenvalues --    3.29451   3.29803   3.30346   3.30467   3.30675
 Alpha virt. eigenvalues --    3.30954   3.31001   3.31566   3.31603   3.32208
 Alpha virt. eigenvalues --    3.32416   3.32593   3.33042   3.33148   3.33415
 Alpha virt. eigenvalues --    3.33963   3.34034   3.34243   3.34513   3.34917
 Alpha virt. eigenvalues --    3.35172   3.35540   3.35751   3.35897   3.35967
 Alpha virt. eigenvalues --    3.36486   3.36668   3.37078   3.37347   3.37640
 Alpha virt. eigenvalues --    3.37878   3.37958   3.38310   3.38506   3.38984
 Alpha virt. eigenvalues --    3.39257   3.39455   3.39758   3.39961   3.40636
 Alpha virt. eigenvalues --    3.40844   3.41512   3.41886   3.42728   3.42958
 Alpha virt. eigenvalues --    3.43401   3.43432   3.44224   3.44639   3.45004
 Alpha virt. eigenvalues --    3.45350   3.45591   3.45994   3.46740   3.47527
 Alpha virt. eigenvalues --    3.47748   3.48019   3.48477   3.48647   3.48757
 Alpha virt. eigenvalues --    3.49016   3.49822   3.50072   3.50334   3.50965
 Alpha virt. eigenvalues --    3.51607   3.52125   3.52818   3.53055   3.53217
 Alpha virt. eigenvalues --    3.54381   3.54473   3.54708   3.55691   3.56185
 Alpha virt. eigenvalues --    3.56788   3.56955   3.57701   3.57843   3.58418
 Alpha virt. eigenvalues --    3.59174   3.59539   3.59634   3.60492   3.60842
 Alpha virt. eigenvalues --    3.61630   3.61983   3.62471   3.62688   3.63204
 Alpha virt. eigenvalues --    3.63838   3.64206   3.64542   3.65321   3.65604
 Alpha virt. eigenvalues --    3.66272   3.66816   3.67633   3.68034   3.68257
 Alpha virt. eigenvalues --    3.68620   3.68870   3.69821   3.70179   3.70493
 Alpha virt. eigenvalues --    3.70625   3.71277   3.71776   3.71997   3.72199
 Alpha virt. eigenvalues --    3.72789   3.73348   3.73788   3.74263   3.74780
 Alpha virt. eigenvalues --    3.75004   3.75020   3.75139   3.76104   3.76329
 Alpha virt. eigenvalues --    3.77030   3.77596   3.77915   3.78216   3.79137
 Alpha virt. eigenvalues --    3.79890   3.80089   3.80664   3.81769   3.82096
 Alpha virt. eigenvalues --    3.82534   3.83043   3.84205   3.84349   3.84618
 Alpha virt. eigenvalues --    3.85170   3.85266   3.86628   3.87145   3.87568
 Alpha virt. eigenvalues --    3.88412   3.88679   3.89196   3.89619   3.89944
 Alpha virt. eigenvalues --    3.90845   3.91235   3.91669   3.92081   3.92617
 Alpha virt. eigenvalues --    3.93848   3.94393   3.94530   3.95558   3.95932
 Alpha virt. eigenvalues --    3.97062   3.97211   3.98488   3.98912   3.99235
 Alpha virt. eigenvalues --    3.99655   4.00408   4.00817   4.01261   4.02107
 Alpha virt. eigenvalues --    4.02399   4.03355   4.03651   4.04581   4.05478
 Alpha virt. eigenvalues --    4.05657   4.06314   4.06769   4.07505   4.07897
 Alpha virt. eigenvalues --    4.08548   4.09536   4.10151   4.10453   4.11321
 Alpha virt. eigenvalues --    4.12505   4.13174   4.13758   4.14470   4.14671
 Alpha virt. eigenvalues --    4.15569   4.15883   4.16875   4.17352   4.18131
 Alpha virt. eigenvalues --    4.18456   4.18706   4.19231   4.20034   4.20468
 Alpha virt. eigenvalues --    4.21208   4.22294   4.22755   4.22886   4.23686
 Alpha virt. eigenvalues --    4.23965   4.24761   4.25097   4.25943   4.26987
 Alpha virt. eigenvalues --    4.27195   4.27914   4.28596   4.28833   4.29218
 Alpha virt. eigenvalues --    4.29888   4.30842   4.31148   4.31579   4.32471
 Alpha virt. eigenvalues --    4.32853   4.34080   4.34295   4.34762   4.35249
 Alpha virt. eigenvalues --    4.36112   4.36407   4.37658   4.38031   4.38915
 Alpha virt. eigenvalues --    4.39240   4.40251   4.40701   4.40891   4.40905
 Alpha virt. eigenvalues --    4.41241   4.41747   4.42081   4.42758   4.43652
 Alpha virt. eigenvalues --    4.43807   4.44376   4.44902   4.45494   4.46475
 Alpha virt. eigenvalues --    4.46977   4.47348   4.47955   4.48906   4.49678
 Alpha virt. eigenvalues --    4.49932   4.50506   4.52136   4.52703   4.53558
 Alpha virt. eigenvalues --    4.53969   4.54732   4.55680   4.56847   4.57043
 Alpha virt. eigenvalues --    4.57449   4.57955   4.59901   4.60628   4.61691
 Alpha virt. eigenvalues --    4.63044   4.63823   4.65675   4.66335   4.67669
 Alpha virt. eigenvalues --    4.68054   4.68638   4.68898   4.69277   4.70408
 Alpha virt. eigenvalues --    4.70559   4.72126   4.72438   4.73581   4.74207
 Alpha virt. eigenvalues --    4.75012   4.75052   4.76670   4.78215   4.79037
 Alpha virt. eigenvalues --    4.79710   4.80547   4.81213   4.82010   4.82781
 Alpha virt. eigenvalues --    4.83040   4.83623   4.84327   4.84896   4.84999
 Alpha virt. eigenvalues --    4.86029   4.87260   4.87433   4.88409   4.89377
 Alpha virt. eigenvalues --    4.90120   4.91101   4.92716   4.92884   4.93304
 Alpha virt. eigenvalues --    4.94200   4.94954   4.95284   4.96347   4.97063
 Alpha virt. eigenvalues --    4.97795   4.98767   4.99728   5.00805   5.01315
 Alpha virt. eigenvalues --    5.01903   5.03275   5.04142   5.05474   5.05946
 Alpha virt. eigenvalues --    5.06502   5.07400   5.07705   5.08533   5.09227
 Alpha virt. eigenvalues --    5.09681   5.10521   5.13072   5.13755   5.16903
 Alpha virt. eigenvalues --    5.17480   5.18547   5.19783   5.20014   5.21256
 Alpha virt. eigenvalues --    5.21554   5.22091   5.23106   5.24347   5.25898
 Alpha virt. eigenvalues --    5.26939   5.28129   5.29175   5.30032   5.33675
 Alpha virt. eigenvalues --    5.34478   5.36087   5.36566   5.37339   5.38593
 Alpha virt. eigenvalues --    5.39549   5.39707   5.40207   5.41008   5.42070
 Alpha virt. eigenvalues --    5.42628   5.46377   5.47455   5.48126   5.49337
 Alpha virt. eigenvalues --    5.50115   5.50924   5.51645   5.53275   5.54875
 Alpha virt. eigenvalues --    5.56871   5.58949   5.59657   5.61403   5.62017
 Alpha virt. eigenvalues --    5.62499   5.64545   5.66151   5.66646   5.67093
 Alpha virt. eigenvalues --    5.67886   5.68623   5.72864   5.75016   5.76051
 Alpha virt. eigenvalues --    5.77285   5.78721   5.80026   5.84139   5.88397
 Alpha virt. eigenvalues --    5.92983   5.95116   6.00003   6.01483   6.02462
 Alpha virt. eigenvalues --    6.06407   6.08165   6.09122   6.12597   6.13608
 Alpha virt. eigenvalues --    6.14900   6.16828   6.25111   6.32207   6.33525
 Alpha virt. eigenvalues --    6.39242  22.35679  22.36753  22.43332  22.45968
 Alpha virt. eigenvalues --   22.46582  22.53163  22.53842  22.62288  22.63492
 Alpha virt. eigenvalues --   22.73513  22.81356  22.86375  22.88944  22.91828
 Alpha virt. eigenvalues --   22.93002  22.94605  22.95414  23.01436  23.03090
 Alpha virt. eigenvalues --   23.04938  23.11551  23.25709  23.27237  23.29390
 Alpha virt. eigenvalues --   23.30399  23.36613  23.41966  23.50838  23.51159
 Alpha virt. eigenvalues --   23.55463  23.73121  23.76856  23.79225  23.86866
 Alpha virt. eigenvalues --   32.39397  32.63747  32.82618  32.90728  32.93644
 Alpha virt. eigenvalues --   33.05776
          Condensed to atoms (all electrons):
 Mulliken charges:
               1
     1  Fe  -0.148845
     2  N   -0.121776
     3  N   -0.125315
     4  N   -0.135808
     5  N    0.017132
     6  C    0.240803
     7  C   -0.029776
     8  C   -0.055284
     9  C    0.227510
    10  C    0.246624
    11  C   -0.040781
    12  C   -0.050323
    13  C    0.257428
    14  C    0.252073
    15  C    0.049872
    16  C   -0.050049
    17  C    0.225411
    18  C    0.214773
    19  C    0.015169
    20  C    0.018843
    21  C    0.216127
    22  C   -0.426436
    23  H    0.135237
    24  C   -0.452541
    25  H    0.140252
    26  C   -0.430440
    27  H    0.118500
    28  C   -0.434264
    29  H    0.121189
    30  C   -0.418965
    31  H    0.137463
    32  H    0.137313
    33  H    0.119352
    34  C   -0.410477
    35  H    0.129026
    36  H    0.138888
    37  H    0.120526
    38  C   -0.456093
    39  H    0.128281
    40  H    0.145508
    41  H    0.156793
    42  C   -0.208168
    43  H    0.107773
    44  C   -0.284811
    45  H    0.140370
    46  H    0.121921
    47  C   -0.444358
    48  H    0.126463
    49  H    0.144822
    50  H    0.155154
    51  C   -0.209893
    52  H    0.110197
    53  C   -0.283081
    54  H    0.140100
    55  H    0.121630
    56  C   -0.413843
    57  H    0.142890
    58  H    0.118278
    59  H    0.131934
    60  C   -0.409926
    61  H    0.130625
    62  H    0.120592
    63  H    0.136901
    64  C   -0.389670
    65  H    0.137309
    66  H    0.147770
    67  H    0.136537
    68  N   -0.228329
    69  H    0.237806
    70  C    0.178286
    71  C    0.008906
    72  H    0.174800
    73  N    0.046658
    74  C   -0.226128
    75  H    0.157562
 Sum of Mulliken charges =  -0.00000
 Mulliken charges with hydrogens summed into heavy atoms:
               1
     1  Fe  -0.148845
     2  N   -0.121776
     3  N   -0.125315
     4  N   -0.135808
     5  N    0.017132
     6  C    0.240803
     7  C   -0.029776
     8  C   -0.055284
     9  C    0.227510
    10  C    0.246624
    11  C   -0.040781
    12  C   -0.050323
    13  C    0.257428
    14  C    0.252073
    15  C    0.049872
    16  C   -0.050049
    17  C    0.225411
    18  C    0.214773
    19  C    0.015169
    20  C    0.018843
    21  C    0.216127
    22  C   -0.291199
    24  C   -0.312289
    26  C   -0.311939
    28  C   -0.313075
    30  C   -0.024836
    34  C   -0.022037
    38  C   -0.025510
    42  C   -0.100395
    44  C   -0.022521
    47  C   -0.017920
    51  C   -0.099696
    53  C   -0.021350
    56  C   -0.020741
    60  C   -0.021808
    64  C    0.031946
    68  N    0.009478
    70  C    0.178286
    71  C    0.183706
    73  N    0.046658
    74  C   -0.068566
 Electronic spatial extent (au):  <R**2>=          19911.4410
 Charge=             -0.0000 electrons
 Dipole moment (field-independent basis, Debye):
    X=              2.3561    Y=             -0.6422    Z=              6.2065  Tot=              6.6696
 Quadrupole moment (field-independent basis, Debye-Ang):
   XX=           -228.1394   YY=           -235.6078   ZZ=           -224.8248
   XY=             -1.3197   XZ=              6.3282   YZ=              1.7777
 Traceless Quadrupole moment (field-independent basis, Debye-Ang):
   XX=              1.3846   YY=             -6.0838   ZZ=              4.6992
   XY=             -1.3197   XZ=              6.3282   YZ=              1.7777
 Octapole moment (field-independent basis, Debye-Ang**2):
  XXX=             42.7486  YYY=            -21.4000  ZZZ=            166.8376  XYY=             26.4428
  XXY=              2.2407  XXZ=              9.5699  XZZ=             35.9443  YZZ=             -6.0423
  YYZ=            -14.7757  XYZ=             -1.1682
 Hexadecapole moment (field-independent basis, Debye-Ang**3):
 XXXX=         -11710.7576 YYYY=         -11587.2051 ZZZZ=          -2828.6364 XXXY=            -26.1133
 XXXZ=             26.8673 YYYX=             27.0478 YYYZ=             74.1750 ZZZX=            121.6467
 ZZZY=              4.4730 XXYY=          -3947.5725 XXZZ=          -2570.2042 YYZZ=          -2667.4122
 XXYZ=            -19.5282 YYXZ=             57.2028 ZZXY=            -25.9888
 N-N= 5.555741615618D+03 E-N=-1.794356765829D+04  KE= 2.897552133134D+03
  Exact polarizability:     712.927       0.752     703.560       6.838       1.812     304.020
 Approx polarizability:    1332.825      -3.078    1281.410       4.914      13.757     483.230

 ----------------------------------------------------------------------

 Electric dipole moment (input orientation):
 (Debye = 10**-18 statcoulomb cm , SI units = C m)
                  (au)            (Debye)         (10**-30 SI)
   Tot        0.262404D+01      0.666963D+01      0.222475D+02
   x         -0.228309D-01     -0.580304D-01     -0.193568D+00
   y         -0.238736D+01     -0.606807D+01     -0.202409D+02
   z         -0.108882D+01     -0.276751D+01     -0.923141D+01

 Dipole polarizability, Alpha (input orientation).
 (esu units = cm**3 , SI units = C**2 m**2 J**-1)
 Alpha(0;0):
               (au)            (10**-24 esu)      (10**-40 SI)
   iso        0.573502D+03      0.849843D+02      0.945577D+02
   aniso      0.404493D+03      0.599396D+02      0.666918D+02
   xx         0.655719D+03      0.971676D+02      0.108114D+03
   yx        -0.117094D+03     -0.173515D+02     -0.193062D+02
   yy         0.462729D+03      0.685694D+02      0.762937D+02
   zx        -0.707825D+02     -0.104889D+02     -0.116705D+02
   zy        -0.160916D+03     -0.238453D+02     -0.265315D+02
   zz         0.602058D+03      0.892158D+02      0.992660D+02

 First dipole hyperpolarizability, Beta (input orientation).
 ||, _|_  parallel and perpendicular components, (z) with respect to z axis,
 vector components x,y,z.  Values do not include the 1/n! factor of 1/2.
 (esu units = statvolt**-1 cm**4 , SI units = C**3 m**3 J**-2)
 Beta(0;0,0):
               (au)            (10**-30 esu)      (10**-50 SI)
   || (z)    -0.294838D+03     -0.254717D+01     -0.945357D+00
   _|_(z)    -0.982794D+02     -0.849057D+00     -0.315119D+00
   x         -0.420617D+04     -0.363381D+02     -0.134865D+02
   y          0.313367D+04      0.270725D+02      0.100477D+02
   z         -0.147419D+04     -0.127359D+02     -0.472679D+01
   ||         0.108968D+04      0.941398D+01      0.349391D+01
   xxx       -0.548191D+03     -0.473594D+01     -0.175770D+01
   xxy        0.687880D+02      0.594275D+00      0.220559D+00
   yxy       -0.208610D+03     -0.180223D+01     -0.668880D+00
   yyy        0.329860D+03      0.284973D+01      0.105765D+01
   xxz        0.612280D+03      0.528962D+01      0.196319D+01
   yxz        0.233373D+02      0.201616D+00      0.748278D-01
   yyz       -0.589701D+03     -0.509456D+01     -0.189080D+01
   zxz       -0.645256D+03     -0.557451D+01     -0.206893D+01
   zyz        0.645910D+03      0.558016D+01      0.207102D+01
   zzz       -0.513975D+03     -0.444034D+01     -0.164799D+01

 ----------------------------------------------------------------------

 Dipole orientation:
    26         66.29401126         14.21545311        -16.15229929
     7         70.02246803         13.83683224        -15.59816924
     7         67.10501640         18.10427841        -15.78812947
     7         62.93588163         15.43626694        -17.64346794
     7         65.57452980         10.83680704        -17.01862139
     6         71.04642424         11.46122279        -15.50027165
     6         73.61906753         11.55536191        -14.58501876
     6         74.13550867         14.03502285        -14.13687774
     6         71.87434180         15.41157506        -14.78904310
     6         69.34245034         19.23599629        -15.15970431
     6         69.03165456         21.91910380        -14.76338697
     6         66.58899907         22.44453792        -15.34503073
     6         65.42443054         20.05374362        -15.98185477
     6         61.77702410         17.71550468        -17.56114870
     6         59.31600122         17.61831459        -18.75260425
     6         58.91608403         15.13016679        -19.34932281
     6         61.17580258         13.79822711        -18.62213631
     6         63.57746710          9.81604068        -18.26932024
     6         63.84350855          7.09479442        -18.44996312
     6         66.21988533          6.55807858        -17.56730500
     6         67.32120855          8.93669554        -16.81398830
     6         69.82751703          9.23017929        -16.12006376
     1         70.95597288          7.53082038        -16.04497093
     6         71.58244832         17.99630949        -14.62192068
     1         73.18301124         19.11659987        -14.03878120
     6         62.94747760         19.90949102        -16.78203334
     1         61.87845694         21.64344785        -16.85273673
     6         61.45488978         11.20382314        -18.91286143
     1         59.92050205         10.20886401        -19.81847673
     6         75.27990530          9.30696970        -14.24475034
     1         75.53822972          8.32217509        -16.03545426
     1         74.44613669          7.98509247        -12.90225621
     1         77.12845141          9.86435657        -13.54234876
     6         76.49559859         15.23883143        -13.18282337
     1         76.12779758         16.28735766        -11.44740023
     1         77.24419501         16.55839462        -14.57668714
     1         77.93412677         13.82483451        -12.79327718
     6         67.45513454          4.04784453        -17.27370089
     1         68.61501323          4.00335458        -15.57463855
     1         68.66852242          3.63158627        -18.88836035
     1         66.02935555          2.57236295        -17.13831447
     6         61.92786346          5.42738760        -19.45625900
     1         59.99591279          6.05298395        -19.18755651
     6         62.34261495          3.26304343        -20.66277335
     1         64.21512041          2.58935771        -21.07497120
     1         60.80253905          2.11249430        -21.33358408
     6         56.61482752         13.95173818        -20.45873004
     1         56.20007888         12.15655588        -19.54140100
     1         56.86910930         13.59476542        -22.47342540
     1         54.99918375         15.20006438        -20.21748462
     6         57.65820523         19.76745951        -19.06588769
     1         57.77885348         21.19898360        -17.60559536
     6         56.06562550         20.10910676        -20.97764578
     1         55.93551370         18.79799473        -22.52626472
     1         54.86669150         21.75136525        -21.08277027
     6         65.24563791         24.91927014        -15.32146013
     1         64.57888950         25.39618182        -17.21218020
     1         66.49654643         26.41921057        -14.68211968
     1         63.61493859         24.85318401        -14.06316788
     6         71.10322492         23.66588679        -13.99524330
     1         71.86312843         23.12956284        -12.15619615
     1         70.41747035         25.59851497        -13.87108068
     1         72.64185944         23.61152387        -15.36397051
     6         60.86263491         12.33582642         -7.30608491
     1         61.60235733         10.97126450         -5.95186684
     1         59.29100991         11.48037972         -8.30920514
     1         60.16899667         13.96941604         -6.26122838
     7         65.02980883         14.28320248         -8.41399002
     1         65.49966686         14.75171397         -6.63082003
     6         62.84571657         13.09715444         -9.13869170
     6         66.41533816         14.71466664        -10.51813255
     1         68.22350650         15.62599660        -10.52139927
     7         65.24200398         13.87271354        -12.53733246
     6         63.01669302         12.85782983        -11.70220423
     1         61.69804066         12.03473656        -12.99921800

 Electric dipole moment (dipole orientation):
 (Debye = 10**-18 statcoulomb cm , SI units = C m)
                  (au)            (Debye)         (10**-30 SI)
   Tot        0.262404D+01      0.666963D+01      0.222475D+02
   x          0.000000D+00      0.000000D+00      0.000000D+00
   y          0.000000D+00      0.000000D+00      0.000000D+00
   z          0.262404D+01      0.666963D+01      0.222475D+02

 Dipole polarizability, Alpha (dipole orientation).
 (esu units = cm**3 , SI units = C**2 m**2 J**-1)
 Alpha(0;0):
               (au)            (10**-24 esu)      (10**-40 SI)
   iso        0.573502D+03      0.849843D+02      0.945577D+02
   aniso      0.404493D+03      0.599396D+02      0.666918D+02
   xx         0.658235D+03      0.975404D+02      0.108528D+03
   yx        -0.155823D+02     -0.230906D+01     -0.256917D+01
   yy         0.699401D+03      0.103640D+03      0.115316D+03
   zx         0.133062D+03      0.197177D+02      0.219389D+02
   zy         0.537779D+02      0.796906D+01      0.886677D+01
   zz         0.362871D+03      0.537719D+02      0.598293D+02

 First dipole hyperpolarizability, Beta (dipole orientation).
 ||, _|_  parallel and perpendicular components, (z) with respect to z axis,
 vector components x,y,z.  Values do not include the 1/n! factor of 1/2.
 (esu units = statvolt**-1 cm**4 , SI units = C**3 m**3 J**-2)
 Beta(0;0,0):
               (au)            (10**-30 esu)      (10**-50 SI)
   || (z)    -0.440547D+03     -0.380599D+01     -0.141255D+01
   _|_(z)    -0.146849D+03     -0.126866D+01     -0.470851D+00
   x         -0.421065D+04     -0.363768D+02     -0.135009D+02
   y         -0.266522D+04     -0.230254D+02     -0.854566D+01
   z         -0.220274D+04     -0.190299D+02     -0.706277D+01
   ||         0.108968D+04      0.941398D+01      0.349391D+01
   xxx       -0.565397D+03     -0.488459D+01     -0.181287D+01
   xxy        0.534504D+03      0.461770D+01      0.171381D+01
   yxy       -0.578652D+03     -0.499910D+01     -0.185537D+01
   yyy       -0.136329D+04     -0.117777D+02     -0.437119D+01
   xxz       -0.318050D+03     -0.274770D+01     -0.101978D+01
   yxz        0.145562D+03      0.125754D+01      0.466724D+00
   yyz       -0.515466D+03     -0.445323D+01     -0.165277D+01
   zxz       -0.259502D+03     -0.224190D+01     -0.832059D+00
   zyz       -0.596223D+02     -0.515090D+00     -0.191171D+00
   zzz        0.992700D+02      0.857616D+00      0.318296D+00

 ----------------------------------------------------------------------
 Unable to Open any file for archive entry.
 1\1\GINC-BGN1040\SP\RAPFD\def2TZVP\C34H34Fe1N6\BEBJONES\12-Aug-2024\0\
 \# polar def2tzvp apfd int=(grid=ultrafine)\\1fcs_II_S\\0,1\Fe,0,35.19
 58563583,4.4584438744,10.085466226\N,0,37.1650929193,4.263767918,9.764
 3385013\N,0,35.6348349866,3.426704512,11.8740390189\N,0,33.4293856223,
 4.9182090091,11.016114438\N,0,34.809129781,5.6196345,8.6523586429\C,0,
 37.6994344917,4.7353018349,8.5943934902\C,0,39.0568105479,4.2663645834
 ,8.4269025993\C,0,39.3353625075,3.5045303475,9.5199528997\C,0,38.14594
 65333,3.5229096967,10.336304164\C,0,36.8192277448,2.868994033,12.27061
 35428\C,0,36.6608891113,2.0898812008,13.4768010429\C,0,35.3725942006,2
 .2617559165,13.868733142\C,0,34.7522181691,3.0968345064,12.8628822653\
 C,0,32.8225461017,4.3814730914,12.1007109298\C,0,31.5254965301,4.98372
 73485,12.3268669356\C,0,31.3092620425,5.81861286,11.261818458\C,0,32.4
 976983048,5.7543217849,10.4504795506\C,0,33.7551227454,6.4518606868,8.
 4447322828\C,0,33.8886737578,7.1356452912,7.1730316909\C,0,35.14047802
 88,6.821521317,6.7098771531\C,0,35.7268154706,5.9332189267,7.684577273
 3\C,0,37.0506997324,5.5272590651,7.6619648031\H,0,37.6424442079,5.8609
 54273,6.8221261026\C,0,37.9983740574,2.875689845,11.5453691148\H,0,38.
 8459418859,2.3441771042,11.9493178893\C,0,33.4447983736,3.5210912922,1
 2.980537748\H,0,32.8845861796,3.1775089226,13.8357961053\C,0,32.639034
 8137,6.4632114134,9.2639585656\H,0,31.8283392982,7.1222603522,8.990854
 1757\C,0,39.9274179954,4.5913861926,7.2620546328\H,0,40.0694393582,5.6
 690205025,7.1799356113\H,0,39.4761357254,4.2378044677,6.3346955102\H,0
 ,40.9039902814,4.125337674,7.3676651102\C,0,40.5833727066,2.7738513967
 ,9.8791697787\H,0,40.3838651278,1.7091602158,10.0046147849\H,0,40.9898
 158735,3.1529253051,10.8170865783\H,0,41.3385886224,2.8925682382,9.106
 2437023\C,0,35.7853254309,7.2277713892,5.431171675\H,0,36.3911194217,6
 .4160962572,5.0313355926\H,0,36.4335901766,8.0929678628,5.5797210775\H
 ,0,35.0258845425,7.4908353343,4.6976395392\C,0,32.8747090995,7.9919690
 232,6.6000407383\H,0,31.8530344474,7.7309373653,6.8511273975\C,0,33.09
 33218922,9.0469189673,5.8210337659\H,0,34.0840594921,9.3877729984,5.57
 85766115\H,0,32.278074772,9.6271068595,5.4214891108\C,0,30.0931738931,
 6.6183384995,10.9486618732\H,0,29.8641719014,6.5721521161,9.8848580823
 \H,0,30.235946064,7.6659517657,11.2180090806\H,0,29.2408426956,6.23283
 44008,11.504133711\C,0,30.6560805649,4.6675001421,13.4379931127\H,0,30
 .7174359972,3.6497157004,13.8059956543\C,0,29.8231823247,5.5176008925,
 14.0295907044\H,0,29.7575824181,6.5514948902,13.7389985326\H,0,29.1941
 136361,5.2111126294,14.8488572531\C,0,34.66897404,1.7109189333,15.0611
 995991\H,0,34.3262820104,2.5184451521,15.7090378968\H,0,35.3323878288,
 1.0700100348,15.6371998502\H,0,33.8001022097,1.124456191,14.760597716\
 C,0,37.7586929452,1.3303224782,14.1395825512\H,0,38.1507399219,0.56044
 56298,13.4740576025\H,0,37.400976545,0.8481580206,15.0459381401\H,0,38
 .5790006661,1.9966778837,14.4068673186\C,0,32.2755551479,0.6283011446,
 7.2630982869\H,0,32.6567035759,0.2737904396,6.3053696875\H,0,31.446017
 5279,1.3037662029,7.0787433418\H,0,31.9085427441,-0.231436322,7.823354
 5946\N,0,34.4914768622,0.7217084457,8.4247449021\H,0,34.7332786731,-0.
 241075593,8.2566016003\C,0,33.3355922263,1.3375444516,8.0229077625\C,0
 ,35.235593432,1.6358914375,9.0881162483\H,0,36.1950967501,1.4319776182
 ,9.5192671127\N,0,34.6215291471,2.7964044481,9.1315323685\C,0,33.43715
 86387,2.6237954911,8.4697880753\H,0,32.7429301426,3.4329013184,8.36437
 73722\\Version=ES64L-G16RevC.02\State=1-A\HF=-2907.587539\RMSD=2.127e-
 09\Dipole=-0.0228309,-2.3873644,-1.0888216\Polar=655.7192891,-117.0938
 826,462.7289881,-70.7824884,-160.9163398,602.058262\HyperPolar=-548.19
 0978,68.7879891,-208.6103319,329.859874,612.279622,23.3372797,-589.701
 4253,-645.2564365,645.9101333,-513.9749716\Quadrupole=-1.5420329,6.630
 4234,-5.0883905,-1.3834169,0.1455026,1.9122157\PG=C01 [X(C34H34Fe1N6)]
 \\@
 The archive entry for this job was punched.


 THERE IS NO SUBJECT, HOWEVER COMPLEX,
 WHICH, IF STUDIED WITH PATIENCE AND INTELLIGIENCE
 WILL NOT BECOME
 MORE COMPLEX
                        QUOTED BY D. GORDON ROHMAN
 Job cpu time:       2 days  3 hours 15 minutes 30.9 seconds.
 Elapsed time:       0 days  0 hours 44 minutes 45.6 seconds.
 File lengths (MBytes):  RWF=   1142 Int=      0 D2E=      0 Chk=    146 Scr=      1
 Normal termination of Gaussian 16 at Mon Aug 12 21:53:04 2024.
 Initial command:
 /sw/chem/gaussian/g16_C02/a100/g16/l1.exe "/local/bebjones_7975075/Gau-2806272.inp" -scrdir="/local/bebjones_7975075/"
 Entering Link 1 = /sw/chem/gaussian/g16_C02/a100/g16/l1.exe PID=   2808337.
  
 Copyright (c) 1988-2021, Gaussian, Inc.  All Rights Reserved.
  
 This is part of the Gaussian(R) 16 program.  It is based on
 the Gaussian(R) 09 system (copyright 2009, Gaussian, Inc.),
 the Gaussian(R) 03 system (copyright 2003, Gaussian, Inc.),
 the Gaussian(R) 98 system (copyright 1998, Gaussian, Inc.),
 the Gaussian(R) 94 system (copyright 1995, Gaussian, Inc.),
 the Gaussian 92(TM) system (copyright 1992, Gaussian, Inc.),
 the Gaussian 90(TM) system (copyright 1990, Gaussian, Inc.),
 the Gaussian 88(TM) system (copyright 1988, Gaussian, Inc.),
 the Gaussian 86(TM) system (copyright 1986, Carnegie Mellon
 University), and the Gaussian 82(TM) system (copyright 1983,
 Carnegie Mellon University). Gaussian is a federally registered
 trademark of Gaussian, Inc.
  
 This software contains proprietary and confidential information,
 including trade secrets, belonging to Gaussian, Inc.
  
 This software is provided under written license and may be
 used, copied, transmitted, or stored only in accord with that
 written license.
  
 The following legend is applicable only to US Government
 contracts under FAR:
  
                    RESTRICTED RIGHTS LEGEND
  
 Use, reproduction and disclosure by the US Government is
 subject to restrictions as set forth in subparagraphs (a)
 and (c) of the Commercial Computer Software - Restricted
 Rights clause in FAR 52.227-19.
  
 Gaussian, Inc.
 340 Quinnipiac St., Bldg. 40, Wallingford CT 06492
  
  
 ---------------------------------------------------------------
 Warning -- This program may not be used in any manner that
 competes with the business of Gaussian, Inc. or will provide
 assistance to any competitor of Gaussian, Inc.  The licensee
 of this program is prohibited from giving any competitor of
 Gaussian, Inc. access to this program.  By using this program,
 the user acknowledges that Gaussian, Inc. is engaged in the
 business of creating and licensing software in the field of
 computational chemistry and represents and warrants to the
 licensee that it is not a competitor of Gaussian, Inc. and that
 it will not use this program in any manner prohibited above.
 ---------------------------------------------------------------
  

 Cite this work as:
 Gaussian 16, Revision C.02,
 M. J. Frisch, G. W. Trucks, H. B. Schlegel, G. E. Scuseria, 
 M. A. Robb, J. R. Cheeseman, G. Scalmani, V. Barone, 
 G. A. Petersson, H. Nakatsuji, X. Li, M. Caricato, A. V. Marenich, 
 J. Bloino, B. G. Janesko, R. Gomperts, B. Mennucci, H. P. Hratchian, 
 J. V. Ortiz, A. F. Izmaylov, J. L. Sonnenberg, D. Williams-Young, 
 F. Ding, F. Lipparini, F. Egidi, J. Goings, B. Peng, A. Petrone, 
 T. Henderson, D. Ranasinghe, V. G. Zakrzewski, J. Gao, N. Rega, 
 G. Zheng, W. Liang, M. Hada, M. Ehara, K. Toyota, R. Fukuda, 
 J. Hasegawa, M. Ishida, T. Nakajima, Y. Honda, O. Kitao, H. Nakai, 
 T. Vreven, K. Throssell, J. A. Montgomery, Jr., J. E. Peralta, 
 F. Ogliaro, M. J. Bearpark, J. J. Heyd, E. N. Brothers, K. N. Kudin, 
 V. N. Staroverov, T. A. Keith, R. Kobayashi, J. Normand, 
 K. Raghavachari, A. P. Rendell, J. C. Burant, S. S. Iyengar, 
 J. Tomasi, M. Cossi, J. M. Millam, M. Klene, C. Adamo, R. Cammi, 
 J. W. Ochterski, R. L. Martin, K. Morokuma, O. Farkas, 
 J. B. Foresman, and D. J. Fox, Gaussian, Inc., Wallingford CT, 2019.
 
 ******************************************
 Gaussian 16:  ES64L-G16RevC.02  7-Dec-2021
                12-Aug-2024 
 ******************************************
 %mem=16GB
 %CPU=0-71
 SetSPE:  set environment variable "OMP_PROC_BIND" = "true"
 SetSPE:  set environment variable "OMP_PLACES" = "{0},{1},{2},{3},{4},{5},{6},{7},{8},{9},{10},{11},{12},{13},{14},{15},{16},{17},{18},{19},{20},{21},{22},{23},{24},{25},{26},{27},{28},{29},{30},{31},{32},{33},{34},{35},{36},{37},{38},{39},{40},{41},{42},{43},{44},{45},{46},{47},{48},{49},{50},{51},{52},{53},{54},{55},{56},{57},{58},{59},{60},{61},{62},{63},{64},{65},{66},{67},{68},{69},{70},{71}"
 Will use up to   72 processors via shared memory.
 %gpucpu=0,1,2,3=0,1,2,3
 Will use    4 GPUs:
 Thread  CPU   GPU
      0    0     0
      1    1     1
      2    2     2
      3    3     3
      4    4    -1
      5    5    -1
      6    6    -1
      7    7    -1
[...]
                                                    160(r),151(r)
    95. BD (   1) C  74 - H  75          1.98222    -0.54784  1486(v),1481(v),1283(v)
                                                    1340(v),1483(g),149(r)
                                                    152(r),148(r),169(r)
   139. CR (   1) C  64                  1.99940   -10.06554  1483(v),1283(v),1481(v)
                                                    1291(v)
   140. CR (   1) N  68                  1.99938   -14.22983  1311(v),1285(v),1279(v)
                                                    1479(v),1286(v)
   141. CR (   1) C  70                  1.99915   -10.09747  1368(v),1483(g),1489(v)
                                                    1213(v),1256(v)
   142. CR (   1) C  71                  1.99938   -10.13232  1340(v),1480(v),1336(v)
                                                    149(r),148(r)
   143. CR (   1) N  73                  1.99933   -14.16890  148(r),149(r),152(r),1309(v)
                                                    1366(v),167(r),164(r),172(r)
                                                    151(r),165(r)
   144. CR (   1) C  74                  1.99900   -10.06928  1479(v),1283(v),1483(g)
                                                    1342(v),1286(v),149(r)
                                                    148(r)
   158. LP (   1) N  68                  1.57696    -0.29241  1487(v),1484(v),1312(v)
                                                    1284(v),1278(v),163(r)
   159. LP (   1) N  73                  1.62764    -0.38899  148(r),149(r),152(r),1482(v)
                                                    1483(v),1309(v),1485(v)
                                                    1489(v),1366(v),1486(g)
                                                    1343(g),1488(g),165(r)
                                                    151(r),147(r),1405(r),242(r)
                                                    186(r),190(r),241(r),1398(r)
                                                    268(r),179(r),189(r),215(r)
                                                    1407(r),3(r),1399(r),267(r)
                                                    1402(r),216(r),168(r)
                                                    1401(r),221(r),1406(r)
                                                    218(r),1404(r)
  1211. RY*(   1) C  64                  0.00121     1.13551   
  1212. RY*(   2) C  64                  0.00076     1.99178   
  1213. RY*(   3) C  64                  0.00053     1.30452   
  1214. RY*(   4) C  64                  0.00012     1.26435   
  1215. RY*(   5) C  64                  0.00007     1.08284   
  1216. RY*(   6) C  64                  0.00008     2.38562   
  1217. RY*(   7) C  64                  0.00000    21.59510   
  1218. RY*(   8) C  64                  0.00001     1.90173   
  1219. RY*(   9) C  64                  0.00001     1.37339   
  1220. RY*(  10) C  64                  0.00001     1.23592   
  1221. RY*(  11) C  64                  0.00001     1.36453   
  1222. RY*(  12) C  64                  0.00000     3.27968   
  1223. RY*(  13) C  64                  0.00000     2.60720   
  1224. RY*(  14) C  64                  0.00000     2.77400   
  1225. RY*(  15) C  64                  0.00000     2.33626   
  1226. RY*(  16) C  64                  0.00000     3.08037   
  1227. RY*(  17) C  64                  0.00000     2.45944   
  1228. RY*(  18) C  64                  0.00001     2.69365   
  1229. RY*(  19) C  64                  0.00000     2.65440   
  1230. RY*(  20) C  64                  0.00000     3.69845   
  1231. RY*(  21) C  64                  0.00001     3.47568   
  1232. RY*(  22) C  64                  0.00000     3.30795   
  1233. RY*(  23) C  64                  0.00000     3.63271   
  1234. RY*(  24) C  64                  0.00000     3.45802   
  1235. RY*(  25) C  64                  0.00000     3.45771   
  1236. RY*(  26) C  64                  0.00000     3.21562   
  1237. RY*(   1) H  65                  0.00073     1.00199   
  1238. RY*(   2) H  65                  0.00014     1.68959   
  1239. RY*(   3) H  65                  0.00008     1.95136   
  1240. RY*(   4) H  65                  0.00006     2.00663   
  1241. RY*(   5) H  65                  0.00000     2.86699   
  1242. RY*(   1) H  66                  0.00024     1.32414   
  1243. RY*(   2) H  66                  0.00013     1.63035   
  1244. RY*(   3) H  66                  0.00008     2.05109   
  1245. RY*(   4) H  66                  0.00003     1.69573   
  1246. RY*(   5) H  66                  0.00001     2.88917   
  1247. RY*(   1) H  67                  0.00072     1.00693   
  1248. RY*(   2) H  67                  0.00014     1.68500   
  1249. RY*(   3) H  67                  0.00008     1.95825   
  1250. RY*(   4) H  67                  0.00006     2.00142   
  1251. RY*(   5) H  67                  0.00000     2.86655   
  1252. RY*(   1) N  68                  0.00280     0.65918   
  1253. RY*(   2) N  68                  0.00232     1.74387   
  1254. RY*(   3) N  68                  0.00102     2.05709   
  1255. RY*(   4) N  68                  0.00075     2.20753   
  1256. RY*(   5) N  68                  0.00052     1.09461   
  1257. RY*(   6) N  68                  0.00025     2.02892   
  1258. RY*(   7) N  68                  0.00021     1.67461   
  1259. RY*(   8) N  68                  0.00006     2.66469   
  1260. RY*(   9) N  68                  0.00006     2.39665   
  1261. RY*(  10) N  68                  0.00006     2.53351   
  1262. RY*(  11) N  68                  0.00006     3.76600   
  1263. RY*(  12) N  68                  0.00000    30.65473   
  1264. RY*(  13) N  68                  0.00001     4.24970   
  1265. RY*(  14) N  68                  0.00000     2.65569   
  1266. RY*(  15) N  68                  0.00000     3.29099   
  1267. RY*(  16) N  68                  0.00000     2.07045   
  1268. RY*(  17) N  68                  0.00000     4.54352   
  1269. RY*(  18) N  68                  0.00000     3.85679   
  1270. RY*(  19) N  68                  0.00001     4.05878   
  1271. RY*(  20) N  68                  0.00000     4.62368   
  1272. RY*(  21) N  68                  0.00000     4.53940   
  1273. RY*(  22) N  68                  0.00000     4.34795   
  1274. RY*(  23) N  68                  0.00000     4.54034   
  1275. RY*(  24) N  68                  0.00000     4.28197   
  1276. RY*(  25) N  68                  0.00000     4.51406   
  1277. RY*(  26) N  68                  0.00000     4.39465   
  1278. RY*(   1) H  69                  0.00057     2.14075   
  1279. RY*(   2) H  69                  0.00039     2.14665   
  1280. RY*(   3) H  69                  0.00029     1.08787   
  1281. RY*(   4) H  69                  0.00021     2.43802   
  1282. RY*(   5) H  69                  0.00001     3.04902   
  1283. RY*(   1) C  70                  0.00418     1.66244   
  1284. RY*(   2) C  70                  0.00256     0.99276   
  1285. RY*(   3) C  70                  0.00187     1.44291   
  1286. RY*(   4) C  70                  0.00166     2.01480   
  1287. RY*(   5) C  70                  0.00120     1.71044   
  1288. RY*(   6) C  70                  0.00109     1.66325   
  1289. RY*(   7) C  70                  0.00038     2.86008   
  1290. RY*(   8) C  70                  0.00019     2.75854   
  1291. RY*(   9) C  70                  0.00016     2.31192   
  1292. RY*(  10) C  70                  0.00008     3.50615   
  1293. RY*(  11) C  70                  0.00003     2.70630   
  1294. RY*(  12) C  70                  0.00001     1.93466   
  1295. RY*(  13) C  70                  0.00002     2.32424   
  1296. RY*(  14) C  70                  0.00000     1.13339   
  1297. RY*(  15) C  70                  0.00001     2.76459   
  1298. RY*(  16) C  70                  0.00001     1.29866   
  1299. RY*(  17) C  70                  0.00000     3.21336   
  1300. RY*(  18) C  70                  0.00000    20.62181   
  1301. RY*(  19) C  70                  0.00001     2.19318   
  1302. RY*(  20) C  70                  0.00000     3.96424   
  1303. RY*(  21) C  70                  0.00000     3.82433   
  1304. RY*(  22) C  70                  0.00000     3.53266   
  1305. RY*(  23) C  70                  0.00000     3.74370   
  1306. RY*(  24) C  70                  0.00000     3.40823   
  1307. RY*(  25) C  70                  0.00000     3.49503   
  1308. RY*(  26) C  70                  0.00000     3.47136   
  1309. RY*(   1) C  71                  0.00408     1.56488   
  1310. RY*(   2) C  71                  0.00317     0.68189   
  1311. RY*(   3) C  71                  0.00206     1.31663   
  1312. RY*(   4) C  71                  0.00130     2.48338   
  1313. RY*(   5) C  71                  0.00079     1.61471   
  1314. RY*(   6) C  71                  0.00040     1.57868   
  1315. RY*(   7) C  71                  0.00032     1.69461   
  1316. RY*(   8) C  71                  0.00011     2.88881   
  1317. RY*(   9) C  71                  0.00005     3.68808   
  1318. RY*(  10) C  71                  0.00005     2.22402   
  1319. RY*(  11) C  71                  0.00004     1.97544   
  1320. RY*(  12) C  71                  0.00003     1.44972   
  1321. RY*(  13) C  71                  0.00001     2.19903   
  1322. RY*(  14) C  71                  0.00001     2.99189   
  1323. RY*(  15) C  71                  0.00001     2.66631   
  1324. RY*(  16) C  71                  0.00001     3.61087   
  1325. RY*(  17) C  71                  0.00001     2.74719   
  1326. RY*(  18) C  71                  0.00000    21.32291   
  1327. RY*(  19) C  71                  0.00000     3.08458   
  1328. RY*(  20) C  71                  0.00001     3.75939   
  1329. RY*(  21) C  71                  0.00001     4.15421   
  1330. RY*(  22) C  71                  0.00000     3.52754   
  1331. RY*(  23) C  71                  0.00000     3.85641   
  1332. RY*(  24) C  71                  0.00000     3.50163   
  1333. RY*(  25) C  71                  0.00000     3.52861   
  1334. RY*(  26) C  71                  0.00000     3.39874   
  1335. RY*(   1) H  72                  0.00063     0.74069   
  1336. RY*(   2) H  72                  0.00028     2.38568   
  1337. RY*(   3) H  72                  0.00021     2.06584   
  1338. RY*(   4) H  72                  0.00011     2.38394   
  1339. RY*(   5) H  72                  0.00002     3.14604   
  1340. RY*(   1) N  73                  0.00593     1.38481   
  1341. RY*(   2) N  73                  0.00550     0.96373   
  1342. RY*(   3) N  73                  0.00537     1.42707   
  1343. RY*(   4) N  73                  0.00119     1.39945   
  1344. RY*(   5) N  73                  0.00066     1.78567   
  1345. RY*(   6) N  73                  0.00042     2.23237   
  1346. RY*(   7) N  73                  0.00036     3.04080   
  1347. RY*(   8) N  73                  0.00033     3.20758   
  1348. RY*(   9) N  73                  0.00010     2.79219   
  1349. RY*(  10) N  73                  0.00009     2.50796   
  1350. RY*(  11) N  73                  0.00007     3.16570   
  1351. RY*(  12) N  73                  0.00008     3.14266   
  1352. RY*(  13) N  73                  0.00005     3.01136   
  1353. RY*(  14) N  73                  0.00002     3.83816   
  1354. RY*(  15) N  73                  0.00003     4.26808   
  1355. RY*(  16) N  73                  0.00001     4.66919   
  1356. RY*(  17) N  73                  0.00001     4.57551   
  1357. RY*(  18) N  73                  0.00000    31.71842   
  1358. RY*(  19) N  73                  0.00001     4.23149   
  1359. RY*(  20) N  73                  0.00000     4.37866   
  1360. RY*(  21) N  73                  0.00001     4.11108   
  1361. RY*(  22) N  73                  0.00000     4.13487   
  1362. RY*(  23) N  73                  0.00000     4.73420   
  1363. RY*(  24) N  73                  0.00000     4.64922   
  1364. RY*(  25) N  73                  0.00000     4.76507   
  1365. RY*(  26) N  73                  0.00000     4.50602   
  1366. RY*(   1) C  74                  0.00357     1.64054   
  1367. RY*(   2) C  74                  0.00248     0.71677   
  1368. RY*(   3) C  74                  0.00172     1.76504   
  1369. RY*(   4) C  74                  0.00064     2.05226   
  1370. RY*(   5) C  74                  0.00057     1.64547   
  1371. RY*(   6) C  74                  0.00047     1.69563   
  1372. RY*(   7) C  74                  0.00043     2.01166   
  1373. RY*(   8) C  74                  0.00020     1.58153   
  1374. RY*(   9) C  74                  0.00015     1.83237   
  1375. RY*(  10) C  74                  0.00013     1.68942   
  1376. RY*(  11) C  74                  0.00008     1.96626   
  1377. RY*(  12) C  74                  0.00006     1.99508   
  1378. RY*(  13) C  74                  0.00005     2.67273   
  1379. RY*(  14) C  74                  0.00003     2.49692   
  1380. RY*(  15) C  74                  0.00002     5.48386   
  1381. RY*(  16) C  74                  0.00002     1.60926   
  1382. RY*(  17) C  74                  0.00000     3.62301   
  1383. RY*(  18) C  74                  0.00000     3.20202   
  1384. RY*(  19) C  74                  0.00000    18.84536   
  1385. RY*(  20) C  74                  0.00001     3.31688   
  1386. RY*(  21) C  74                  0.00001     4.18315   
  1387. RY*(  22) C  74                  0.00000     3.46266   
  1388. RY*(  23) C  74                  0.00000     3.63590   
  1389. RY*(  24) C  74                  0.00000     3.43889   
  1390. RY*(  25) C  74                  0.00000     3.66914   
  1391. RY*(  26) C  74                  0.00000     3.35211   
  1392. RY*(   1) H  75                  0.00056     0.93679   
  1393. RY*(   2) H  75                  0.00024     2.24778   
  1394. RY*(   3) H  75                  0.00021     2.14260   
  1395. RY*(   4) H  75                  0.00006     2.65386   
  1396. RY*(   5) H  75                  0.00001     3.05371   
  1476. BD*(   1) C  64 - H  65          0.01185     0.35336   
  1477. BD*(   1) C  64 - H  66          0.00341     0.36677   
  1478. BD*(   1) C  64 - H  67          0.01142     0.35350   
  1479. BD*(   1) C  64 - C  70          0.01349     0.38216   
  1480. BD*(   1) N  68 - H  69          0.01398     0.35899   
  1481. BD*(   1) N  68 - C  70          0.02730     0.42190   
  1482. BD*(   1) N  68 - C  71          0.02231     0.43696   
  1483. BD*(   1) C  70 - C  74          0.02102     0.55657   
  1484. BD*(   2) C  70 - C  74          0.29749     0.02604  1487(v),1476(v),1478(v)
                                                    1372(g),1287(g)
  1485. BD*(   1) C  71 - H  72          0.01743     0.38012   
  1486. BD*(   1) C  71 - N  73          0.01519     0.52619   
  1487. BD*(   2) C  71 - N  73          0.42321    -0.01662  1484(v),1310(g),1367(v)
                                                    151(r),1406(r),148(r)
                                                    1400(r)
  1488. BD*(   1) N  73 - C  74          0.01542     0.46939   
  1489. BD*(   1) C  74 - H  75          0.01368     0.41951   
       -------------------------------
              Total Lewis   42.71146  ( 97.7541%)
        Valence non-Lewis    0.90719  (  2.0763%)
        Rydberg non-Lewis    0.07409  (  0.1696%)
       -------------------------------
            Total unit  3   43.69274  (100.0000%)
           Charge unit  3    0.30726
 Unable to Open any file for archive entry.
 1\1\GINC-BGN1040\SP\RAPFD\def2TZVP\C34H34Fe1N6\BEBJONES\12-Aug-2024\0\
 \# apfd/def2TZVP int=(grid=ultrafine) geom=check guess=read pop=nbo sc
 f=qc\\1fcs_II_S_nbo\\0,1\Fe,0,35.1958563583,4.4584438744,10.085466226\
 N,0,37.1650929193,4.263767918,9.7643385013\N,0,35.6348349866,3.4267045
 12,11.8740390189\N,0,33.4293856223,4.9182090091,11.016114438\N,0,34.80
 9129781,5.6196345,8.6523586429\C,0,37.6994344917,4.7353018349,8.594393
 4902\C,0,39.0568105479,4.2663645834,8.4269025993\C,0,39.3353625075,3.5
 045303475,9.5199528997\C,0,38.1459465333,3.5229096967,10.336304164\C,0
 ,36.8192277448,2.868994033,12.2706135428\C,0,36.6608891113,2.089881200
 8,13.4768010429\C,0,35.3725942006,2.2617559165,13.868733142\C,0,34.752
 2181691,3.0968345064,12.8628822653\C,0,32.8225461017,4.3814730914,12.1
 007109298\C,0,31.5254965301,4.9837273485,12.3268669356\C,0,31.30926204
 25,5.81861286,11.261818458\C,0,32.4976983048,5.7543217849,10.450479550
 6\C,0,33.7551227454,6.4518606868,8.4447322828\C,0,33.8886737578,7.1356
 452912,7.1730316909\C,0,35.1404780288,6.821521317,6.7098771531\C,0,35.
 7268154706,5.9332189267,7.6845772733\C,0,37.0506997324,5.5272590651,7.
 6619648031\H,0,37.6424442079,5.860954273,6.8221261026\C,0,37.998374057
 4,2.875689845,11.5453691148\H,0,38.8459418859,2.3441771042,11.94931788
 93\C,0,33.4447983736,3.5210912922,12.980537748\H,0,32.8845861796,3.177
 5089226,13.8357961053\C,0,32.6390348137,6.4632114134,9.2639585656\H,0,
 31.8283392982,7.1222603522,8.9908541757\C,0,39.9274179954,4.5913861926
 ,7.2620546328\H,0,40.0694393582,5.6690205025,7.1799356113\H,0,39.47613
 57254,4.2378044677,6.3346955102\H,0,40.9039902814,4.125337674,7.367665
 1102\C,0,40.5833727066,2.7738513967,9.8791697787\H,0,40.3838651278,1.7
 091602158,10.0046147849\H,0,40.9898158735,3.1529253051,10.8170865783\H
 ,0,41.3385886224,2.8925682382,9.1062437023\C,0,35.7853254309,7.2277713
 892,5.431171675\H,0,36.3911194217,6.4160962572,5.0313355926\H,0,36.433
 5901766,8.0929678628,5.5797210775\H,0,35.0258845425,7.4908353343,4.697
 6395392\C,0,32.8747090995,7.9919690232,6.6000407383\H,0,31.8530344474,
 7.7309373653,6.8511273975\C,0,33.0933218922,9.0469189673,5.8210337659\
 H,0,34.0840594921,9.3877729984,5.5785766115\H,0,32.278074772,9.6271068
 595,5.4214891108\C,0,30.0931738931,6.6183384995,10.9486618732\H,0,29.8
 641719014,6.5721521161,9.8848580823\H,0,30.235946064,7.6659517657,11.2
 180090806\H,0,29.2408426956,6.2328344008,11.504133711\C,0,30.656080564
 9,4.6675001421,13.4379931127\H,0,30.7174359972,3.6497157004,13.8059956
 543\C,0,29.8231823247,5.5176008925,14.0295907044\H,0,29.7575824181,6.5
 514948902,13.7389985326\H,0,29.1941136361,5.2111126294,14.8488572531\C
 ,0,34.66897404,1.7109189333,15.0611995991\H,0,34.3262820104,2.51844515
 21,15.7090378968\H,0,35.3323878288,1.0700100348,15.6371998502\H,0,33.8
 001022097,1.124456191,14.760597716\C,0,37.7586929452,1.3303224782,14.1
 395825512\H,0,38.1507399219,0.5604456298,13.4740576025\H,0,37.40097654
 5,0.8481580206,15.0459381401\H,0,38.5790006661,1.9966778837,14.4068673
 186\C,0,32.2755551479,0.6283011446,7.2630982869\H,0,32.6567035759,0.27
 37904396,6.3053696875\H,0,31.4460175279,1.3037662029,7.0787433418\H,0,
 31.9085427441,-0.231436322,7.8233545946\N,0,34.4914768622,0.7217084457
 ,8.4247449021\H,0,34.7332786731,-0.241075593,8.2566016003\C,0,33.33559
 22263,1.3375444516,8.0229077625\C,0,35.235593432,1.6358914375,9.088116
 2483\H,0,36.1950967501,1.4319776182,9.5192671127\N,0,34.6215291471,2.7
 964044481,9.1315323685\C,0,33.4371586387,2.6237954911,8.4697880753\H,0
 ,32.7429301426,3.4329013184,8.3643773722\\Version=ES64L-G16RevC.02\Sta
 te=1-A\HF=-2907.587539\RMSD=8.432e-10\Dipole=-0.0228309,-2.3873644,-1.
 0888216\Quadrupole=-1.5420329,6.6304234,-5.0883905,-1.3834169,0.145502
 6,1.9122157\PG=C01 [X(C34H34Fe1N6)]\\@
 The archive entry for this job was punched.


 THE MEEK SHALL INHERIT THE EARTH.
 (THE REST OF US WILL ESCAPE TO THE STARS)
 Job cpu time:       0 days  0 hours 43 minutes 44.4 seconds.
 Elapsed time:       0 days  0 hours  0 minutes 56.0 seconds.
 File lengths (MBytes):  RWF=    749 Int=      0 D2E=      0 Chk=    150 Scr=      1
 Normal termination of Gaussian 16 at Mon Aug 12 21:54:03 2024.
