 Entering Gaussian System, Link 0=g16
 Input=1gdv12.com
 Output=1gdv12.log
 Initial command:
 /sw/chem/gaussian/g16_C02/a100/g16/l1.exe "/local/bebjones_7947544/Gau-1749344.inp" -scrdir="/local/bebjones_7947544/"
 Entering Link 1 = /sw/chem/gaussian/g16_C02/a100/g16/l1.exe PID=   1749345.
  
 Copyright (c) 1988-2021, Gaussian, Inc.  All Rights Reserved.
  
 This is part of the Gaussian(R) 16 program.  It is based on
 the Gaussian(R) 09 system (copyright 2009, Gaussian, Inc.),
 the Gaussian(R) 03 system (copyright 2003, Gaussian, Inc.),
 the Gaussian(R) 98 system (copyright 1998, Gaussian, Inc.),
 the Gaussian(R) 94 system (copyright 1995, Gaussian, Inc.),
 the Gaussian 92(TM) system (copyright 1992, Gaussian, Inc.),
 the Gaussian 90(TM) system (copyright 1990, Gaussian, Inc.),
 the Gaussian 88(TM) system (copyright 1988, Gaussian, Inc.),
 the Gaussian 86(TM) system (copyright 1986, Carnegie Mellon
 University), and the Gaussian 82(TM) system (copyright 1983,
 Carnegie Mellon University). Gaussian is a federally registered
 trademark of Gaussian, Inc.
  
 This software contains proprietary and confidential information,
 including trade secrets, belonging to Gaussian, Inc.
  
 This software is provided under written license and may be
 used, copied, transmitted, or stored only in accord with that
 written license.
  
 The following legend is applicable only to US Government
 contracts under FAR:
  
                    RESTRICTED RIGHTS LEGEND
  
 Use, reproduction and disclosure by the US Government is
 subject to restrictions as set forth in subparagraphs (a)
 and (c) of the Commercial Computer Software - Restricted
 Rights clause in FAR 52.227-19.
  
 Gaussian, Inc.
 340 Quinnipiac St., Bldg. 40, Wallingford CT 06492
  
  
 ---------------------------------------------------------------
 Warning -- This program may not be used in any manner that
 competes with the business of Gaussian, Inc. or will provide
 assistance to any competitor of Gaussian, Inc.  The licensee
 of this program is prohibited from giving any competitor of
 Gaussian, Inc. access to this program.  By using this program,
 the user acknowledges that Gaussian, Inc. is engaged in the
 business of creating and licensing software in the field of
 computational chemistry and represents and warrants to the
 licensee that it is not a competitor of Gaussian, Inc. and that
 it will not use this program in any manner prohibited above.
 ---------------------------------------------------------------
  

 Cite this work as:
 Gaussian 16, Revision C.02,
 M. J. Frisch, G. W. Trucks, H. B. Schlegel, G. E. Scuseria, 
 M. A. Robb, J. R. Cheeseman, G. Scalmani, V. Barone, 
 G. A. Petersson, H. Nakatsuji, X. Li, M. Caricato, A. V. Marenich, 
 J. Bloino, B. G. Janesko, R. Gomperts, B. Mennucci, H. P. Hratchian, 
 J. V. Ortiz, A. F. Izmaylov, J. L. Sonnenberg, D. Williams-Young, 
 F. Ding, F. Lipparini, F. Egidi, J. Goings, B. Peng, A. Petrone, 
 T. Henderson, D. Ranasinghe, V. G. Zakrzewski, J. Gao, N. Rega, 
 G. Zheng, W. Liang, M. Hada, M. Ehara, K. Toyota, R. Fukuda, 
 J. Hasegawa, M. Ishida, T. Nakajima, Y. Honda, O. Kitao, H. Nakai, 
 T. Vreven, K. Throssell, J. A. Montgomery, Jr., J. E. Peralta, 
 F. Ogliaro, M. J. Bearpark, J. J. Heyd, E. N. Brothers, K. N. Kudin, 
 V. N. Staroverov, T. A. Keith, R. Kobayashi, J. Normand, 
 K. Raghavachari, A. P. Rendell, J. C. Burant, S. S. Iyengar, 
 J. Tomasi, M. Cossi, J. M. Millam, M. Klene, C. Adamo, R. Cammi, 
 J. W. Ochterski, R. L. Martin, K. Morokuma, O. Farkas, 
 J. B. Foresman, and D. J. Fox, Gaussian, Inc., Wallingford CT, 2019.
 
 ******************************************
 Gaussian 16:  ES64L-G16RevC.02  7-Dec-2021
                23-Jul-2024 
 ******************************************
 %mem=16GB
 %CPU=0-71
 SetSPE:  set environment variable "OMP_PROC_BIND" = "true"
 SetSPE:  set environment variable "OMP_PLACES" = "{0},{1},{2},{3},{4},{5},{6},{7},{8},{9},{10},{11},{12},{13},{14},{15},{16},{17},{18},{19},{20},{21},{22},{23},{24},{25},{26},{27},{28},{29},{30},{31},{32},{33},{34},{35},{36},{37},{38},{39},{40},{41},{42},{43},{44},{45},{46},{47},{48},{49},{50},{51},{52},{53},{54},{55},{56},{57},{58},{59},{60},{61},{62},{63},{64},{65},{66},{67},{68},{69},{70},{71}"
 Will use up to   72 processors via shared memory.
 %gpucpu=0,1,2,3=0,1,2,3
 Will use    4 GPUs:
 Thread  CPU   GPU
      0    0     0
      1    1     1
      2    2     2
      3    3     3
      4    4    -1
      5    5    -1
      6    6    -1
      7    7    -1
      8    8    -1
      9    9    -1
     10   10    -1
     11   11    -1
     12   12    -1
     13   13    -1
     14   14    -1
     15   15    -1
     16   16    -1
     17   17    -1
     18   18    -1
     19   19    -1
     20   20    -1
     21   21    -1
     22   22    -1
     23   23    -1
     24   24    -1
     25   25    -1
     26   26    -1
     27   27    -1
     28   28    -1
     29   29    -1
     30   30    -1
     31   31    -1
     32   32    -1
     33   33    -1
     34   34    -1
     35   35    -1
     36   36    -1
     37   37    -1
     38   38    -1
     39   39    -1
     40   40    -1
     41   41    -1
     42   42    -1
     43   43    -1
     44   44    -1
     45   45    -1
     46   46    -1
     47   47    -1
     48   48    -1
     49   49    -1
     50   50    -1
     51   51    -1
     52   52    -1
     53   53    -1
     54   54    -1
     55   55    -1
     56   56    -1
     57   57    -1
     58   58    -1
     59   59    -1
     60   60    -1
     61   61    -1
     62   62    -1
     63   63    -1
     64   64    -1
     65   65    -1
     66   66    -1
     67   67    -1
     68   68    -1
     69   69    -1
     70   70    -1
     71   71    -1
 SetGPE:  set environment variable "OMP_PROC_BIND" = "true"
 SetGPE:  set environment variable "OMP_PLACES" = "{0},{1},{2},{3},{4},{5},{6},{7},{8},{9},{10},{11},{12},{13},{14},{15},{16},{17},{18},{19},{20},{21},{22},{23},{24},{25},{26},{27},{28},{29},{30},{31},{32},{33},{34},{35},{36},{37},{38},{39},{40},{41},{42},{43},{44},{45},{46},{47},{48},{49},{50},{51},{52},{53},{54},{55},{56},{57},{58},{59},{60},{61},{62},{63},{64},{65},{66},{67},{68},{69},{70},{71}"
 %oldchk=1gdv_II_Sre.chk
 %chk=1gdv_III_Dn.chk
 Properties for Device   0
 Minimum vector length:                              32
 Maximum vector length:                            1024
 Number of SMPs:                                    108
 Maximum number of threads per SMP:                2048
 Number of ASync Engines:                             5
 Memory:                                           9207742464
 Properties for Device   1
 Minimum vector length:                              32
 Maximum vector length:                            1024
 Number of SMPs:                                    108
 Maximum number of threads per SMP:                2048
 Number of ASync Engines:                             5
 Memory:                                           9207742464
 Properties for Device   2
 Minimum vector length:                              32
 Maximum vector length:                            1024
 Number of SMPs:                                    108
 Maximum number of threads per SMP:                2048
 Number of ASync Engines:                             5
 Memory:                                           9207742464
 Properties for Device   3
 Minimum vector length:                              32
 Maximum vector length:                            1024
 Number of SMPs:                                    108
 Maximum number of threads per SMP:                2048
 Number of ASync Engines:                             5
 Memory:                                           9207742464
   8286968217 words of memory will be used on each GPU.
 Copying data from "1gdv_II_Sre.chk" to current chk file "1gdv_III_Dn.chk"
 IOpt=  2 FromEx=T IUOpen= 4 IOptOp= 5 NList=   0 IFRang= 0 IUIn= 4 IUOut= 2.
 --------------------------------------------------------------
 # apfd/def2TZVP guess=read scf=maxcycle=999 geom=check pop=nbo
 --------------------------------------------------------------
 1/29=2,38=1,172=1/1;
 2/12=2,40=1/2;
 3/5=44,7=101,11=2,14=-4,25=1,30=1,74=-44,116=-2/1,2,3;
 4/5=1/1;
 5/5=2,7=999,38=6/2;
 6/7=2,8=2,9=2,10=2,28=1,40=1/1,7;
 99/5=1,9=1/99;
 ----------
 1gdv_III_D
 ----------
 Structure from the checkpoint file:  "1gdv_III_Dn.chk"
 Charge =  1 Multiplicity = 2
 Z-Matrix found in chk file.
 Fe,0,36.9921014805,18.7851378565,27.1780149664
 N,0,38.0746489499,20.1280966578,28.1762955155
 N,0,38.2596802581,18.9346545241,25.6416808083
 N,0,35.9369073798,17.4174016244,26.1687577117
 N,0,35.7154625553,18.6476549736,28.6996246917
 C,0,37.8613758941,20.5535074455,29.4491584779
 C,0,38.8629739543,21.5234552294,29.835898605
 C,0,39.6803524756,21.676166621,28.7601299863
 C,0,39.1483967135,20.8221778531,27.7214247878
 C,0,39.2067262755,19.8917326049,25.4589599923
 C,0,39.8206184976,19.7622994769,24.1596454205
 C,0,39.2474103298,18.6772532807,23.5712216993
 C,0,38.2774862623,18.1708489593,24.516774235
 C,0,36.3178790235,16.7901915994,25.0287227377
 C,0,35.3746124218,15.7461422007,24.6800592379
 C,0,34.3904784548,15.7918082155,25.6320444556
 C,0,34.7734743595,16.827035805,26.5580121015
 C,0,34.5750124254,17.9118971706,28.7528085045
 C,0,33.9338662696,18.0553593436,30.0467862873
 C,0,34.7606893812,18.858986591,30.7872007667
 C,0,35.8467012326,19.2336300508,29.9197747599
 C,0,36.8475503576,20.1208974785,30.2798666848
 H,0,36.8104410184,20.5346450742,31.2760099589
 C,0,39.6357923299,20.7790339083,26.4286287288
 H,0,40.4417200123,21.4498111993,26.1733636524
 C,0,37.4120737496,17.1250427961,24.2542312812
 H,0,37.5678526011,16.5593999418,23.3482086327
 C,0,34.1103213341,17.0860521713,27.7463811067
 H,0,33.1776100261,16.5700873294,27.9158278004
 C,0,38.9348934783,22.1700020268,31.1770995924
 H,0,39.022775959,21.4178909401,31.9619889793
 H,0,38.034727829,22.7549121513,31.3692188099
 H,0,39.793511651,22.8344364405,31.2406155867
 C,0,40.877435213,22.5490445657,28.5966134663
 H,0,40.6843971392,23.3287052497,27.8587702166
 H,0,41.7328260004,21.965868952,28.2551935767
 H,0,41.1404470325,23.0266944336,29.5374776986
 C,0,34.6329600109,19.2583387323,32.216263765
 H,0,34.2061907776,20.2587913187,32.3056563632
 H,0,35.6082821741,19.2637840331,32.700634963
 H,0,33.9856215873,18.5606902946,32.7436707338
 C,0,32.6984679006,17.4117728398,30.4333351371
 H,0,32.5006525147,16.4522192638,29.9684170363
 C,0,31.8052418876,17.9068216984,31.2842670807
 H,0,31.9212669135,18.8761748536,31.7378773617
 H,0,30.9074300539,17.366236317,31.5357696651
 C,0,33.1999978976,14.9073918937,25.770384998
 H,0,32.3064023031,15.3955432215,25.3752073302
 H,0,33.0142757282,14.6622653403,26.8154540956
 H,0,33.3574915965,13.9820635912,25.2195317558
 C,0,35.5051651262,14.8678290932,23.5381649064
 H,0,36.5211489081,14.5961656886,23.2728448553
 C,0,34.5006152215,14.3919674206,22.8091054502
 H,0,33.4763169657,14.6644149773,22.9957861505
 H,0,34.67326884,13.7293929068,21.9766833042
 C,0,39.5505279771,18.11114914,22.2251688413
 H,0,39.7349510648,18.9129979601,21.5105962242
 H,0,38.726762093,17.5074708066,21.8528934673
 H,0,40.4450450759,17.4853303093,22.263719184
 C,0,40.8842025106,20.6568944994,23.622221099
 H,0,40.9745682496,20.5374521425,22.5447761335
 H,0,41.85047679,20.4182739267,24.0707381713
 H,0,40.6580938689,21.7000351348,23.838648539
 C,0,38.8142382408,14.1687268551,29.7221357588
 H,0,39.3331288306,13.4264988998,29.115361664
 H,0,37.8160734054,13.8023546658,29.9408140081
 H,0,39.3580108075,14.2829267804,30.6598834863
 N,0,39.8293231303,16.1841100318,28.6351514372
 H,0,40.7857357679,15.9181044035,28.8037407851
 C,0,38.7219334807,15.4658230599,29.0052452535
 C,0,39.4015568675,17.3044090651,28.0111932482
 H,0,40.0491082126,18.0581336521,27.613114136
 N,0,38.0925162372,17.3386955399,27.9637455768
 C,0,37.6549978234,16.2021040953,28.5763432043
 H,0,36.6097057498,15.990771276,28.6673746308
 C,0,35.0647174788,19.8947289056,23.708825596
 H,0,35.486116988,20.8237005888,23.3315439973
 H,0,34.2945630347,19.5510423362,23.0211068252
 H,0,35.8541834648,19.1492865588,23.7494323357
 C,0,34.4767563685,20.1061148178,25.0900911791
 H,0,34.0489058341,19.1843686574,25.4828117551
 H,0,33.7191961714,20.8906879294,25.0770973825
 S,0,35.7928911168,20.6572356451,26.2475723651
 C,0,34.7157954279,21.3236755714,27.5529515224
 H,0,35.3600395939,21.6014014174,28.3802444222
 H,0,34.0095599041,20.5649532749,27.8752206061
 H,0,34.1962916999,22.1987158262,27.1706906912
 Recover connectivity data from disk.
 Stoichiometry    C37H42FeN6S(1+,2)
 Framework group  C1[X(C37H42FeN6S)]
 Deg. of freedom   255
 Full point group                 C1      NOp   1
 Largest Abelian subgroup         C1      NOp   1
 Largest concise Abelian subgroup C1      NOp   1
                         Standard orientation:                         
 ---------------------------------------------------------------------
 Center     Atomic      Atomic             Coordinates (Angstroms)
 Number     Number       Type             X           Y           Z
 ---------------------------------------------------------------------
      1         26           0       -0.033487    0.250391   -0.110556
      2          7           0       -1.197768    1.867880   -0.096634
      3          7           0        1.574508    1.431321   -0.014678
      4          7           0        1.153541   -1.360023   -0.094226
      5          7           0       -1.633067   -0.929475   -0.225714
      6          6           0       -2.556485    1.885794   -0.082272
      7          6           0       -3.047086    3.246828   -0.060738
      8          6           0       -1.948342    4.047693   -0.069865
      9          6           0       -0.803639    3.166032   -0.129102
     10          6           0        1.610251    2.774491   -0.216908
     11          6           0        2.970659    3.255237   -0.219727
     12          6           0        3.759963    2.173606    0.023601
     13          6           0        2.866946    1.043656    0.153994
     14          6           0        2.480436   -1.376693    0.183773
     15          6           0        2.968779   -2.739212    0.263905
     16          6           0        1.894645   -3.543195   -0.013093
     17          6           0        0.772685   -2.661727   -0.213141
     18          6           0       -1.650629   -2.282432   -0.344017
     19          6           0       -3.015172   -2.775797   -0.369335
     20          6           0       -3.814379   -1.674914   -0.205050
     21          6           0       -2.932964   -0.538450   -0.143702
     22          6           0       -3.372953    0.772986   -0.071916
     23          1           0       -4.439028    0.938855   -0.042954
     24          6           0        0.501738    3.599332   -0.266867
     25          1           0        0.670260    4.660294   -0.369731
     26          6           0        3.288930   -0.263496    0.311665
     27          1           0        4.338947   -0.433820    0.494832
     28          6           0       -0.533192   -3.095676   -0.372692
     29          1           0       -0.691995   -4.157053   -0.487338
     30          6           0       -4.489265    3.621049   -0.014979
     31          1           0       -4.971775    3.184976    0.860503
     32          1           0       -5.007855    3.257152   -0.902656
     33          1           0       -4.607305    4.701210    0.030317
     34          6           0       -1.860796    5.535587   -0.056808
     35          1           0       -1.449089    5.902788   -0.997662
     36          1           0       -1.211097    5.873877    0.750537
     37          1           0       -2.843131    5.980581    0.083008
     38          6           0       -5.295964   -1.614491   -0.066221
     39          1           0       -5.766390   -1.344762   -1.013308
     40          1           0       -5.580680   -0.869589    0.675369
     41          1           0       -5.682691   -2.582528    0.245654
     42          6           0       -3.389351   -4.166678   -0.492918
     43          1           0       -2.689459   -4.882502   -0.076061
     44          6           0       -4.493866   -4.618287   -1.078673
     45          1           0       -5.200462   -3.960361   -1.554830
     46          1           0       -4.715539   -5.671939   -1.125903
     47          6           0        1.835363   -5.031471   -0.022759
     48          1           0        1.896617   -5.415254   -1.043508
     49          1           0        0.903843   -5.388580    0.414840
     50          1           0        2.666485   -5.440983    0.548217
     51          6           0        4.332462   -3.106928    0.576239
     52          1           0        4.841559   -2.455853    1.278620
     53          6           0        4.987714   -4.148320    0.073008
     54          1           0        4.550366   -4.800913   -0.662596
     55          1           0        6.002241   -4.368867    0.362551
     56          6           0        5.246623    2.144817    0.138606
     57          1           0        5.695187    2.822114   -0.587787
     58          1           0        5.640048    1.147232   -0.039290
     59          1           0        5.561616    2.465855    1.134102
     60          6           0        3.377411    4.672761   -0.433069
     61          1           0        4.436619    4.733587   -0.673274
     62          1           0        3.200931    5.263374    0.467944
     63          1           0        2.809839    5.119571   -1.248134
     64          6           0       -0.649345   -1.281950    5.216417
     65          1           0        0.239477   -1.291060    5.847477
     66          1           0       -0.912266   -2.306372    4.971848
     67          1           0       -1.466372   -0.837433    5.784724
     68          7           0       -0.088299    0.814488    3.965866
     69          1           0        0.003482    1.396824    4.782179
     70          6           0       -0.401530   -0.520092    3.966188
     71          6           0        0.069784    1.198117    2.679314
     72          1           0        0.318239    2.193102    2.372447
     73          7           0       -0.123878    0.188787    1.866441
     74          6           0       -0.416469   -0.886996    2.651055
     75          1           0       -0.616853   -1.846404    2.220976
     76          6           0        2.524622   -0.390810   -3.276975
     77          1           0        2.659593    0.531648   -3.837120
     78          1           0        3.140626   -1.168809   -3.723600
     79          1           0        2.856867   -0.225937   -2.255692
     80          6           0        1.066558   -0.805740   -3.289526
     81          1           0        0.913790   -1.729767   -2.732985
     82          1           0        0.701829   -0.923112   -4.310711
     83         16           0        0.041781    0.502690   -2.506231
     84          6           0       -1.572634   -0.015608   -3.164502
     85          1           0       -2.320209    0.614594   -2.694850
     86          1           0       -1.758919   -1.055559   -2.915332
     87          1           0       -1.579488    0.131636   -4.241524
 ---------------------------------------------------------------------
 Rotational constants (GHZ):           0.0830011           0.0815639           0.0583049
 Standard basis: def2TZVP (5D, 7F)
 There are  1894 symmetry adapted cartesian basis functions of A   symmetry.
 There are  1667 symmetry adapted basis functions of A   symmetry.
  1667 basis functions,  2700 primitive gaussians,  1894 cartesian basis functions
   174 alpha electrons      173 beta electrons
       nuclear repulsion energy      7156.6479024634 Hartrees.
 NAtoms=   87 NActive=   87 NUniq=   87 SFac= 1.00D+00 NAtFMM=   60 NAOKFM=T Big=T
 Integral buffers will be    131072 words long.
 Raffenetti 2 integral format.
 Two-electron integral symmetry is turned on.
 R6APFD:  NTU= -4 IXU= 1 FactS= 1.050
 Nuclear repulsion after empirical dispersion term =     7156.4646857399 Hartrees.
 One-electron integrals computed using PRISM.
   1 Symmetry operations used in ECPInt.
 ECPInt:  NShTT=  224115 NPrTT=  692067 LenC2=  178447 LenP2D=  363297.
 LDataN:  DoStor=T MaxTD1= 6 Len=  172
 Number of processors reduced to  21 by ecpmxn.
 NBasis=  1667 RedAO= T EigKep=  3.60D-06  NBF=  1667
 NBsUse=  1667 1.00D-06 EigRej= -1.00D+00 NBFU=  1667
 Initial guess from the checkpoint file:  "1gdv_III_Dn.chk"
 B after Tr=     0.000000   -0.000000    0.000000
         Rot=    1.000000   -0.000000   -0.000000    0.000000 Ang=   0.00 deg.
 Initial guess <Sx>= 0.0000 <Sy>= 0.0000 <Sz>= 0.5000 <S**2>= 0.8077 S= 0.5285
 Requested convergence on RMS density matrix=1.00D-08 within 999 cycles.
 Requested convergence on MAX density matrix=1.00D-06.
 Requested convergence on             energy=1.00D-06.
 No special actions if energy rises.
 EnCoef did     7 forward-backward iterations
 Restarting incremental Fock formation.
 Restarting incremental Fock formation.
 SCF Done:  E(UAPFD) =  -3424.66934374     A.U. after   41 cycles
            NFock= 41  Conv=0.24D-08     -V/T= 2.0033
 <Sx>= 0.0000 <Sy>= 0.0000 <Sz>= 0.5000 <S**2>= 0.8148 S= 0.5319
 <L.S>=  0.00000000000    
 Annihilation of the first spin contaminant:
 S**2 before annihilation     0.8148,   after     0.7512

 **********************************************************************

            Population analysis using the SCF Density.

 **********************************************************************

 Orbital symmetries:
 Alpha Orbitals:
       Occupied  (A) (A) (A) (A) (A) (A) (A) (A) (A) (A) (A) (A)
                 (A) (A) (A) (A) (A) (A) (A) (A) (A) (A) (A) (A)
                 (A) (A) (A) (A) (A) (A) (A) (A) (A) (A) (A) (A)
                 (A) (A) (A) (A) (A) (A) (A) (A) (A) (A) (A) (A)
                 (A) (A) (A) (A) (A) (A) (A) (A) (A) (A) (A) (A)
                 (A) (A) (A) (A) (A) (A) (A) (A) (A) (A) (A) (A)
                 (A) (A) (A) (A) (A) (A) (A) (A) (A) (A) (A) (A)
                 (A) (A) (A) (A) (A) (A) (A) (A) (A) (A) (A) (A)
                 (A) (A) (A) (A) (A) (A) (A) (A) (A) (A) (A) (A)
                 (A) (A) (A) (A) (A) (A) (A) (A) (A) (A) (A) (A)
                 (A) (A) (A) (A) (A) (A) (A) (A) (A) (A) (A) (A)
                 (A) (A) (A) (A) (A) (A) (A) (A) (A) (A) (A) (A)
                 (A) (A) (A) (A) (A) (A) (A) (A) (A) (A) (A) (A)
                 (A) (A) (A) (A) (A) (A) (A) (A) (A) (A) (A) (A)
                 (A) (A) (A) (A) (A) (A)
       Virtual   (A) (A) (A) (A) (A) (A) (A) (A) (A) (A) (A) (A)
                 (A) (A) (A) (A) (A) (A) (A) (A) (A) (A) (A) (A)
                 (A) (A) (A) (A) (A) (A) (A) (A) (A) (A) (A) (A)
                 (A) (A) (A) (A) (A) (A) (A) (A) (A) (A) (A) (A)
                 (A) (A) (A) (A) (A) (A) (A) (A) (A) (A) (A) (A)
                 (A) (A) (A) (A) (A) (A) (A) (A) (A) (A) (A) (A)
                 (A) (A) (A) (A) (A) (A) (A) (A) (A) (A) (A) (A)
                 (A) (A) (A) (A) (A) (A) (A) (A) (A) (A) (A) (A)
                 (A) (A) (A) (A) (A) (A) (A) (A) (A) (A) (A) (A)
                 (A) (A) (A) (A) (A) (A) (A) (A) (A) (A) (A) (A)
                 (A) (A) (A) (A) (A) (A) (A) (A) (A) (A) (A) (A)
                 (A) (A) (A) (A) (A) (A) (A) (A) (A) (A) (A) (A)
                 (A) (A) (A) (A) (A) (A) (A) (A) (A) (A) (A) (A)
                 (A) (A) (A) (A) (A) (A) (A) (A) (A) (A) (A) (A)
                 (A) (A) (A) (A) (A) (A) (A) (A) (A) (A) (A) (A)
                 (A) (A) (A) (A) (A) (A) (A) (A) (A) (A) (A) (A)
                 (A) (A) (A) (A) (A) (A) (A) (A) (A) (A) (A) (A)
                 (A) (A) (A) (A) (A) (A) (A) (A) (A) (A) (A) (A)
                 (A) (A) (A) (A) (A) (A) (A) (A) (A) (A) (A) (A)
                 (A) (A) (A) (A) (A) (A) (A) (A) (A) (A) (A) (A)
                 (A) (A) (A) (A) (A) (A) (A) (A) (A) (A) (A) (A)
                 (A) (A) (A) (A) (A) (A) (A) (A) (A) (A) (A) (A)
                 (A) (A) (A) (A) (A) (A) (A) (A) (A) (A) (A) (A)
                 (A) (A) (A) (A) (A) (A) (A) (A) (A) (A) (A) (A)
                 (A) (A) (A) (A) (A) (A) (A) (A) (A) (A) (A) (A)
                 (A) (A) (A) (A) (A) (A) (A) (A) (A) (A) (A) (A)
                 (A) (A) (A) (A) (A) (A) (A) (A) (A) (A) (A) (A)
                 (A) (A) (A) (A) (A) (A) (A) (A) (A) (A) (A) (A)
                 (A) (A) (A) (A) (A) (A) (A) (A) (A) (A) (A) (A)
                 (A) (A) (A) (A) (A) (A) (A) (A) (A) (A) (A) (A)
                 (A) (A) (A) (A) (A) (A) (A) (A) (A) (A) (A) (A)
                 (A) (A) (A) (A) (A) (A) (A) (A) (A) (A) (A) (A)
                 (A) (A) (A) (A) (A) (A) (A) (A) (A) (A) (A) (A)
                 (A) (A) (A) (A) (A) (A) (A) (A) (A) (A) (A) (A)
                 (A) (A) (A) (A) (A) (A) (A) (A) (A) (A) (A) (A)
                 (A) (A) (A) (A) (A) (A) (A) (A) (A) (A) (A) (A)
                 (A) (A) (A) (A) (A) (A) (A) (A) (A) (A) (A) (A)
                 (A) (A) (A) (A) (A) (A) (A) (A) (A) (A) (A) (A)
                 (A) (A) (A) (A) (A) (A) (A) (A) (A) (A) (A) (A)
                 (A) (A) (A) (A) (A) (A) (A) (A) (A) (A) (A) (A)
                 (A) (A) (A) (A) (A) (A) (A) (A) (A) (A) (A) (A)
                 (A) (A) (A) (A) (A) (A) (A) (A) (A) (A) (A) (A)
                 (A) (A) (A) (A) (A) (A) (A) (A) (A) (A) (A) (A)
                 (A) (A) (A) (A) (A) (A) (A) (A) (A) (A) (A) (A)
                 (A) (A) (A) (A) (A) (A) (A) (A) (A) (A) (A) (A)
                 (A) (A) (A) (A) (A) (A) (A) (A) (A) (A) (A) (A)
                 (A) (A) (A) (A) (A) (A) (A) (A) (A) (A) (A) (A)
                 (A) (A) (A) (A) (A) (A) (A) (A) (A) (A) (A) (A)
                 (A) (A) (A) (A) (A) (A) (A) (A) (A) (A) (A) (A)
                 (A) (A) (A) (A) (A) (A) (A) (A) (A) (A) (A) (A)
                 (A) (A) (A) (A) (A) (A) (A) (A) (A) (A) (A) (A)
                 (A) (A) (A) (A) (A) (A) (A) (A) (A) (A) (A) (A)
                 (A) (A) (A) (A) (A) (A) (A) (A) (A) (A) (A) (A)
                 (A) (A) (A) (A) (A) (A) (A) (A) (A) (A) (A) (A)
                 (A) (A) (A) (A) (A) (A) (A) (A) (A) (A) (A) (A)
                 (A) (A) (A) (A) (A) (A) (A) (A) (A) (A) (A) (A)
                 (A) (A) (A) (A) (A) (A) (A) (A) (A) (A) (A) (A)
                 (A) (A) (A) (A) (A) (A) (A) (A) (A) (A) (A) (A)
                 (A) (A) (A) (A) (A) (A) (A) (A) (A) (A) (A) (A)
                 (A) (A) (A) (A) (A) (A) (A) (A) (A) (A) (A) (A)
                 (A) (A) (A) (A) (A) (A) (A) (A) (A) (A) (A) (A)
                 (A) (A) (A) (A) (A) (A) (A) (A) (A) (A) (A) (A)
                 (A) (A) (A) (A) (A) (A) (A) (A) (A) (A) (A) (A)
                 (A) (A) (A) (A) (A) (A) (A) (A) (A) (A) (A) (A)
                 (A) (A) (A) (A) (A) (A) (A) (A) (A) (A) (A) (A)
                 (A) (A) (A) (A) (A) (A) (A) (A) (A) (A) (A) (A)
                 (A) (A) (A) (A) (A) (A) (A) (A) (A) (A) (A) (A)
                 (A) (A) (A) (A) (A) (A) (A) (A) (A) (A) (A) (A)
                 (A) (A) (A) (A) (A) (A) (A) (A) (A) (A) (A) (A)
                 (A) (A) (A) (A) (A) (A) (A) (A) (A) (A) (A) (A)
                 (A) (A) (A) (A) (A) (A) (A) (A) (A) (A) (A) (A)
                 (A) (A) (A) (A) (A) (A) (A) (A) (A) (A) (A) (A)
                 (A) (A) (A) (A) (A) (A) (A) (A) (A) (A) (A) (A)
                 (A) (A) (A) (A) (A) (A) (A) (A) (A) (A) (A) (A)
                 (A) (A) (A) (A) (A) (A) (A) (A) (A) (A) (A) (A)
                 (A) (A) (A) (A) (A) (A) (A) (A) (A) (A) (A) (A)
                 (A) (A) (A) (A) (A) (A) (A) (A) (A) (A) (A) (A)
                 (A) (A) (A) (A) (A) (A) (A) (A) (A) (A) (A) (A)
                 (A) (A) (A) (A) (A) (A) (A) (A) (A) (A) (A) (A)
                 (A) (A) (A) (A) (A) (A) (A) (A) (A) (A) (A) (A)
                 (A) (A) (A) (A) (A) (A) (A) (A) (A) (A) (A) (A)
                 (A) (A) (A) (A) (A) (A) (A) (A) (A) (A) (A) (A)
                 (A) (A) (A) (A) (A) (A) (A) (A) (A) (A) (A) (A)
                 (A) (A) (A) (A) (A) (A) (A) (A) (A) (A) (A) (A)
                 (A) (A) (A) (A) (A) (A) (A) (A) (A) (A) (A) (A)
                 (A) (A) (A) (A) (A) (A) (A) (A) (A) (A) (A) (A)
                 (A) (A) (A) (A) (A) (A) (A) (A) (A) (A) (A) (A)
                 (A) (A) (A) (A) (A) (A) (A) (A) (A) (A) (A) (A)
                 (A) (A) (A) (A) (A) (A) (A) (A) (A) (A) (A) (A)
                 (A) (A) (A) (A) (A) (A) (A) (A) (A) (A) (A) (A)
                 (A) (A) (A) (A) (A) (A) (A) (A) (A) (A) (A) (A)
                 (A) (A) (A) (A) (A) (A) (A) (A) (A) (A) (A) (A)
                 (A) (A) (A) (A) (A) (A) (A) (A) (A) (A) (A) (A)
                 (A) (A) (A) (A) (A) (A) (A) (A) (A) (A) (A) (A)
                 (A) (A) (A) (A) (A) (A) (A) (A) (A) (A) (A) (A)
                 (A) (A) (A) (A) (A) (A) (A) (A) (A) (A) (A) (A)
                 (A) (A) (A) (A) (A) (A) (A) (A) (A) (A) (A) (A)
                 (A) (A) (A) (A) (A) (A) (A) (A) (A) (A) (A) (A)
                 (A) (A) (A) (A) (A) (A) (A) (A) (A) (A) (A) (A)
                 (A) (A) (A) (A) (A) (A) (A) (A) (A) (A) (A) (A)
                 (A) (A) (A) (A) (A) (A) (A) (A) (A) (A) (A) (A)
                 (A) (A) (A) (A) (A) (A) (A) (A) (A) (A) (A) (A)
                 (A) (A) (A) (A) (A) (A) (A) (A) (A) (A) (A) (A)
                 (A) (A) (A) (A) (A) (A) (A) (A) (A) (A) (A) (A)
                 (A) (A) (A) (A) (A) (A) (A) (A) (A) (A) (A) (A)
                 (A) (A) (A) (A) (A) (A) (A) (A) (A) (A) (A) (A)
                 (A) (A) (A) (A) (A) (A) (A) (A) (A) (A) (A) (A)
                 (A) (A) (A) (A) (A) (A) (A) (A) (A) (A) (A) (A)
                 (A) (A) (A) (A) (A) (A) (A) (A) (A) (A) (A) (A)
                 (A) (A) (A) (A) (A) (A) (A) (A) (A) (A) (A) (A)
                 (A) (A) (A) (A) (A) (A) (A) (A) (A) (A) (A) (A)
                 (A) (A) (A) (A) (A) (A) (A) (A) (A) (A) (A) (A)
                 (A) (A) (A) (A) (A) (A) (A) (A) (A) (A) (A) (A)
                 (A) (A) (A) (A) (A) (A) (A) (A) (A) (A) (A) (A)
                 (A) (A) (A) (A) (A) (A) (A) (A) (A) (A) (A) (A)
                 (A) (A) (A) (A) (A) (A) (A) (A) (A) (A) (A) (A)
                 (A) (A) (A) (A) (A) (A) (A) (A) (A) (A) (A) (A)
                 (A) (A) (A) (A) (A) (A) (A) (A) (A) (A) (A) (A)
                 (A) (A) (A) (A) (A) (A) (A) (A) (A) (A) (A) (A)
                 (A) (A) (A) (A) (A) (A) (A) (A) (A) (A) (A) (A)
                 (A) (A) (A) (A) (A) (A) (A) (A) (A) (A) (A) (A)
                 (A) (A) (A) (A) (A) (A) (A) (A) (A) (A) (A) (A)
                 (A) (A) (A) (A) (A) (A) (A) (A) (A) (A) (A) (A)
                 (A) (A) (A) (A) (A) (A) (A) (A) (A) (A) (A) (A)
                 (A) (A) (A) (A) (A)
 Beta  Orbitals:
       Occupied  (A) (A) (A) (A) (A) (A) (A) (A) (A) (A) (A) (A)
                 (A) (A) (A) (A) (A) (A) (A) (A) (A) (A) (A) (A)
                 (A) (A) (A) (A) (A) (A) (A) (A) (A) (A) (A) (A)
                 (A) (A) (A) (A) (A) (A) (A) (A) (A) (A) (A) (A)
                 (A) (A) (A) (A) (A) (A) (A) (A) (A) (A) (A) (A)
                 (A) (A) (A) (A) (A) (A) (A) (A) (A) (A) (A) (A)
                 (A) (A) (A) (A) (A) (A) (A) (A) (A) (A) (A) (A)
                 (A) (A) (A) (A) (A) (A) (A) (A) (A) (A) (A) (A)
                 (A) (A) (A) (A) (A) (A) (A) (A) (A) (A) (A) (A)
                 (A) (A) (A) (A) (A) (A) (A) (A) (A) (A) (A) (A)
                 (A) (A) (A) (A) (A) (A) (A) (A) (A) (A) (A) (A)
                 (A) (A) (A) (A) (A) (A) (A) (A) (A) (A) (A) (A)
                 (A) (A) (A) (A) (A) (A) (A) (A) (A) (A) (A) (A)
                 (A) (A) (A) (A) (A) (A) (A) (A) (A) (A) (A) (A)
                 (A) (A) (A) (A) (A)
       Virtual   (A) (A) (A) (A) (A) (A) (A) (A) (A) (A) (A) (A)
                 (A) (A) (A) (A) (A) (A) (A) (A) (A) (A) (A) (A)
                 (A) (A) (A) (A) (A) (A) (A) (A) (A) (A) (A) (A)
                 (A) (A) (A) (A) (A) (A) (A) (A) (A) (A) (A) (A)
                 (A) (A) (A) (A) (A) (A) (A) (A) (A) (A) (A) (A)
                 (A) (A) (A) (A) (A) (A) (A) (A) (A) (A) (A) (A)
                 (A) (A) (A) (A) (A) (A) (A) (A) (A) (A) (A) (A)
                 (A) (A) (A) (A) (A) (A) (A) (A) (A) (A) (A) (A)
                 (A) (A) (A) (A) (A) (A) (A) (A) (A) (A) (A) (A)
                 (A) (A) (A) (A) (A) (A) (A) (A) (A) (A) (A) (A)
                 (A) (A) (A) (A) (A) (A) (A) (A) (A) (A) (A) (A)
                 (A) (A) (A) (A) (A) (A) (A) (A) (A) (A) (A) (A)
                 (A) (A) (A) (A) (A) (A) (A) (A) (A) (A) (A) (A)
                 (A) (A) (A) (A) (A) (A) (A) (A) (A) (A) (A) (A)
                 (A) (A) (A) (A) (A) (A) (A) (A) (A) (A) (A) (A)
                 (A) (A) (A) (A) (A) (A) (A) (A) (A) (A) (A) (A)
                 (A) (A) (A) (A) (A) (A) (A) (A) (A) (A) (A) (A)
                 (A) (A) (A) (A) (A) (A) (A) (A) (A) (A) (A) (A)
                 (A) (A) (A) (A) (A) (A) (A) (A) (A) (A) (A) (A)
                 (A) (A) (A) (A) (A) (A) (A) (A) (A) (A) (A) (A)
                 (A) (A) (A) (A) (A) (A) (A) (A) (A) (A) (A) (A)
                 (A) (A) (A) (A) (A) (A) (A) (A) (A) (A) (A) (A)
                 (A) (A) (A) (A) (A) (A) (A) (A) (A) (A) (A) (A)
                 (A) (A) (A) (A) (A) (A) (A) (A) (A) (A) (A) (A)
                 (A) (A) (A) (A) (A) (A) (A) (A) (A) (A) (A) (A)
                 (A) (A) (A) (A) (A) (A) (A) (A) (A) (A) (A) (A)
                 (A) (A) (A) (A) (A) (A) (A) (A) (A) (A) (A) (A)
                 (A) (A) (A) (A) (A) (A) (A) (A) (A) (A) (A) (A)
                 (A) (A) (A) (A) (A) (A) (A) (A) (A) (A) (A) (A)
                 (A) (A) (A) (A) (A) (A) (A) (A) (A) (A) (A) (A)
                 (A) (A) (A) (A) (A) (A) (A) (A) (A) (A) (A) (A)
                 (A) (A) (A) (A) (A) (A) (A) (A) (A) (A) (A) (A)
                 (A) (A) (A) (A) (A) (A) (A) (A) (A) (A) (A) (A)
                 (A) (A) (A) (A) (A) (A) (A) (A) (A) (A) (A) (A)
                 (A) (A) (A) (A) (A) (A) (A) (A) (A) (A) (A) (A)
                 (A) (A) (A) (A) (A) (A) (A) (A) (A) (A) (A) (A)
                 (A) (A) (A) (A) (A) (A) (A) (A) (A) (A) (A) (A)
                 (A) (A) (A) (A) (A) (A) (A) (A) (A) (A) (A) (A)
                 (A) (A) (A) (A) (A) (A) (A) (A) (A) (A) (A) (A)
                 (A) (A) (A) (A) (A) (A) (A) (A) (A) (A) (A) (A)
                 (A) (A) (A) (A) (A) (A) (A) (A) (A) (A) (A) (A)
                 (A) (A) (A) (A) (A) (A) (A) (A) (A) (A) (A) (A)
                 (A) (A) (A) (A) (A) (A) (A) (A) (A) (A) (A) (A)
                 (A) (A) (A) (A) (A) (A) (A) (A) (A) (A) (A) (A)
                 (A) (A) (A) (A) (A) (A) (A) (A) (A) (A) (A) (A)
                 (A) (A) (A) (A) (A) (A) (A) (A) (A) (A) (A) (A)
                 (A) (A) (A) (A) (A) (A) (A) (A) (A) (A) (A) (A)
                 (A) (A) (A) (A) (A) (A) (A) (A) (A) (A) (A) (A)
                 (A) (A) (A) (A) (A) (A) (A) (A) (A) (A) (A) (A)
                 (A) (A) (A) (A) (A) (A) (A) (A) (A) (A) (A) (A)
                 (A) (A) (A) (A) (A) (A) (A) (A) (A) (A) (A) (A)
                 (A) (A) (A) (A) (A) (A) (A) (A) (A) (A) (A) (A)
                 (A) (A) (A) (A) (A) (A) (A) (A) (A) (A) (A) (A)
                 (A) (A) (A) (A) (A) (A) (A) (A) (A) (A) (A) (A)
                 (A) (A) (A) (A) (A) (A) (A) (A) (A) (A) (A) (A)
                 (A) (A) (A) (A) (A) (A) (A) (A) (A) (A) (A) (A)
                 (A) (A) (A) (A) (A) (A) (A) (A) (A) (A) (A) (A)
                 (A) (A) (A) (A) (A) (A) (A) (A) (A) (A) (A) (A)
                 (A) (A) (A) (A) (A) (A) (A) (A) (A) (A) (A) (A)
                 (A) (A) (A) (A) (A) (A) (A) (A) (A) (A) (A) (A)
                 (A) (A) (A) (A) (A) (A) (A) (A) (A) (A) (A) (A)
                 (A) (A) (A) (A) (A) (A) (A) (A) (A) (A) (A) (A)
                 (A) (A) (A) (A) (A) (A) (A) (A) (A) (A) (A) (A)
                 (A) (A) (A) (A) (A) (A) (A) (A) (A) (A) (A) (A)
                 (A) (A) (A) (A) (A) (A) (A) (A) (A) (A) (A) (A)
                 (A) (A) (A) (A) (A) (A) (A) (A) (A) (A) (A) (A)
                 (A) (A) (A) (A) (A) (A) (A) (A) (A) (A) (A) (A)
                 (A) (A) (A) (A) (A) (A) (A) (A) (A) (A) (A) (A)
                 (A) (A) (A) (A) (A) (A) (A) (A) (A) (A) (A) (A)
                 (A) (A) (A) (A) (A) (A) (A) (A) (A) (A) (A) (A)
                 (A) (A) (A) (A) (A) (A) (A) (A) (A) (A) (A) (A)
                 (A) (A) (A) (A) (A) (A) (A) (A) (A) (A) (A) (A)
                 (A) (A) (A) (A) (A) (A) (A) (A) (A) (A) (A) (A)
                 (A) (A) (A) (A) (A) (A) (A) (A) (A) (A) (A) (A)
                 (A) (A) (A) (A) (A) (A) (A) (A) (A) (A) (A) (A)
                 (A) (A) (A) (A) (A) (A) (A) (A) (A) (A) (A) (A)
                 (A) (A) (A) (A) (A) (A) (A) (A) (A) (A) (A) (A)
                 (A) (A) (A) (A) (A) (A) (A) (A) (A) (A) (A) (A)
                 (A) (A) (A) (A) (A) (A) (A) (A) (A) (A) (A) (A)
                 (A) (A) (A) (A) (A) (A) (A) (A) (A) (A) (A) (A)
                 (A) (A) (A) (A) (A) (A) (A) (A) (A) (A) (A) (A)
                 (A) (A) (A) (A) (A) (A) (A) (A) (A) (A) (A) (A)
                 (A) (A) (A) (A) (A) (A) (A) (A) (A) (A) (A) (A)
                 (A) (A) (A) (A) (A) (A) (A) (A) (A) (A) (A) (A)
                 (A) (A) (A) (A) (A) (A) (A) (A) (A) (A) (A) (A)
                 (A) (A) (A) (A) (A) (A) (A) (A) (A) (A) (A) (A)
                 (A) (A) (A) (A) (A) (A) (A) (A) (A) (A) (A) (A)
                 (A) (A) (A) (A) (A) (A) (A) (A) (A) (A) (A) (A)
                 (A) (A) (A) (A) (A) (A) (A) (A) (A) (A) (A) (A)
                 (A) (A) (A) (A) (A) (A) (A) (A) (A) (A) (A) (A)
                 (A) (A) (A) (A) (A) (A) (A) (A) (A) (A) (A) (A)
                 (A) (A) (A) (A) (A) (A) (A) (A) (A) (A) (A) (A)
                 (A) (A) (A) (A) (A) (A) (A) (A) (A) (A) (A) (A)
                 (A) (A) (A) (A) (A) (A) (A) (A) (A) (A) (A) (A)
                 (A) (A) (A) (A) (A) (A) (A) (A) (A) (A) (A) (A)
                 (A) (A) (A) (A) (A) (A) (A) (A) (A) (A) (A) (A)
                 (A) (A) (A) (A) (A) (A) (A) (A) (A) (A) (A) (A)
                 (A) (A) (A) (A) (A) (A) (A) (A) (A) (A) (A) (A)
                 (A) (A) (A) (A) (A) (A) (A) (A) (A) (A) (A) (A)
                 (A) (A) (A) (A) (A) (A) (A) (A) (A) (A) (A) (A)
                 (A) (A) (A) (A) (A) (A) (A) (A) (A) (A) (A) (A)
                 (A) (A) (A) (A) (A) (A) (A) (A) (A) (A) (A) (A)
                 (A) (A) (A) (A) (A) (A) (A) (A) (A) (A) (A) (A)
                 (A) (A) (A) (A) (A) (A) (A) (A) (A) (A) (A) (A)
                 (A) (A) (A) (A) (A) (A) (A) (A) (A) (A) (A) (A)
                 (A) (A) (A) (A) (A) (A) (A) (A) (A) (A) (A) (A)
                 (A) (A) (A) (A) (A) (A) (A) (A) (A) (A) (A) (A)
                 (A) (A) (A) (A) (A) (A) (A) (A) (A) (A) (A) (A)
                 (A) (A) (A) (A) (A) (A) (A) (A) (A) (A) (A) (A)
                 (A) (A) (A) (A) (A) (A) (A) (A) (A) (A) (A) (A)
                 (A) (A) (A) (A) (A) (A) (A) (A) (A) (A) (A) (A)
                 (A) (A) (A) (A) (A) (A) (A) (A) (A) (A) (A) (A)
                 (A) (A) (A) (A) (A) (A) (A) (A) (A) (A) (A) (A)
                 (A) (A) (A) (A) (A) (A) (A) (A) (A) (A) (A) (A)
                 (A) (A) (A) (A) (A) (A) (A) (A) (A) (A) (A) (A)
                 (A) (A) (A) (A) (A) (A) (A) (A) (A) (A) (A) (A)
                 (A) (A) (A) (A) (A) (A) (A) (A) (A) (A) (A) (A)
                 (A) (A) (A) (A) (A) (A) (A) (A) (A) (A) (A) (A)
                 (A) (A) (A) (A) (A) (A) (A) (A) (A) (A) (A) (A)
                 (A) (A) (A) (A) (A) (A) (A) (A) (A) (A) (A) (A)
                 (A) (A) (A) (A) (A) (A) (A) (A) (A) (A) (A) (A)
                 (A) (A) (A) (A) (A) (A) (A) (A) (A) (A) (A) (A)
                 (A) (A) (A) (A) (A) (A) (A) (A) (A) (A) (A) (A)
                 (A) (A) (A) (A) (A) (A) (A) (A) (A) (A) (A) (A)
                 (A) (A) (A) (A) (A) (A)
 The electronic state is 2-A.
 Alpha  occ. eigenvalues -- -256.37267 -89.06755 -30.24102 -26.08638 -26.07943
 Alpha  occ. eigenvalues --  -26.06608 -14.52564 -14.48535 -14.45509 -14.45450
 Alpha  occ. eigenvalues --  -14.45449 -14.45317 -10.37068 -10.34345 -10.32642
 Alpha  occ. eigenvalues --  -10.32412 -10.32376 -10.32335 -10.32335 -10.32275
 Alpha  occ. eigenvalues --  -10.32271 -10.32223 -10.32042 -10.31795 -10.31387
 Alpha  occ. eigenvalues --  -10.29939 -10.29689 -10.29579 -10.29524 -10.29388
 Alpha  occ. eigenvalues --  -10.29335 -10.29333 -10.29332 -10.29308 -10.29269
 Alpha  occ. eigenvalues --  -10.29246 -10.29237 -10.29067 -10.28721 -10.28691
 Alpha  occ. eigenvalues --  -10.27793 -10.27751 -10.27691 -10.27669 -10.27607
 Alpha  occ. eigenvalues --  -10.27565 -10.27397 -10.27327 -10.27296  -8.09410
 Alpha  occ. eigenvalues --   -6.03955  -6.03687  -6.03223  -3.62630  -2.40685
 Alpha  occ. eigenvalues --   -2.39143  -2.36338  -1.16523  -1.08722  -1.07704
 Alpha  occ. eigenvalues --   -1.07669  -1.06692  -1.02298  -0.93349  -0.93126
 Alpha  occ. eigenvalues --   -0.92052  -0.91806  -0.91220  -0.90876  -0.90520
 Alpha  occ. eigenvalues --   -0.90456  -0.90413  -0.86616  -0.85534  -0.85397
 Alpha  occ. eigenvalues --   -0.85052  -0.84134  -0.82734  -0.81977  -0.81065
 Alpha  occ. eigenvalues --   -0.80098  -0.78401  -0.78171  -0.77918  -0.75863
 Alpha  occ. eigenvalues --   -0.75558  -0.74956  -0.74947  -0.72146  -0.70595
 Alpha  occ. eigenvalues --   -0.69987  -0.69844  -0.68663  -0.68007  -0.66751
 Alpha  occ. eigenvalues --   -0.65016  -0.64281  -0.63513  -0.63192  -0.61732
 Alpha  occ. eigenvalues --   -0.61686  -0.61284  -0.59174  -0.58845  -0.58383
 Alpha  occ. eigenvalues --   -0.58145  -0.57946  -0.57686  -0.55802  -0.55519
 Alpha  occ. eigenvalues --   -0.55070  -0.54947  -0.54530  -0.54233  -0.53913
 Alpha  occ. eigenvalues --   -0.53747  -0.53523  -0.53322  -0.53246  -0.53128
 Alpha  occ. eigenvalues --   -0.53044  -0.52736  -0.52191  -0.52002  -0.51963
 Alpha  occ. eigenvalues --   -0.51918  -0.51386  -0.50617  -0.50450  -0.50360
 Alpha  occ. eigenvalues --   -0.50160  -0.50078  -0.49839  -0.49688  -0.49563
 Alpha  occ. eigenvalues --   -0.49423  -0.48946  -0.48752  -0.48313  -0.48008
 Alpha  occ. eigenvalues --   -0.47983  -0.47622  -0.47498  -0.47372  -0.47172
 Alpha  occ. eigenvalues --   -0.46477  -0.46453  -0.46072  -0.45615  -0.45444
 Alpha  occ. eigenvalues --   -0.45027  -0.44824  -0.44201  -0.43763  -0.43427
 Alpha  occ. eigenvalues --   -0.42868  -0.42289  -0.42190  -0.41552  -0.40708
 Alpha  occ. eigenvalues --   -0.40414  -0.39380  -0.39205  -0.38864  -0.37356
 Alpha  occ. eigenvalues --   -0.37093  -0.36720  -0.34739  -0.33283  -0.33145
 Alpha  occ. eigenvalues --   -0.32135  -0.32004  -0.29460  -0.28845
 Alpha virt. eigenvalues --   -0.17699  -0.17637  -0.16824  -0.13687  -0.12066
 Alpha virt. eigenvalues --   -0.09576  -0.08897  -0.07745  -0.07454  -0.06437
 Alpha virt. eigenvalues --   -0.05689  -0.05342  -0.04766  -0.04388  -0.03574
 Alpha virt. eigenvalues --   -0.02871  -0.02620  -0.02531  -0.02199  -0.02067
 Alpha virt. eigenvalues --   -0.01731  -0.01157  -0.00866  -0.00630  -0.00398
 Alpha virt. eigenvalues --    0.00252   0.00398   0.00447   0.01025   0.01342
 Alpha virt. eigenvalues --    0.01461   0.01853   0.02112   0.02280   0.02491
 Alpha virt. eigenvalues --    0.02930   0.03120   0.03367   0.03485   0.03795
 Alpha virt. eigenvalues --    0.03898   0.04076   0.04181   0.04261   0.04344
 Alpha virt. eigenvalues --    0.04399   0.04645   0.04843   0.04979   0.05240
 Alpha virt. eigenvalues --    0.05597   0.05785   0.05927   0.06076   0.06296
 Alpha virt. eigenvalues --    0.06703   0.06842   0.07214   0.07386   0.07548
 Alpha virt. eigenvalues --    0.07743   0.07795   0.08028   0.08055   0.08224
 Alpha virt. eigenvalues --    0.08474   0.08648   0.08902   0.09107   0.09286
 Alpha virt. eigenvalues --    0.09476   0.09835   0.09920   0.10389   0.10871
 Alpha virt. eigenvalues --    0.11120   0.11381   0.11436   0.11826   0.12023
 Alpha virt. eigenvalues --    0.12298   0.12464   0.12515   0.12816   0.12984
 Alpha virt. eigenvalues --    0.13394   0.13467   0.13617   0.14070   0.14285
 Alpha virt. eigenvalues --    0.14390   0.14868   0.15131   0.15316   0.15581
 Alpha virt. eigenvalues --    0.15863   0.15991   0.16459   0.16544   0.16961
 Alpha virt. eigenvalues --    0.17218   0.17370   0.17651   0.17860   0.18085
 Alpha virt. eigenvalues --    0.18268   0.18391   0.18791   0.18937   0.19430
 Alpha virt. eigenvalues --    0.19646   0.19725   0.19808   0.20389   0.20579
 Alpha virt. eigenvalues --    0.20651   0.20869   0.21076   0.21543   0.21883
 Alpha virt. eigenvalues --    0.22041   0.22208   0.22409   0.22840   0.22913
 Alpha virt. eigenvalues --    0.23090   0.23291   0.23562   0.23791   0.24222
 Alpha virt. eigenvalues --    0.24493   0.24725   0.25021   0.25630   0.25759
 Alpha virt. eigenvalues --    0.26006   0.26249   0.26659   0.26830   0.27113
 Alpha virt. eigenvalues --    0.27312   0.27535   0.27814   0.28015   0.28362
 Alpha virt. eigenvalues --    0.28666   0.28763   0.28994   0.29389   0.29618
 Alpha virt. eigenvalues --    0.29905   0.30006   0.30096   0.30326   0.30406
 Alpha virt. eigenvalues --    0.30655   0.31038   0.31256   0.31467   0.31689
 Alpha virt. eigenvalues --    0.31899   0.32084   0.32227   0.32526   0.32707
 Alpha virt. eigenvalues --    0.33116   0.33181   0.33275   0.33393   0.33614
 Alpha virt. eigenvalues --    0.33828   0.34111   0.34307   0.34375   0.34718
 Alpha virt. eigenvalues --    0.34856   0.35091   0.35214   0.35590   0.35916
 Alpha virt. eigenvalues --    0.36099   0.36213   0.36391   0.36484   0.36833
 Alpha virt. eigenvalues --    0.37041   0.37071   0.37262   0.37322   0.37574
 Alpha virt. eigenvalues --    0.37902   0.38062   0.38168   0.38236   0.38455
 Alpha virt. eigenvalues --    0.38638   0.38756   0.38955   0.39064   0.39171
 Alpha virt. eigenvalues --    0.39473   0.39739   0.39906   0.40064   0.40532
 Alpha virt. eigenvalues --    0.40622   0.40670   0.41064   0.41227   0.41416
 Alpha virt. eigenvalues --    0.41622   0.41786   0.42059   0.42100   0.42354
 Alpha virt. eigenvalues --    0.42459   0.42726   0.42999   0.43188   0.43293
 Alpha virt. eigenvalues --    0.43349   0.43500   0.43719   0.44234   0.44399
 Alpha virt. eigenvalues --    0.44481   0.44740   0.44934   0.45185   0.45564
 Alpha virt. eigenvalues --    0.45661   0.45870   0.46141   0.46426   0.46615
 Alpha virt. eigenvalues --    0.46787   0.46920   0.47209   0.47374   0.48003
 Alpha virt. eigenvalues --    0.48154   0.48511   0.48636   0.48739   0.49014
 Alpha virt. eigenvalues --    0.49374   0.49667   0.49789   0.49967   0.50263
 Alpha virt. eigenvalues --    0.50604   0.50887   0.51188   0.51338   0.51599
 Alpha virt. eigenvalues --    0.52001   0.52388   0.52546   0.52790   0.53401
 Alpha virt. eigenvalues --    0.53666   0.54124   0.54244   0.54656   0.54805
 Alpha virt. eigenvalues --    0.55116   0.55138   0.55542   0.55743   0.55948
 Alpha virt. eigenvalues --    0.56069   0.56664   0.56751   0.57074   0.57341
 Alpha virt. eigenvalues --    0.57582   0.57979   0.58068   0.58415   0.59048
 Alpha virt. eigenvalues --    0.59497   0.59805   0.60196   0.60530   0.60621
 Alpha virt. eigenvalues --    0.60971   0.61467   0.61724   0.61781   0.62050
 Alpha virt. eigenvalues --    0.62584   0.62796   0.63045   0.63235   0.63678
 Alpha virt. eigenvalues --    0.63909   0.64144   0.64399   0.64672   0.65044
 Alpha virt. eigenvalues --    0.65381   0.65924   0.66174   0.66303   0.66509
 Alpha virt. eigenvalues --    0.66966   0.67154   0.67362   0.67693   0.68371
 Alpha virt. eigenvalues --    0.68491   0.69123   0.69616   0.69641   0.70067
 Alpha virt. eigenvalues --    0.70290   0.70488   0.70774   0.71054   0.71451
 Alpha virt. eigenvalues --    0.71793   0.71976   0.72030   0.73048   0.73145
 Alpha virt. eigenvalues --    0.73655   0.73915   0.74015   0.74197   0.74840
 Alpha virt. eigenvalues --    0.75141   0.75762   0.76171   0.76361   0.77083
 Alpha virt. eigenvalues --    0.77714   0.77803   0.77978   0.78255   0.78695
 Alpha virt. eigenvalues --    0.79161   0.79241   0.79827   0.80048   0.80160
 Alpha virt. eigenvalues --    0.80564   0.80936   0.81203   0.81504   0.81885
 Alpha virt. eigenvalues --    0.82106   0.82478   0.82788   0.82936   0.82982
 Alpha virt. eigenvalues --    0.83399   0.83682   0.84267   0.84390   0.84730
 Alpha virt. eigenvalues --    0.84892   0.85171   0.85336   0.85533   0.86100
 Alpha virt. eigenvalues --    0.86593   0.86764   0.87427   0.87736   0.87959
 Alpha virt. eigenvalues --    0.88335   0.88559   0.88857   0.89035   0.89219
 Alpha virt. eigenvalues --    0.89363   0.89779   0.90164   0.90575   0.90699
 Alpha virt. eigenvalues --    0.91306   0.91521   0.92108   0.92157   0.92314
 Alpha virt. eigenvalues --    0.92740   0.93012   0.93231   0.93607   0.93936
 Alpha virt. eigenvalues --    0.94315   0.94424   0.94862   0.94999   0.95440
 Alpha virt. eigenvalues --    0.95536   0.95810   0.96509   0.96654   0.97225
 Alpha virt. eigenvalues --    0.97384   0.97848   0.98677   0.98978   0.99133
 Alpha virt. eigenvalues --    0.99491   0.99668   1.00034   1.00206   1.00827
 Alpha virt. eigenvalues --    1.00884   1.01466   1.02085   1.02256   1.02750
 Alpha virt. eigenvalues --    1.03138   1.03854   1.04036   1.04204   1.04575
 Alpha virt. eigenvalues --    1.04812   1.05430   1.05639   1.06097   1.06591
 Alpha virt. eigenvalues --    1.06820   1.07219   1.07607   1.07778   1.08440
 Alpha virt. eigenvalues --    1.08520   1.09014   1.09531   1.09802   1.09942
 Alpha virt. eigenvalues --    1.10187   1.10518   1.11026   1.11218   1.11706
 Alpha virt. eigenvalues --    1.12002   1.12530   1.12576   1.12801   1.13289
 Alpha virt. eigenvalues --    1.13687   1.14222   1.14379   1.14956   1.15473
 Alpha virt. eigenvalues --    1.15710   1.16014   1.16594   1.17405   1.17613
 Alpha virt. eigenvalues --    1.17893   1.18155   1.18269   1.18621   1.19214
 Alpha virt. eigenvalues --    1.19232   1.19713   1.19980   1.20344   1.20440
 Alpha virt. eigenvalues --    1.20923   1.21236   1.21454   1.22200   1.22733
 Alpha virt. eigenvalues --    1.23130   1.23683   1.24263   1.24552   1.25073
 Alpha virt. eigenvalues --    1.25485   1.25972   1.26749   1.27181   1.27545
 Alpha virt. eigenvalues --    1.28419   1.28680   1.29208   1.29895   1.30166
 Alpha virt. eigenvalues --    1.30582   1.31094   1.31334   1.31560   1.32815
 Alpha virt. eigenvalues --    1.32976   1.33531   1.34341   1.34468   1.34891
 Alpha virt. eigenvalues --    1.35221   1.35950   1.36420   1.37012   1.37245
 Alpha virt. eigenvalues --    1.37655   1.37839   1.38144   1.38729   1.38792
 Alpha virt. eigenvalues --    1.39014   1.39507   1.39561   1.39834   1.40286
 Alpha virt. eigenvalues --    1.40436   1.40878   1.41013   1.41848   1.42037
 Alpha virt. eigenvalues --    1.42627   1.42790   1.43219   1.43449   1.43627
 Alpha virt. eigenvalues --    1.43997   1.44049   1.44254   1.44779   1.45141
 Alpha virt. eigenvalues --    1.45268   1.45514   1.45752   1.45807   1.46189
 Alpha virt. eigenvalues --    1.46537   1.46747   1.46996   1.47216   1.47476
 Alpha virt. eigenvalues --    1.48019   1.48149   1.48349   1.48646   1.49051
 Alpha virt. eigenvalues --    1.49116   1.49401   1.49429   1.49803   1.50008
 Alpha virt. eigenvalues --    1.50743   1.50985   1.51240   1.51611   1.51823
 Alpha virt. eigenvalues --    1.51999   1.52376   1.52644   1.52777   1.53001
 Alpha virt. eigenvalues --    1.53316   1.53614   1.54126   1.54384   1.54473
 Alpha virt. eigenvalues --    1.54821   1.54989   1.55130   1.55427   1.55633
 Alpha virt. eigenvalues --    1.56065   1.56363   1.56522   1.56725   1.57136
 Alpha virt. eigenvalues --    1.57683   1.57767   1.58088   1.58232   1.58553
 Alpha virt. eigenvalues --    1.58947   1.59262   1.59447   1.59742   1.60062
 Alpha virt. eigenvalues --    1.60350   1.60602   1.60834   1.61014   1.61659
 Alpha virt. eigenvalues --    1.61730   1.61853   1.62278   1.62528   1.62796
 Alpha virt. eigenvalues --    1.63170   1.63586   1.63914   1.64159   1.64430
 Alpha virt. eigenvalues --    1.64833   1.64912   1.65727   1.66027   1.66383
 Alpha virt. eigenvalues --    1.66969   1.67188   1.67431   1.68112   1.69068
 Alpha virt. eigenvalues --    1.69240   1.69819   1.70027   1.70883   1.71149
 Alpha virt. eigenvalues --    1.71466   1.72160   1.72753   1.73314   1.73474
 Alpha virt. eigenvalues --    1.73645   1.73929   1.74488   1.74841   1.75814
 Alpha virt. eigenvalues --    1.75873   1.76268   1.76784   1.76909   1.77205
 Alpha virt. eigenvalues --    1.77559   1.77888   1.78303   1.78373   1.78824
 Alpha virt. eigenvalues --    1.79065   1.79398   1.79690   1.80538   1.80973
 Alpha virt. eigenvalues --    1.81366   1.81663   1.82460   1.82889   1.83189
 Alpha virt. eigenvalues --    1.83541   1.84215   1.84687   1.85015   1.85188
 Alpha virt. eigenvalues --    1.86149   1.86266   1.86788   1.86872   1.87775
 Alpha virt. eigenvalues --    1.88157   1.88290   1.88530   1.89058   1.89224
 Alpha virt. eigenvalues --    1.89477   1.89890   1.90379   1.90652   1.91060
 Alpha virt. eigenvalues --    1.91456   1.91782   1.92229   1.92884   1.93222
 Alpha virt. eigenvalues --    1.93577   1.94011   1.94457   1.94935   1.95742
 Alpha virt. eigenvalues --    1.96029   1.96277   1.96348   1.96965   1.97199
 Alpha virt. eigenvalues --    1.97508   1.98478   1.98976   1.99223   1.99685
 Alpha virt. eigenvalues --    1.99757   2.00370   2.00566   2.00880   2.01556
 Alpha virt. eigenvalues --    2.01784   2.02434   2.02635   2.02911   2.03251
 Alpha virt. eigenvalues --    2.03463   2.03949   2.04034   2.04439   2.04650
 Alpha virt. eigenvalues --    2.05206   2.05935   2.06406   2.06642   2.06832
 Alpha virt. eigenvalues --    2.07167   2.08394   2.08548   2.09244   2.09333
 Alpha virt. eigenvalues --    2.09667   2.10244   2.10447   2.10748   2.11041
 Alpha virt. eigenvalues --    2.11509   2.11931   2.12045   2.13020   2.13319
 Alpha virt. eigenvalues --    2.13704   2.14333   2.14561   2.14838   2.15431
 Alpha virt. eigenvalues --    2.15669   2.15903   2.17044   2.17133   2.17708
 Alpha virt. eigenvalues --    2.18227   2.18417   2.18891   2.19261   2.19564
 Alpha virt. eigenvalues --    2.20090   2.20587   2.20760   2.21357   2.21650
 Alpha virt. eigenvalues --    2.22031   2.22824   2.23327   2.23495   2.24231
 Alpha virt. eigenvalues --    2.24570   2.25169   2.25294   2.25567   2.25776
 Alpha virt. eigenvalues --    2.26271   2.26384   2.27145   2.27300   2.27891
 Alpha virt. eigenvalues --    2.28311   2.28384   2.28773   2.29322   2.29684
 Alpha virt. eigenvalues --    2.30108   2.30504   2.30874   2.31335   2.31686
 Alpha virt. eigenvalues --    2.31977   2.32316   2.32421   2.33113   2.33345
 Alpha virt. eigenvalues --    2.34145   2.34372   2.34972   2.35415   2.35545
 Alpha virt. eigenvalues --    2.35663   2.36011   2.36139   2.36764   2.36903
 Alpha virt. eigenvalues --    2.37350   2.37962   2.38085   2.38678   2.38875
 Alpha virt. eigenvalues --    2.39395   2.39614   2.40300   2.40515   2.40939
 Alpha virt. eigenvalues --    2.41343   2.41561   2.41839   2.42589   2.43028
 Alpha virt. eigenvalues --    2.43307   2.43351   2.43625   2.44261   2.44532
 Alpha virt. eigenvalues --    2.45086   2.45417   2.45626   2.46141   2.46429
 Alpha virt. eigenvalues --    2.46834   2.46935   2.47330   2.47438   2.47966
 Alpha virt. eigenvalues --    2.48529   2.48706   2.48820   2.48993   2.49476
 Alpha virt. eigenvalues --    2.49793   2.50162   2.50411   2.50969   2.51159
 Alpha virt. eigenvalues --    2.51537   2.51868   2.52258   2.52824   2.53190
 Alpha virt. eigenvalues --    2.53639   2.54001   2.54173   2.54580   2.54667
 Alpha virt. eigenvalues --    2.55172   2.55458   2.55696   2.56084   2.56733
 Alpha virt. eigenvalues --    2.57026   2.57226   2.57355   2.57943   2.58017
 Alpha virt. eigenvalues --    2.58846   2.59065   2.59452   2.59726   2.60182
 Alpha virt. eigenvalues --    2.60446   2.60632   2.60910   2.61101   2.61425
 Alpha virt. eigenvalues --    2.61761   2.62075   2.62639   2.62681   2.63010
 Alpha virt. eigenvalues --    2.63405   2.64084   2.64222   2.64569   2.64968
 Alpha virt. eigenvalues --    2.65200   2.66038   2.66523   2.66741   2.67313
 Alpha virt. eigenvalues --    2.67447   2.67763   2.67992   2.68540   2.68892
 Alpha virt. eigenvalues --    2.69460   2.69586   2.70282   2.71185   2.71366
 Alpha virt. eigenvalues --    2.71548   2.72124   2.72424   2.72665   2.72896
 Alpha virt. eigenvalues --    2.73219   2.73564   2.73820   2.74203   2.74757
 Alpha virt. eigenvalues --    2.75251   2.75808   2.76619   2.77126   2.77930
 Alpha virt. eigenvalues --    2.78039   2.78229   2.78662   2.78891   2.79118
 Alpha virt. eigenvalues --    2.79646   2.79821   2.80223   2.80552   2.81090
 Alpha virt. eigenvalues --    2.81238   2.81772   2.82697   2.82774   2.83022
 Alpha virt. eigenvalues --    2.83568   2.83681   2.84066   2.84648   2.84670
 Alpha virt. eigenvalues --    2.84893   2.85576   2.85630   2.86014   2.86452
 Alpha virt. eigenvalues --    2.86803   2.86893   2.87137   2.87536   2.87719
 Alpha virt. eigenvalues --    2.87968   2.88358   2.88838   2.89104   2.89562
 Alpha virt. eigenvalues --    2.89933   2.90201   2.90407   2.90803   2.91380
 Alpha virt. eigenvalues --    2.91838   2.92072   2.92293   2.92389   2.92758
 Alpha virt. eigenvalues --    2.93327   2.93742   2.94048   2.94097   2.94647
 Alpha virt. eigenvalues --    2.95030   2.95361   2.95649   2.96164   2.96998
 Alpha virt. eigenvalues --    2.97240   2.97764   2.97922   2.98208   2.98550
 Alpha virt. eigenvalues --    2.98643   2.99027   2.99394   2.99512   2.99798
 Alpha virt. eigenvalues --    3.00120   3.00900   3.00972   3.01568   3.01897
 Alpha virt. eigenvalues --    3.02076   3.02552   3.02925   3.03032   3.03392
 Alpha virt. eigenvalues --    3.03652   3.03859   3.04336   3.04425   3.04637
 Alpha virt. eigenvalues --    3.04894   3.05145   3.05766   3.06049   3.06196
 Alpha virt. eigenvalues --    3.06438   3.06891   3.07172   3.07646   3.07992
 Alpha virt. eigenvalues --    3.08322   3.08412   3.08540   3.08719   3.09185
 Alpha virt. eigenvalues --    3.09567   3.09683   3.10047   3.10423   3.10921
 Alpha virt. eigenvalues --    3.11025   3.11241   3.11638   3.11886   3.12115
 Alpha virt. eigenvalues --    3.12259   3.12619   3.12905   3.13114   3.13649
 Alpha virt. eigenvalues --    3.13850   3.14167   3.14291   3.14493   3.15090
 Alpha virt. eigenvalues --    3.15246   3.15513   3.15924   3.16402   3.16470
 Alpha virt. eigenvalues --    3.16812   3.17043   3.17156   3.17719   3.17960
 Alpha virt. eigenvalues --    3.18069   3.18313   3.18429   3.18530   3.19032
 Alpha virt. eigenvalues --    3.19088   3.19804   3.20090   3.20354   3.20548
 Alpha virt. eigenvalues --    3.20726   3.21289   3.21698   3.21786   3.22116
 Alpha virt. eigenvalues --    3.22302   3.22624   3.23186   3.23320   3.23421
 Alpha virt. eigenvalues --    3.23574   3.23859   3.24069   3.24367   3.24769
 Alpha virt. eigenvalues --    3.25029   3.25198   3.25572   3.25733   3.26117
 Alpha virt. eigenvalues --    3.26414   3.26644   3.26811   3.27118   3.27407
 Alpha virt. eigenvalues --    3.27440   3.28025   3.28303   3.28578   3.28621
 Alpha virt. eigenvalues --    3.28909   3.29340   3.29390   3.29638   3.29764
 Alpha virt. eigenvalues --    3.30261   3.30546   3.30903   3.31099   3.31137
 Alpha virt. eigenvalues --    3.31881   3.32087   3.32508   3.32961   3.33057
 Alpha virt. eigenvalues --    3.33440   3.33876   3.33925   3.34611   3.34969
 Alpha virt. eigenvalues --    3.35197   3.35389   3.35999   3.36172   3.36533
 Alpha virt. eigenvalues --    3.36933   3.37272   3.37719   3.38353   3.38605
 Alpha virt. eigenvalues --    3.38744   3.38801   3.39401   3.39902   3.40146
 Alpha virt. eigenvalues --    3.40919   3.41123   3.41871   3.41919   3.42573
 Alpha virt. eigenvalues --    3.42667   3.43361   3.43589   3.44086   3.44405
 Alpha virt. eigenvalues --    3.44556   3.44863   3.45632   3.45789   3.46063
 Alpha virt. eigenvalues --    3.46388   3.47201   3.47222   3.47571   3.48030
 Alpha virt. eigenvalues --    3.48308   3.48937   3.49219   3.49522   3.49854
 Alpha virt. eigenvalues --    3.50464   3.50548   3.50797   3.51540   3.52199
 Alpha virt. eigenvalues --    3.52414   3.52881   3.53783   3.54133   3.54719
 Alpha virt. eigenvalues --    3.55217   3.55458   3.55664   3.55886   3.56325
 Alpha virt. eigenvalues --    3.56345   3.56622   3.57365   3.58031   3.58238
 Alpha virt. eigenvalues --    3.58737   3.59195   3.59326   3.59819   3.60057
 Alpha virt. eigenvalues --    3.60344   3.61230   3.61750   3.61950   3.62124
 Alpha virt. eigenvalues --    3.62254   3.62897   3.63255   3.63510   3.63881
 Alpha virt. eigenvalues --    3.64580   3.64913   3.65386   3.65502   3.65711
 Alpha virt. eigenvalues --    3.66291   3.66813   3.67092   3.67444   3.67951
 Alpha virt. eigenvalues --    3.68819   3.69101   3.69365   3.69678   3.70360
 Alpha virt. eigenvalues --    3.71038   3.71626   3.71720   3.72128   3.72713
 Alpha virt. eigenvalues --    3.72851   3.73320   3.74088   3.74553   3.75607
 Alpha virt. eigenvalues --    3.75986   3.76385   3.77277   3.77578   3.77864
 Alpha virt. eigenvalues --    3.78971   3.79282   3.80178   3.80423   3.80617
 Alpha virt. eigenvalues --    3.81250   3.81846   3.82074   3.82525   3.82982
 Alpha virt. eigenvalues --    3.83639   3.84232   3.84678   3.86197   3.86366
 Alpha virt. eigenvalues --    3.87152   3.87377   3.87874   3.88771   3.89256
 Alpha virt. eigenvalues --    3.89757   3.90144   3.90379   3.90757   3.91117
 Alpha virt. eigenvalues --    3.91724   3.92153   3.92807   3.92976   3.93903
 Alpha virt. eigenvalues --    3.94070   3.94459   3.95489   3.96293   3.96467
 Alpha virt. eigenvalues --    3.97174   3.97759   3.97959   3.99324   4.00332
 Alpha virt. eigenvalues --    4.00729   4.01383   4.01566   4.02027   4.03036
 Alpha virt. eigenvalues --    4.03778   4.04231   4.04643   4.05828   4.06136
 Alpha virt. eigenvalues --    4.06324   4.07307   4.07756   4.08338   4.08882
 Alpha virt. eigenvalues --    4.09132   4.09725   4.10296   4.10656   4.11182
 Alpha virt. eigenvalues --    4.11760   4.12535   4.13212   4.13427   4.14543
 Alpha virt. eigenvalues --    4.14799   4.15718   4.16325   4.16597   4.16814
 Alpha virt. eigenvalues --    4.16985   4.17447   4.18052   4.18898   4.19087
 Alpha virt. eigenvalues --    4.20021   4.20647   4.20792   4.21437   4.21800
 Alpha virt. eigenvalues --    4.22663   4.22872   4.23278   4.24030   4.24368
 Alpha virt. eigenvalues --    4.24875   4.24987   4.25490   4.25913   4.26708
 Alpha virt. eigenvalues --    4.27008   4.27612   4.28273   4.29192   4.29729
 Alpha virt. eigenvalues --    4.30552   4.30911   4.31058   4.31856   4.32630
 Alpha virt. eigenvalues --    4.32939   4.33469   4.33913   4.34486   4.34907
 Alpha virt. eigenvalues --    4.35193   4.35498   4.36115   4.36470   4.36892
 Alpha virt. eigenvalues --    4.37055   4.37659   4.38121   4.38744   4.39256
 Alpha virt. eigenvalues --    4.39989   4.40861   4.41976   4.42946   4.44187
 Alpha virt. eigenvalues --    4.44388   4.44606   4.45852   4.45963   4.47250
 Alpha virt. eigenvalues --    4.47494   4.48108   4.48484   4.49487   4.50057
 Alpha virt. eigenvalues --    4.50625   4.51969   4.53385   4.54318   4.55284
 Alpha virt. eigenvalues --    4.56042   4.57257   4.58031   4.58468   4.58856
 Alpha virt. eigenvalues --    4.59557   4.59925   4.60465   4.61489   4.62366
 Alpha virt. eigenvalues --    4.62820   4.63634   4.64177   4.64682   4.65711
 Alpha virt. eigenvalues --    4.65918   4.66288   4.67510   4.69041   4.70553
 Alpha virt. eigenvalues --    4.71503   4.72072   4.72652   4.73390   4.73494
 Alpha virt. eigenvalues --    4.74705   4.74827   4.75664   4.76089   4.76369
 Alpha virt. eigenvalues --    4.76799   4.77700   4.77932   4.78379   4.79950
 Alpha virt. eigenvalues --    4.81211   4.82536   4.83276   4.84295   4.85031
 Alpha virt. eigenvalues --    4.85188   4.85509   4.85872   4.86485   4.88373
 Alpha virt. eigenvalues --    4.89234   4.89715   4.91427   4.91545   4.91979
 Alpha virt. eigenvalues --    4.93153   4.93688   4.94024   4.95604   4.96040
 Alpha virt. eigenvalues --    4.97061   4.97892   4.98709   5.00360   5.00887
 Alpha virt. eigenvalues --    5.01628   5.02217   5.04588   5.05471   5.07808
 Alpha virt. eigenvalues --    5.09672   5.10073   5.11037   5.11656   5.12037
 Alpha virt. eigenvalues --    5.13054   5.13729   5.15426   5.16888   5.17155
 Alpha virt. eigenvalues --    5.18938   5.19685   5.19823   5.21642   5.24767
 Alpha virt. eigenvalues --    5.25450   5.27211   5.27521   5.27832   5.28823
 Alpha virt. eigenvalues --    5.29386   5.30127   5.31190   5.31260   5.33334
 Alpha virt. eigenvalues --    5.35960   5.37083   5.38227   5.38825   5.40643
 Alpha virt. eigenvalues --    5.41078   5.42293   5.42965   5.46863   5.50138
 Alpha virt. eigenvalues --    5.50604   5.51203   5.52239   5.52880   5.53637
 Alpha virt. eigenvalues --    5.54468   5.55698   5.56265   5.56954   5.58611
 Alpha virt. eigenvalues --    5.61227   5.63454   5.66675   5.67438   5.71170
 Alpha virt. eigenvalues --    5.74382   5.76851   5.81770   5.84135   5.86857
 Alpha virt. eigenvalues --    5.88270   5.89916   5.90606   5.90991   5.92914
 Alpha virt. eigenvalues --    5.98750   6.02863   6.04230   6.04318   6.05323
 Alpha virt. eigenvalues --    6.07227   6.09847   6.16754   6.23514   6.24677
 Alpha virt. eigenvalues --    6.30876   9.15907   9.35139   9.46825  19.88299
 Alpha virt. eigenvalues --   22.27107  22.27713  22.32156  22.34237  22.35196
 Alpha virt. eigenvalues --   22.37216  22.38393  22.41401  22.43795  22.44712
 Alpha virt. eigenvalues --   22.51377  22.53063  22.72170  22.77493  22.78366
 Alpha virt. eigenvalues --   22.82857  22.84275  22.86273  22.87411  22.89296
 Alpha virt. eigenvalues --   22.93237  22.95195  23.00266  23.03675  23.17134
 Alpha virt. eigenvalues --   23.18505  23.21063  23.22028  23.31349  23.32563
 Alpha virt. eigenvalues --   23.40766  23.41579  23.46042  23.63689  23.68107
 Alpha virt. eigenvalues --   23.69027  23.78740  32.31157  32.72131  32.84571
 Alpha virt. eigenvalues --   32.94255  32.97822  33.02363
  Beta  occ. eigenvalues -- -256.37231 -89.06789 -30.21897 -26.06257 -26.06016
  Beta  occ. eigenvalues --  -26.05400 -14.52556 -14.48609 -14.45562 -14.45504
  Beta  occ. eigenvalues --  -14.45500 -14.45364 -10.37043 -10.34346 -10.32634
  Beta  occ. eigenvalues --  -10.32404 -10.32364 -10.32337 -10.32323 -10.32276
  Beta  occ. eigenvalues --  -10.32274 -10.32225 -10.32039 -10.31795 -10.31383
  Beta  occ. eigenvalues --  -10.29939 -10.29670 -10.29585 -10.29529 -10.29369
  Beta  occ. eigenvalues --  -10.29341 -10.29336 -10.29311 -10.29309 -10.29251
  Beta  occ. eigenvalues --  -10.29249 -10.29242 -10.29072 -10.28722 -10.28698
  Beta  occ. eigenvalues --  -10.27794 -10.27751 -10.27693 -10.27669 -10.27608
  Beta  occ. eigenvalues --  -10.27565 -10.27385 -10.27328 -10.27296  -8.09442
  Beta  occ. eigenvalues --   -6.03978  -6.03729  -6.03302  -3.57273  -2.33183
  Beta  occ. eigenvalues --   -2.33133  -2.32667  -1.16525  -1.08742  -1.07725
  Beta  occ. eigenvalues --   -1.07687  -1.06709  -1.02333  -0.93349  -0.93195
  Beta  occ. eigenvalues --   -0.92051  -0.91802  -0.91207  -0.90874  -0.90526
  Beta  occ. eigenvalues --   -0.90457  -0.90409  -0.86614  -0.85541  -0.85401
  Beta  occ. eigenvalues --   -0.85063  -0.84131  -0.82732  -0.81973  -0.81066
  Beta  occ. eigenvalues --   -0.80102  -0.78406  -0.78183  -0.77929  -0.75898
  Beta  occ. eigenvalues --   -0.75584  -0.74966  -0.74933  -0.72145  -0.70596
  Beta  occ. eigenvalues --   -0.69996  -0.69880  -0.68657  -0.68003  -0.66753
  Beta  occ. eigenvalues --   -0.65018  -0.64291  -0.63515  -0.63195  -0.61748
  Beta  occ. eigenvalues --   -0.61705  -0.61298  -0.59155  -0.58848  -0.58324
  Beta  occ. eigenvalues --   -0.58110  -0.57912  -0.57704  -0.55742  -0.55441
  Beta  occ. eigenvalues --   -0.55003  -0.54931  -0.54515  -0.54234  -0.53883
  Beta  occ. eigenvalues --   -0.53738  -0.53515  -0.53323  -0.53238  -0.53129
  Beta  occ. eigenvalues --   -0.53052  -0.52734  -0.52130  -0.51976  -0.51945
  Beta  occ. eigenvalues --   -0.51890  -0.51384  -0.50594  -0.50423  -0.50353
  Beta  occ. eigenvalues --   -0.50147  -0.50063  -0.49771  -0.49584  -0.49445
  Beta  occ. eigenvalues --   -0.49290  -0.48894  -0.48739  -0.48309  -0.47962
  Beta  occ. eigenvalues --   -0.47934  -0.47555  -0.47415  -0.47350  -0.46913
  Beta  occ. eigenvalues --   -0.46442  -0.46278  -0.46092  -0.45543  -0.45157
  Beta  occ. eigenvalues --   -0.44831  -0.44225  -0.43744  -0.43404  -0.43217
  Beta  occ. eigenvalues --   -0.42685  -0.42205  -0.41627  -0.40898  -0.40114
  Beta  occ. eigenvalues --   -0.39286  -0.38749  -0.37570  -0.37098  -0.36437
  Beta  occ. eigenvalues --   -0.35837  -0.34908  -0.33533  -0.32962  -0.32343
  Beta  occ. eigenvalues --   -0.31644  -0.29501  -0.28777
  Beta virt. eigenvalues --   -0.20001  -0.17601  -0.16171  -0.14313  -0.12082
  Beta virt. eigenvalues --   -0.10968  -0.09179  -0.08829  -0.07652  -0.07220
  Beta virt. eigenvalues --   -0.06419  -0.05560  -0.05296  -0.04764  -0.04390
  Beta virt. eigenvalues --   -0.03486  -0.02865  -0.02533  -0.02406  -0.02218
  Beta virt. eigenvalues --   -0.02040  -0.01729  -0.01146  -0.00834  -0.00626
  Beta virt. eigenvalues --   -0.00395   0.00272   0.00428   0.00458   0.01034
  Beta virt. eigenvalues --    0.01348   0.01470   0.01881   0.02124   0.02295
  Beta virt. eigenvalues --    0.02533   0.02949   0.03164   0.03399   0.03503
  Beta virt. eigenvalues --    0.03812   0.03910   0.04081   0.04202   0.04273
  Beta virt. eigenvalues --    0.04353   0.04413   0.04651   0.04855   0.04983
  Beta virt. eigenvalues --    0.05251   0.05600   0.05800   0.05930   0.06096
  Beta virt. eigenvalues --    0.06303   0.06709   0.06848   0.07220   0.07398
  Beta virt. eigenvalues --    0.07552   0.07741   0.07804   0.08037   0.08073
  Beta virt. eigenvalues --    0.08230   0.08485   0.08665   0.08922   0.09114
  Beta virt. eigenvalues --    0.09301   0.09479   0.09849   0.09944   0.10421
  Beta virt. eigenvalues --    0.10914   0.11122   0.11394   0.11443   0.11831
  Beta virt. eigenvalues --    0.12031   0.12314   0.12480   0.12520   0.12844
  Beta virt. eigenvalues --    0.13003   0.13410   0.13509   0.13633   0.14092
  Beta virt. eigenvalues --    0.14290   0.14403   0.14877   0.15136   0.15407
  Beta virt. eigenvalues --    0.15601   0.15939   0.16019   0.16465   0.16557
  Beta virt. eigenvalues --    0.16965   0.17239   0.17413   0.17664   0.17893
  Beta virt. eigenvalues --    0.18101   0.18288   0.18422   0.18823   0.18979
  Beta virt. eigenvalues --    0.19439   0.19672   0.19729   0.19834   0.20410
  Beta virt. eigenvalues --    0.20607   0.20676   0.20884   0.21116   0.21562
  Beta virt. eigenvalues --    0.21902   0.22067   0.22229   0.22412   0.22844
  Beta virt. eigenvalues --    0.22960   0.23120   0.23305   0.23563   0.23797
  Beta virt. eigenvalues --    0.24293   0.24525   0.24741   0.25040   0.25640
  Beta virt. eigenvalues --    0.25802   0.26055   0.26291   0.26697   0.26845
  Beta virt. eigenvalues --    0.27154   0.27331   0.27581   0.27829   0.28036
  Beta virt. eigenvalues --    0.28382   0.28685   0.28773   0.29014   0.29398
  Beta virt. eigenvalues --    0.29635   0.29941   0.30043   0.30119   0.30365
  Beta virt. eigenvalues --    0.30418   0.30680   0.31078   0.31265   0.31494
  Beta virt. eigenvalues --    0.31747   0.31923   0.32123   0.32247   0.32532
  Beta virt. eigenvalues --    0.32716   0.33173   0.33205   0.33296   0.33431
  Beta virt. eigenvalues --    0.33659   0.33856   0.34149   0.34332   0.34416
  Beta virt. eigenvalues --    0.34752   0.34891   0.35113   0.35246   0.35613
  Beta virt. eigenvalues --    0.35939   0.36103   0.36233   0.36402   0.36492
  Beta virt. eigenvalues --    0.36856   0.37056   0.37090   0.37275   0.37350
  Beta virt. eigenvalues --    0.37602   0.37910   0.38080   0.38223   0.38282
  Beta virt. eigenvalues --    0.38464   0.38648   0.38765   0.38976   0.39097
  Beta virt. eigenvalues --    0.39177   0.39485   0.39743   0.39906   0.40065
  Beta virt. eigenvalues --    0.40551   0.40637   0.40680   0.41074   0.41231
  Beta virt. eigenvalues --    0.41425   0.41652   0.41800   0.42076   0.42105
  Beta virt. eigenvalues --    0.42364   0.42491   0.42738   0.43002   0.43200
  Beta virt. eigenvalues --    0.43305   0.43379   0.43523   0.43723   0.44239
  Beta virt. eigenvalues --    0.44405   0.44518   0.44743   0.44943   0.45228
  Beta virt. eigenvalues --    0.45572   0.45690   0.45886   0.46160   0.46438
  Beta virt. eigenvalues --    0.46624   0.46806   0.46927   0.47222   0.47390
  Beta virt. eigenvalues --    0.48035   0.48184   0.48530   0.48643   0.48752
  Beta virt. eigenvalues --    0.49033   0.49381   0.49669   0.49813   0.49995
  Beta virt. eigenvalues --    0.50270   0.50633   0.50890   0.51260   0.51359
  Beta virt. eigenvalues --    0.51614   0.52013   0.52404   0.52576   0.52810
  Beta virt. eigenvalues --    0.53424   0.53679   0.54149   0.54243   0.54690
  Beta virt. eigenvalues --    0.54823   0.55124   0.55202   0.55563   0.55749
  Beta virt. eigenvalues --    0.55991   0.56076   0.56714   0.56827   0.57107
  Beta virt. eigenvalues --    0.57344   0.57585   0.58017   0.58077   0.58452
  Beta virt. eigenvalues --    0.59073   0.59639   0.59821   0.60200   0.60549
  Beta virt. eigenvalues --    0.60676   0.61001   0.61506   0.61733   0.61812
  Beta virt. eigenvalues --    0.62061   0.62676   0.62913   0.63077   0.63246
  Beta virt. eigenvalues --    0.63701   0.63938   0.64184   0.64432   0.64726
  Beta virt. eigenvalues --    0.65062   0.65410   0.65949   0.66204   0.66329
  Beta virt. eigenvalues --    0.66540   0.66963   0.67190   0.67405   0.67709
  Beta virt. eigenvalues --    0.68391   0.68495   0.69138   0.69630   0.69691
  Beta virt. eigenvalues --    0.70084   0.70310   0.70526   0.70826   0.71119
  Beta virt. eigenvalues --    0.71468   0.71808   0.72015   0.72074   0.73059
  Beta virt. eigenvalues --    0.73166   0.73709   0.73933   0.74044   0.74227
  Beta virt. eigenvalues --    0.74864   0.75253   0.75772   0.76220   0.76449
  Beta virt. eigenvalues --    0.77146   0.77736   0.77834   0.78000   0.78277
  Beta virt. eigenvalues --    0.78736   0.79175   0.79287   0.79850   0.80061
  Beta virt. eigenvalues --    0.80177   0.80608   0.80966   0.81217   0.81556
  Beta virt. eigenvalues --    0.81907   0.82146   0.82506   0.82795   0.82957
  Beta virt. eigenvalues --    0.83009   0.83416   0.83703   0.84302   0.84406
  Beta virt. eigenvalues --    0.84778   0.84920   0.85299   0.85396   0.85547
  Beta virt. eigenvalues --    0.86208   0.86610   0.86783   0.87442   0.87765
  Beta virt. eigenvalues --    0.87966   0.88344   0.88576   0.88912   0.89086
  Beta virt. eigenvalues --    0.89237   0.89394   0.89786   0.90190   0.90606
  Beta virt. eigenvalues --    0.90705   0.91331   0.91527   0.92140   0.92172
  Beta virt. eigenvalues --    0.92347   0.92767   0.93028   0.93275   0.93631
  Beta virt. eigenvalues --    0.93955   0.94383   0.94446   0.94885   0.95017
  Beta virt. eigenvalues --    0.95471   0.95561   0.95961   0.96554   0.96704
  Beta virt. eigenvalues --    0.97240   0.97419   0.97869   0.98686   0.99116
  Beta virt. eigenvalues --    0.99214   0.99512   0.99818   1.00048   1.00294
  Beta virt. eigenvalues --    1.00888   1.00936   1.01491   1.02112   1.02292
  Beta virt. eigenvalues --    1.02769   1.03153   1.03871   1.04057   1.04230
  Beta virt. eigenvalues --    1.04586   1.04855   1.05509   1.05660   1.06118
  Beta virt. eigenvalues --    1.06622   1.06887   1.07245   1.07652   1.07804
  Beta virt. eigenvalues --    1.08482   1.08549   1.09056   1.09556   1.09836
  Beta virt. eigenvalues --    1.09965   1.10220   1.10577   1.11039   1.11268
  Beta virt. eigenvalues --    1.11734   1.12021   1.12552   1.12646   1.12832
  Beta virt. eigenvalues --    1.13368   1.13730   1.14293   1.14434   1.15034
  Beta virt. eigenvalues --    1.15499   1.15740   1.16040   1.16646   1.17428
  Beta virt. eigenvalues --    1.17667   1.17933   1.18173   1.18318   1.18660
  Beta virt. eigenvalues --    1.19244   1.19294   1.19750   1.20009   1.20409
  Beta virt. eigenvalues --    1.20477   1.20968   1.21280   1.21471   1.22249
  Beta virt. eigenvalues --    1.22770   1.23240   1.23715   1.24298   1.24614
  Beta virt. eigenvalues --    1.25151   1.25573   1.26008   1.26772   1.27188
  Beta virt. eigenvalues --    1.27553   1.28499   1.28718   1.29220   1.29914
  Beta virt. eigenvalues --    1.30213   1.30629   1.31180   1.31373   1.31674
  Beta virt. eigenvalues --    1.32872   1.32995   1.33622   1.34372   1.34509
  Beta virt. eigenvalues --    1.34932   1.35273   1.36016   1.36449   1.37055
  Beta virt. eigenvalues --    1.37277   1.37694   1.37851   1.38188   1.38765
  Beta virt. eigenvalues --    1.38803   1.39024   1.39544   1.39604   1.39890
  Beta virt. eigenvalues --    1.40368   1.40511   1.40914   1.41061   1.41896
  Beta virt. eigenvalues --    1.42095   1.42656   1.42804   1.43236   1.43461
  Beta virt. eigenvalues --    1.43640   1.44011   1.44066   1.44272   1.44800
  Beta virt. eigenvalues --    1.45191   1.45299   1.45552   1.45774   1.45821
  Beta virt. eigenvalues --    1.46204   1.46553   1.46752   1.47049   1.47230
  Beta virt. eigenvalues --    1.47487   1.48047   1.48168   1.48368   1.48657
  Beta virt. eigenvalues --    1.49081   1.49142   1.49419   1.49456   1.49809
  Beta virt. eigenvalues --    1.50016   1.50748   1.50991   1.51256   1.51675
  Beta virt. eigenvalues --    1.51851   1.52006   1.52379   1.52665   1.52797
  Beta virt. eigenvalues --    1.53008   1.53328   1.53633   1.54127   1.54408
  Beta virt. eigenvalues --    1.54480   1.54828   1.54998   1.55138   1.55438
  Beta virt. eigenvalues --    1.55635   1.56063   1.56378   1.56537   1.56734
  Beta virt. eigenvalues --    1.57142   1.57690   1.57774   1.58118   1.58241
  Beta virt. eigenvalues --    1.58568   1.58958   1.59268   1.59460   1.59759
  Beta virt. eigenvalues --    1.60077   1.60363   1.60611   1.60831   1.61038
  Beta virt. eigenvalues --    1.61663   1.61750   1.61850   1.62290   1.62525
  Beta virt. eigenvalues --    1.62812   1.63189   1.63589   1.63917   1.64171
  Beta virt. eigenvalues --    1.64428   1.64849   1.64919   1.65726   1.66054
  Beta virt. eigenvalues --    1.66346   1.66995   1.67205   1.67443   1.68100
  Beta virt. eigenvalues --    1.69078   1.69242   1.69831   1.70049   1.70882
  Beta virt. eigenvalues --    1.71150   1.71461   1.72197   1.72759   1.73321
  Beta virt. eigenvalues --    1.73483   1.73698   1.73927   1.74497   1.74836
  Beta virt. eigenvalues --    1.75839   1.75883   1.76275   1.76784   1.76914
  Beta virt. eigenvalues --    1.77203   1.77579   1.77897   1.78308   1.78405
  Beta virt. eigenvalues --    1.78838   1.79123   1.79418   1.79705   1.80542
  Beta virt. eigenvalues --    1.80977   1.81387   1.81720   1.82458   1.82922
  Beta virt. eigenvalues --    1.83214   1.83563   1.84247   1.84717   1.85030
  Beta virt. eigenvalues --    1.85185   1.86156   1.86297   1.86857   1.86919
  Beta virt. eigenvalues --    1.87797   1.88214   1.88305   1.88546   1.89098
  Beta virt. eigenvalues --    1.89248   1.89509   1.89913   1.90390   1.90660
  Beta virt. eigenvalues --    1.91078   1.91482   1.91836   1.92244   1.92913
  Beta virt. eigenvalues --    1.93243   1.93586   1.94084   1.94485   1.94956
  Beta virt. eigenvalues --    1.95748   1.96098   1.96293   1.96387   1.97004
  Beta virt. eigenvalues --    1.97250   1.97532   1.98507   1.99024   1.99241
  Beta virt. eigenvalues --    1.99714   1.99771   2.00416   2.00598   2.00894
  Beta virt. eigenvalues --    2.01572   2.01807   2.02464   2.02655   2.02969
  Beta virt. eigenvalues --    2.03271   2.03504   2.03957   2.04079   2.04467
  Beta virt. eigenvalues --    2.04676   2.05234   2.05969   2.06433   2.06672
[...]
  1466. RY*(  14) C  80                  0.00000    21.11151   
  1467. RY*(  15) C  80                  0.00000     2.84256   
  1468. RY*(  16) C  80                  0.00000     2.06591   
  1469. RY*(  17) C  80                  0.00000     2.53612   
  1470. RY*(  18) C  80                  0.00000     2.21161   
  1471. RY*(  19) C  80                  0.00000     3.03987   
  1472. RY*(  20) C  80                  0.00000     3.35379   
  1473. RY*(  21) C  80                  0.00000     3.33985   
  1474. RY*(  22) C  80                  0.00000     3.12402   
  1475. RY*(  23) C  80                  0.00000     3.42528   
  1476. RY*(  24) C  80                  0.00000     3.20021   
  1477. RY*(  25) C  80                  0.00000     3.28696   
  1478. RY*(  26) C  80                  0.00000     3.43021   
  1479. RY*(   1) H  81                  0.00071     0.82628   
  1480. RY*(   2) H  81                  0.00013     2.35112   
  1481. RY*(   3) H  81                  0.00007     2.37472   
  1482. RY*(   4) H  81                  0.00002     2.93742   
  1483. RY*(   5) H  81                  0.00002     2.31008   
  1484. RY*(   1) H  82                  0.00041     1.11071   
  1485. RY*(   2) H  82                  0.00012     1.64417   
  1486. RY*(   3) H  82                  0.00007     2.20330   
  1487. RY*(   4) H  82                  0.00004     1.95330   
  1488. RY*(   5) H  82                  0.00000     2.96643   
  1489. RY*(   1) S  83                  0.00368     0.51901   
  1490. RY*(   2) S  83                  0.00167     1.05962   
  1491. RY*(   3) S  83                  0.00113     1.00363   
  1492. RY*(   4) S  83                  0.00079     1.14478   
  1493. RY*(   5) S  83                  0.00049     1.43798   
  1494. RY*(   6) S  83                  0.00045     1.58054   
  1495. RY*(   7) S  83                  0.00035     1.38088   
  1496. RY*(   8) S  83                  0.00030     1.65882   
  1497. RY*(   9) S  83                  0.00014     1.31709   
  1498. RY*(  10) S  83                  0.00012     1.87286   
  1499. RY*(  11) S  83                  0.00008     2.10715   
  1500. RY*(  12) S  83                  0.00005     2.04073   
  1501. RY*(  13) S  83                  0.00006     2.03015   
  1502. RY*(  14) S  83                  0.00004     2.15306   
  1503. RY*(  15) S  83                  0.00003     2.09041   
  1504. RY*(  16) S  83                  0.00001     2.40685   
  1505. RY*(  17) S  83                  0.00001     2.67384   
  1506. RY*(  18) S  83                  0.00001     3.01189   
  1507. RY*(  19) S  83                  0.00000    16.53363   
  1508. RY*(  20) S  83                  0.00000     7.63516   
  1509. RY*(  21) S  83                  0.00000     8.30299   
  1510. RY*(  22) S  83                  0.00000     2.51118   
  1511. RY*(  23) S  83                  0.00000     8.35966   
  1512. RY*(  24) S  83                  0.00000     2.12567   
  1513. RY*(  25) S  83                  0.00000     2.21494   
  1514. RY*(  26) S  83                  0.00001     2.46616   
  1515. RY*(  27) S  83                  0.00000     2.12233   
  1516. RY*(  28) S  83                  0.00001     2.12566   
  1517. RY*(   1) C  84                  0.00089     1.36583   
  1518. RY*(   2) C  84                  0.00054     0.98039   
  1519. RY*(   3) C  84                  0.00028     0.82760   
  1520. RY*(   4) C  84                  0.00020     1.13563   
  1521. RY*(   5) C  84                  0.00017     0.76864   
  1522. RY*(   6) C  84                  0.00015     1.10312   
  1523. RY*(   7) C  84                  0.00007     1.09653   
  1524. RY*(   8) C  84                  0.00002     1.53186   
  1525. RY*(   9) C  84                  0.00003     1.54900   
  1526. RY*(  10) C  84                  0.00002     2.21811   
  1527. RY*(  11) C  84                  0.00003     1.15055   
  1528. RY*(  12) C  84                  0.00000    21.05718   
  1529. RY*(  13) C  84                  0.00000     2.99193   
  1530. RY*(  14) C  84                  0.00000     2.36492   
  1531. RY*(  15) C  84                  0.00000     3.13274   
  1532. RY*(  16) C  84                  0.00001     1.45835   
  1533. RY*(  17) C  84                  0.00000     3.02152   
  1534. RY*(  18) C  84                  0.00000     2.66734   
  1535. RY*(  19) C  84                  0.00000     2.74457   
  1536. RY*(  20) C  84                  0.00000     3.54966   
  1537. RY*(  21) C  84                  0.00000     2.98097   
  1538. RY*(  22) C  84                  0.00000     3.16922   
  1539. RY*(  23) C  84                  0.00000     3.12497   
  1540. RY*(  24) C  84                  0.00000     3.35118   
  1541. RY*(  25) C  84                  0.00000     3.11914   
  1542. RY*(  26) C  84                  0.00000     3.30882   
  1543. RY*(   1) H  85                  0.00026     1.60432   
  1544. RY*(   2) H  85                  0.00009     1.65044   
  1545. RY*(   3) H  85                  0.00004     2.25399   
  1546. RY*(   4) H  85                  0.00002     2.11970   
  1547. RY*(   5) H  85                  0.00001     2.54334   
  1548. RY*(   1) H  86                  0.00056     0.79288   
  1549. RY*(   2) H  86                  0.00013     2.22004   
  1550. RY*(   3) H  86                  0.00005     2.22852   
  1551. RY*(   4) H  86                  0.00003     2.97117   
  1552. RY*(   5) H  86                  0.00003     2.09104   
  1553. RY*(   1) H  87                  0.00035     1.13171   
  1554. RY*(   2) H  87                  0.00008     1.44522   
  1555. RY*(   3) H  87                  0.00004     2.16009   
  1556. RY*(   4) H  87                  0.00004     1.87921   
  1557. RY*(   5) H  87                  0.00000     2.85937   
  1558. BD*(   1)Fe   1 - N   2          0.03483     0.29657   
  1559. BD*(   1)Fe   1 - N   3          0.03492     0.29547   
  1560. BD*(   1)Fe   1 - N   4          0.03257     0.28450   
  1561. BD*(   1)Fe   1 - N   5          0.03274     0.28742   
  1562. BD*(   1)Fe   1 - N  73          0.03573     0.25596   
  1563. BD*(   1)Fe   1 - S  83          0.03420     0.21809   
  1564. BD*(   1) N   2 - C   6          0.01405     0.40392   
  1565. BD*(   2) N   2 - C   6          0.32570    -0.09924  1611(v),1584(v),1579(v)
                                                    308(g),171(v),203(g),722(v)
                                                    1571(r),207(g),1563(v)
  1566. BD*(   1) N   2 - C   9          0.01430     0.40641   
  1567. BD*(   1) N   3 - C  10          0.01426     0.40526   
  1568. BD*(   2) N   3 - C  10          0.32583    -0.09848  1584(v),1588(v),1593(v)
                                                    171(v),412(g),229(g),753(v)
                                                    411(g),1574(r),233(g)
  1569. BD*(   1) N   3 - C  13          0.01392     0.40365   
  1570. BD*(   1) N   4 - C  14          0.01372     0.40831   
  1571. BD*(   2) N   4 - C  14          0.31765    -0.09726  1593(v),1602(v),1597(v)
                                                    516(g),171(v),255(g),1565(r)
                                                    258(g),1563(v)
  1572. BD*(   1) N   4 - C  17          0.01456     0.39950   
  1573. BD*(   1) N   5 - C  18          0.01428     0.40317   
  1574. BD*(   2) N   5 - C  18          0.32541    -0.10079  1602(v),1606(v),1611(v)
                                                    620(g),171(v),281(g),1568(r)
                                                    285(g),1563(v),815(v)
  1575. BD*(   1) N   5 - C  21          0.01424     0.40153   
  1576. BD*(   1) C   6 - C   7          0.01748     0.38699   
  1577. BD*(   1) C   6 - C  22          0.01035     0.47376   
  1578. BD*(   1) C   7 - C   8          0.01148     0.50805   
  1579. BD*(   2) C   7 - C   8          0.11805    -0.02994  1584(v),1565(v),1619(v)
                                                    1617(v),1616(v),1620(v)
  1580. BD*(   1) C   7 - C  30          0.00811     0.32101   
  1581. BD*(   1) C   8 - C   9          0.01737     0.38782   
  1582. BD*(   1) C   8 - C  34          0.00820     0.32105   
  1583. BD*(   1) C   9 - C  24          0.01035     0.47120   
  1584. BD*(   2) C   9 - C  24          0.19934    -0.05718  1568(v),1579(v),1565(v)
                                                    1593(r),1611(r),753(g)
                                                    388(g)
  1585. BD*(   1) C  10 - C  11          0.01734     0.39297   
  1586. BD*(   1) C  10 - C  24          0.01040     0.47017   
  1587. BD*(   1) C  11 - C  12          0.01139     0.50432   
  1588. BD*(   2) C  11 - C  12          0.12060    -0.02959  1593(v),1568(v),1640(v)
                                                    1642(v),1638(v),1643(v)
  1589. BD*(   1) C  11 - C  60          0.00817     0.32206   
  1590. BD*(   1) C  12 - C  13          0.01756     0.38919   
  1591. BD*(   1) C  12 - C  56          0.00802     0.32113   
  1592. BD*(   1) C  13 - C  26          0.01060     0.47021   
  1593. BD*(   2) C  13 - C  26          0.20298    -0.05674  1571(v),1588(v),1568(v)
                                                    1584(r),1602(r),492(g)
                                                    785(g)
  1594. BD*(   1) C  14 - C  15          0.01727     0.38624   
  1595. BD*(   1) C  14 - C  26          0.01054     0.47025   
  1596. BD*(   1) C  15 - C  16          0.01265     0.49234   
  1597. BD*(   2) C  15 - C  16          0.13859    -0.03366  1635(v),1602(v),1571(v)
                                                    1630(v),1631(v)
  1598. BD*(   1) C  15 - C  51          0.01335     0.40250   
  1599. BD*(   1) C  16 - C  17          0.01717     0.39432   
  1600. BD*(   1) C  16 - C  47          0.00788     0.32260   
  1601. BD*(   1) C  17 - C  28          0.01072     0.46531   
  1602. BD*(   2) C  17 - C  28          0.20715    -0.05984  1574(v),1597(v),1571(v)
                                                    1611(r),815(g),1593(r)
                                                    596(g)
  1603. BD*(   1) C  18 - C  19          0.01700     0.38282   
  1604. BD*(   1) C  18 - C  28          0.01051     0.46929   
  1605. BD*(   1) C  19 - C  20          0.01266     0.49146   
  1606. BD*(   2) C  19 - C  20          0.13935    -0.03496  1627(v),1611(v),1574(v)
                                                    1622(v),1623(v)
  1607. BD*(   1) C  19 - C  42          0.01342     0.40292   
  1608. BD*(   1) C  20 - C  21          0.01701     0.39615   
  1609. BD*(   1) C  20 - C  38          0.00784     0.32246   
  1610. BD*(   1) C  21 - C  22          0.01068     0.46676   
  1611. BD*(   2) C  21 - C  22          0.21067    -0.05840  1565(v),1606(v),1574(v)
                                                    1584(r),722(g),1602(r)
                                                    700(g)
  1612. BD*(   1) C  22 - H  23          0.00636     0.33615   
  1613. BD*(   1) C  24 - H  25          0.00632     0.33558   
  1614. BD*(   1) C  26 - H  27          0.00691     0.33784   
  1615. BD*(   1) C  28 - H  29          0.00677     0.33594   
  1616. BD*(   1) C  30 - H  31          0.00457     0.29334   
  1617. BD*(   1) C  30 - H  32          0.00464     0.29366   
  1618. BD*(   1) C  30 - H  33          0.00301     0.30639   
  1619. BD*(   1) C  34 - H  35          0.00498     0.29419   
  1620. BD*(   1) C  34 - H  36          0.00437     0.29387   
  1621. BD*(   1) C  34 - H  37          0.00301     0.30659   
  1622. BD*(   1) C  38 - H  39          0.00541     0.29237   
  1623. BD*(   1) C  38 - H  40          0.00437     0.29902   
  1624. BD*(   1) C  38 - H  41          0.00372     0.30802   
  1625. BD*(   1) C  42 - H  43          0.01042     0.33387   
  1626. BD*(   1) C  42 - C  44          0.00364     0.54498   
  1627. BD*(   2) C  42 - C  44          0.03128    -0.02836   
  1628. BD*(   1) C  44 - H  45          0.00516     0.35063   
  1629. BD*(   1) C  44 - H  46          0.00386     0.35524   
  1630. BD*(   1) C  47 - H  48          0.00550     0.29219   
  1631. BD*(   1) C  47 - H  49          0.00457     0.29860   
  1632. BD*(   1) C  47 - H  50          0.00376     0.30794   
  1633. BD*(   1) C  51 - H  52          0.01037     0.33433   
  1634. BD*(   1) C  51 - C  53          0.00368     0.54418   
  1635. BD*(   2) C  51 - C  53          0.02929    -0.02725   
  1636. BD*(   1) C  53 - H  54          0.00518     0.35113   
  1637. BD*(   1) C  53 - H  55          0.00390     0.35488   
  1638. BD*(   1) C  56 - H  57          0.00367     0.29920   
  1639. BD*(   1) C  56 - H  58          0.00304     0.30391   
  1640. BD*(   1) C  56 - H  59          0.00524     0.29305   
  1641. BD*(   1) C  60 - H  61          0.00309     0.30545   
  1642. BD*(   1) C  60 - H  62          0.00523     0.29240   
  1643. BD*(   1) C  60 - H  63          0.00379     0.29812   
  1644. BD*(   1) C  64 - H  65          0.00516     0.27452   
  1645. BD*(   1) C  64 - H  66          0.00156     0.28633   
  1646. BD*(   1) C  64 - H  67          0.00494     0.27425   
  1647. BD*(   1) C  64 - C  70          0.00626     0.29361   
  1648. BD*(   1) N  68 - H  69          0.00662     0.26951   
  1649. BD*(   1) N  68 - C  70          0.01368     0.32340   
  1650. BD*(   1) N  68 - C  71          0.01057     0.33819   
  1651. BD*(   1) C  70 - C  74          0.01062     0.45851   
  1652. BD*(   1) C  71 - H  72          0.00826     0.27946   
  1653. BD*(   1) C  71 - N  73          0.00909     0.41691   
  1654. BD*(   1) N  73 - C  74          0.00890     0.36593   
  1655. BD*(   2) N  73 - C  74          0.33833    -0.12753  94(v),173(v),171(v),1382(g)
                                                    1357(g),1325(v),1359(g)
  1656. BD*(   1) C  74 - H  75          0.00676     0.32210   
  1657. BD*(   1) C  76 - H  77          0.00395     0.29574   
  1658. BD*(   1) C  76 - H  78          0.00351     0.29657   
  1659. BD*(   1) C  76 - H  79          0.00477     0.31553   
  1660. BD*(   1) C  76 - C  80          0.00310     0.26206   
  1661. BD*(   1) C  80 - H  81          0.01056     0.28336   
  1662. BD*(   1) C  80 - H  82          0.00880     0.26444   
  1663. BD*(   1) C  80 - S  83          0.01720     0.04364   
  1664. BD*(   1) S  83 - C  84          0.00758     0.05429   
  1665. BD*(   1) C  84 - H  85          0.00354     0.28570   
  1666. BD*(   1) C  84 - H  86          0.00699     0.28246   
  1667. BD*(   1) C  84 - H  87          0.00541     0.27559   
       -------------------------------
              Total Lewis  168.28111  ( 97.2723%)
        Valence non-Lewis    4.38532  (  2.5349%)
        Rydberg non-Lewis    0.33357  (  0.1928%)
       -------------------------------
            Total unit  1  173.00000  (100.0000%)
           Charge unit  1    1.00000
 Unable to Open any file for archive entry.
 1\1\GINC-BGN1041\SP\UAPFD\def2TZVP\C37H42Fe1N6S1(1+,2)\BEBJONES\23-Jul
 -2024\0\\# apfd/def2TZVP guess=read scf=maxcycle=999 geom=check pop=nb
 o\\1gdv_III_D\\1,2\Fe,0,36.9921014805,18.7851378565,27.1780149664\N,0,
 38.0746489499,20.1280966578,28.1762955155\N,0,38.2596802581,18.9346545
 241,25.6416808083\N,0,35.9369073798,17.4174016244,26.1687577117\N,0,35
 .7154625553,18.6476549736,28.6996246917\C,0,37.8613758941,20.553507445
 5,29.4491584779\C,0,38.8629739543,21.5234552294,29.835898605\C,0,39.68
 03524756,21.676166621,28.7601299863\C,0,39.1483967135,20.8221778531,27
 .7214247878\C,0,39.2067262755,19.8917326049,25.4589599923\C,0,39.82061
 84976,19.7622994769,24.1596454205\C,0,39.2474103298,18.6772532807,23.5
 712216993\C,0,38.2774862623,18.1708489593,24.516774235\C,0,36.31787902
 35,16.7901915994,25.0287227377\C,0,35.3746124218,15.7461422007,24.6800
 592379\C,0,34.3904784548,15.7918082155,25.6320444556\C,0,34.7734743595
 ,16.827035805,26.5580121015\C,0,34.5750124254,17.9118971706,28.7528085
 045\C,0,33.9338662696,18.0553593436,30.0467862873\C,0,34.7606893812,18
 .858986591,30.7872007667\C,0,35.8467012326,19.2336300508,29.9197747599
 \C,0,36.8475503576,20.1208974785,30.2798666848\H,0,36.8104410184,20.53
 46450742,31.2760099589\C,0,39.6357923299,20.7790339083,26.4286287288\H
 ,0,40.4417200123,21.4498111993,26.1733636524\C,0,37.4120737496,17.1250
 427961,24.2542312812\H,0,37.5678526011,16.5593999418,23.3482086327\C,0
 ,34.1103213341,17.0860521713,27.7463811067\H,0,33.1776100261,16.570087
 3294,27.9158278004\C,0,38.9348934783,22.1700020268,31.1770995924\H,0,3
 9.022775959,21.4178909401,31.9619889793\H,0,38.034727829,22.7549121513
 ,31.3692188099\H,0,39.793511651,22.8344364405,31.2406155867\C,0,40.877
 435213,22.5490445657,28.5966134663\H,0,40.6843971392,23.3287052497,27.
 8587702166\H,0,41.7328260004,21.965868952,28.2551935767\H,0,41.1404470
 325,23.0266944336,29.5374776986\C,0,34.6329600109,19.2583387323,32.216
 263765\H,0,34.2061907776,20.2587913187,32.3056563632\H,0,35.6082821741
 ,19.2637840331,32.700634963\H,0,33.9856215873,18.5606902946,32.7436707
 338\C,0,32.6984679006,17.4117728398,30.4333351371\H,0,32.5006525147,16
 .4522192638,29.9684170363\C,0,31.8052418876,17.9068216984,31.284267080
 7\H,0,31.9212669135,18.8761748536,31.7378773617\H,0,30.9074300539,17.3
 66236317,31.5357696651\C,0,33.1999978976,14.9073918937,25.770384998\H,
 0,32.3064023031,15.3955432215,25.3752073302\H,0,33.0142757282,14.66226
 53403,26.8154540956\H,0,33.3574915965,13.9820635912,25.2195317558\C,0,
 35.5051651262,14.8678290932,23.5381649064\H,0,36.5211489081,14.5961656
 886,23.2728448553\C,0,34.5006152215,14.3919674206,22.8091054502\H,0,33
 .4763169657,14.6644149773,22.9957861505\H,0,34.67326884,13.7293929068,
 21.9766833042\C,0,39.5505279771,18.11114914,22.2251688413\H,0,39.73495
 10648,18.9129979601,21.5105962242\H,0,38.726762093,17.5074708066,21.85
 28934673\H,0,40.4450450759,17.4853303093,22.263719184\C,0,40.884202510
 6,20.6568944994,23.622221099\H,0,40.9745682496,20.5374521425,22.544776
 1335\H,0,41.85047679,20.4182739267,24.0707381713\H,0,40.6580938689,21.
 7000351348,23.838648539\C,0,38.8142382408,14.1687268551,29.7221357588\
 H,0,39.3331288306,13.4264988998,29.115361664\H,0,37.8160734054,13.8023
 546658,29.9408140081\H,0,39.3580108075,14.2829267804,30.6598834863\N,0
 ,39.8293231303,16.1841100318,28.6351514372\H,0,40.7857357679,15.918104
 4035,28.8037407851\C,0,38.7219334807,15.4658230599,29.0052452535\C,0,3
 9.4015568675,17.3044090651,28.0111932482\H,0,40.0491082126,18.05813365
 21,27.613114136\N,0,38.0925162372,17.3386955399,27.9637455768\C,0,37.6
 549978234,16.2021040953,28.5763432043\H,0,36.6097057498,15.990771276,2
 8.6673746308\C,0,35.0647174788,19.8947289056,23.708825596\H,0,35.48611
 6988,20.8237005888,23.3315439973\H,0,34.2945630347,19.5510423362,23.02
 11068252\H,0,35.8541834648,19.1492865588,23.7494323357\C,0,34.47675636
 85,20.1061148178,25.0900911791\H,0,34.0489058341,19.1843686574,25.4828
 117551\H,0,33.7191961714,20.8906879294,25.0770973825\S,0,35.7928911168
 ,20.6572356451,26.2475723651\C,0,34.7157954279,21.3236755714,27.552951
 5224\H,0,35.3600395939,21.6014014174,28.3802444222\H,0,34.0095599041,2
 0.5649532749,27.8752206061\H,0,34.1962916999,22.1987158262,27.17069069
 12\\Version=ES64L-G16RevC.02\State=2-A\HF=-3424.6693437\S2=0.814823\S2
 -1=0.\S2A=0.751154\RMSD=2.386e-09\Dipole=1.1897131,-0.5956147,0.605046
 5\Quadrupole=6.5312033,-5.1911362,-1.3400671,0.5365782,0.1248829,3.051
 172\PG=C01 [X(C37H42Fe1N6S1)]\\@
 The archive entry for this job was punched.


 MOM AND DAD WENT TO ALPHA CENTAURI AND ALL
 I GOT WAS THIS DUMB T-SHIRT.
 Job cpu time:       1 days 14 hours 20 minutes 17.2 seconds.
 Elapsed time:       0 days  0 hours 35 minutes  6.8 seconds.
 File lengths (MBytes):  RWF=   2563 Int=      0 D2E=      0 Chk=    233 Scr=      1
 Normal termination of Gaussian 16 at Tue Jul 23 15:13:28 2024.
