 Entering Gaussian System, Link 0=g16
 Input=1gwh16re.com
 Output=1gwh16re.log
 Initial command:
 /sw/chem/gaussian/g16_C02/a100/g16/l1.exe "/local/bebjones_7949522/Gau-3698576.inp" -scrdir="/local/bebjones_7949522/"
 Entering Link 1 = /sw/chem/gaussian/g16_C02/a100/g16/l1.exe PID=   3698577.
  
 Copyright (c) 1988-2021, Gaussian, Inc.  All Rights Reserved.
  
 This is part of the Gaussian(R) 16 program.  It is based on
 the Gaussian(R) 09 system (copyright 2009, Gaussian, Inc.),
 the Gaussian(R) 03 system (copyright 2003, Gaussian, Inc.),
 the Gaussian(R) 98 system (copyright 1998, Gaussian, Inc.),
 the Gaussian(R) 94 system (copyright 1995, Gaussian, Inc.),
 the Gaussian 92(TM) system (copyright 1992, Gaussian, Inc.),
 the Gaussian 90(TM) system (copyright 1990, Gaussian, Inc.),
 the Gaussian 88(TM) system (copyright 1988, Gaussian, Inc.),
 the Gaussian 86(TM) system (copyright 1986, Carnegie Mellon
 University), and the Gaussian 82(TM) system (copyright 1983,
 Carnegie Mellon University). Gaussian is a federally registered
 trademark of Gaussian, Inc.
  
 This software contains proprietary and confidential information,
 including trade secrets, belonging to Gaussian, Inc.
  
 This software is provided under written license and may be
 used, copied, transmitted, or stored only in accord with that
 written license.
  
 The following legend is applicable only to US Government
 contracts under FAR:
  
                    RESTRICTED RIGHTS LEGEND
  
 Use, reproduction and disclosure by the US Government is
 subject to restrictions as set forth in subparagraphs (a)
 and (c) of the Commercial Computer Software - Restricted
 Rights clause in FAR 52.227-19.
  
 Gaussian, Inc.
 340 Quinnipiac St., Bldg. 40, Wallingford CT 06492
  
  
 ---------------------------------------------------------------
 Warning -- This program may not be used in any manner that
 competes with the business of Gaussian, Inc. or will provide
 assistance to any competitor of Gaussian, Inc.  The licensee
 of this program is prohibited from giving any competitor of
 Gaussian, Inc. access to this program.  By using this program,
 the user acknowledges that Gaussian, Inc. is engaged in the
 business of creating and licensing software in the field of
 computational chemistry and represents and warrants to the
 licensee that it is not a competitor of Gaussian, Inc. and that
 it will not use this program in any manner prohibited above.
 ---------------------------------------------------------------
  

 Cite this work as:
 Gaussian 16, Revision C.02,
 M. J. Frisch, G. W. Trucks, H. B. Schlegel, G. E. Scuseria, 
 M. A. Robb, J. R. Cheeseman, G. Scalmani, V. Barone, 
 G. A. Petersson, H. Nakatsuji, X. Li, M. Caricato, A. V. Marenich, 
 J. Bloino, B. G. Janesko, R. Gomperts, B. Mennucci, H. P. Hratchian, 
 J. V. Ortiz, A. F. Izmaylov, J. L. Sonnenberg, D. Williams-Young, 
 F. Ding, F. Lipparini, F. Egidi, J. Goings, B. Peng, A. Petrone, 
 T. Henderson, D. Ranasinghe, V. G. Zakrzewski, J. Gao, N. Rega, 
 G. Zheng, W. Liang, M. Hada, M. Ehara, K. Toyota, R. Fukuda, 
 J. Hasegawa, M. Ishida, T. Nakajima, Y. Honda, O. Kitao, H. Nakai, 
 T. Vreven, K. Throssell, J. A. Montgomery, Jr., J. E. Peralta, 
 F. Ogliaro, M. J. Bearpark, J. J. Heyd, E. N. Brothers, K. N. Kudin, 
 V. N. Staroverov, T. A. Keith, R. Kobayashi, J. Normand, 
 K. Raghavachari, A. P. Rendell, J. C. Burant, S. S. Iyengar, 
 J. Tomasi, M. Cossi, J. M. Millam, M. Klene, C. Adamo, R. Cammi, 
 J. W. Ochterski, R. L. Martin, K. Morokuma, O. Farkas, 
 J. B. Foresman, and D. J. Fox, Gaussian, Inc., Wallingford CT, 2019.
 
 ******************************************
 Gaussian 16:  ES64L-G16RevC.02  7-Dec-2021
                23-Jul-2024 
 ******************************************
 %mem=16GB
 %CPU=0-71
 SetSPE:  set environment variable "OMP_PROC_BIND" = "true"
 SetSPE:  set environment variable "OMP_PLACES" = "{0},{1},{2},{3},{4},{5},{6},{7},{8},{9},{10},{11},{12},{13},{14},{15},{16},{17},{18},{19},{20},{21},{22},{23},{24},{25},{26},{27},{28},{29},{30},{31},{32},{33},{34},{35},{36},{37},{38},{39},{40},{41},{42},{43},{44},{45},{46},{47},{48},{49},{50},{51},{52},{53},{54},{55},{56},{57},{58},{59},{60},{61},{62},{63},{64},{65},{66},{67},{68},{69},{70},{71}"
 Will use up to   72 processors via shared memory.
 %gpucpu=0,1,2,3=0,1,2,3
 Will use    4 GPUs:
 Thread  CPU   GPU
      0    0     0
      1    1     1
      2    2     2
      3    3     3
      4    4    -1
      5    5    -1
      6    6    -1
      7    7    -1
      8    8    -1
      9    9    -1
     10   10    -1
     11   11    -1
     12   12    -1
     13   13    -1
     14   14    -1
     15   15    -1
     16   16    -1
     17   17    -1
     18   18    -1
     19   19    -1
     20   20    -1
     21   21    -1
     22   22    -1
     23   23    -1
     24   24    -1
     25   25    -1
     26   26    -1
     27   27    -1
     28   28    -1
     29   29    -1
     30   30    -1
     31   31    -1
     32   32    -1
     33   33    -1
     34   34    -1
     35   35    -1
     36   36    -1
     37   37    -1
     38   38    -1
     39   39    -1
     40   40    -1
     41   41    -1
     42   42    -1
     43   43    -1
     44   44    -1
     45   45    -1
     46   46    -1
     47   47    -1
     48   48    -1
     49   49    -1
     50   50    -1
     51   51    -1
     52   52    -1
     53   53    -1
     54   54    -1
     55   55    -1
     56   56    -1
     57   57    -1
     58   58    -1
     59   59    -1
     60   60    -1
     61   61    -1
     62   62    -1
     63   63    -1
     64   64    -1
     65   65    -1
     66   66    -1
     67   67    -1
     68   68    -1
     69   69    -1
     70   70    -1
     71   71    -1
 SetGPE:  set environment variable "OMP_PROC_BIND" = "true"
 SetGPE:  set environment variable "OMP_PLACES" = "{0},{1},{2},{3},{4},{5},{6},{7},{8},{9},{10},{11},{12},{13},{14},{15},{16},{17},{18},{19},{20},{21},{22},{23},{24},{25},{26},{27},{28},{29},{30},{31},{32},{33},{34},{35},{36},{37},{38},{39},{40},{41},{42},{43},{44},{45},{46},{47},{48},{49},{50},{51},{52},{53},{54},{55},{56},{57},{58},{59},{60},{61},{62},{63},{64},{65},{66},{67},{68},{69},{70},{71}"
 %oldchk=1gwh_III_D.chk
 %chk=1gwh_III_Dre.chk
 Properties for Device   0
 Minimum vector length:                              32
 Maximum vector length:                            1024
 Number of SMPs:                                    108
 Maximum number of threads per SMP:                2048
 Number of ASync Engines:                             5
 Memory:                                           9207742464
 Properties for Device   1
 Minimum vector length:                              32
 Maximum vector length:                            1024
 Number of SMPs:                                    108
 Maximum number of threads per SMP:                2048
 Number of ASync Engines:                             5
 Memory:                                           9207742464
 Properties for Device   2
 Minimum vector length:                              32
 Maximum vector length:                            1024
 Number of SMPs:                                    108
 Maximum number of threads per SMP:                2048
 Number of ASync Engines:                             5
 Memory:                                           9207742464
 Properties for Device   3
 Minimum vector length:                              32
 Maximum vector length:                            1024
 Number of SMPs:                                    108
 Maximum number of threads per SMP:                2048
 Number of ASync Engines:                             5
 Memory:                                           9207742464
   8286968217 words of memory will be used on each GPU.
 Copying data from "1gwh_III_D.chk" to current chk file "1gwh_III_Dre.chk"
 IOpt=  2 FromEx=T IUOpen= 4 IOptOp= 5 NList=   0 IFRang= 0 IUIn= 4 IUOut= 2.
 --------------------------------------
 # apfd/gen scf=maxcycle=999 geom=check
 --------------------------------------
 1/29=2,38=1,172=1/1;
 2/12=2,40=1/2;
 3/5=7,11=2,14=-4,25=1,30=1,74=-44/1,2,3;
 4//1;
 5/5=2,7=999,38=5/2;
 6/7=2,8=2,9=2,10=2,28=1/1;
 99/5=1,9=1/99;
 ----------
 1gwh_III_H
 ----------
 Structure from the checkpoint file:  "1gwh_III_Dre.chk"
 Charge =  1 Multiplicity = 6
 Z-Matrix found in chk file.
 Fe,0,22.632986151,-1.3816065383,-4.0139684829
 N,0,20.7017411139,-1.1018265041,-3.5165635379
 N,0,22.7809609244,-2.6823166542,-2.4862054067
 N,0,24.6324310936,-1.4255962955,-4.2447749224
 N,0,22.5101686708,0.0845587575,-5.3509228312
 C,0,19.8290474725,-0.2650627069,-4.1394774386
 C,0,18.4724798032,-0.5297493533,-3.7157261414
 C,0,18.541510065,-1.5779453152,-2.852889226
 C,0,19.9409046677,-1.9217213508,-2.7435001635
 C,0,21.7524278837,-3.3190961247,-1.8636301054
 C,0,22.235065749,-4.3869447119,-1.0248199213
 C,0,23.5987364013,-4.3781389608,-1.1415445155
 C,0,23.9118179596,-3.3159022327,-2.0803606646
 C,0,25.5129781835,-2.2225058209,-3.5803281637
 C,0,26.7978186466,-2.2209043138,-4.2286381608
 C,0,26.6653013189,-1.4346838491,-5.3446766685
 C,0,25.305606157,-0.9361037529,-5.320705448
 C,0,23.4951857274,0.4669603215,-6.2106417531
 C,0,22.9921795113,1.4445757765,-7.1501971996
 C,0,21.6864329064,1.6531008855,-6.8260194723
 C,0,21.3988691222,0.7811878598,-5.7095415865
 C,0,20.1589826578,0.6670702879,-5.1080561921
 H,0,19.3625370045,1.284862212,-5.4936425952
 C,0,20.4214588173,-2.9538361605,-1.9626425078
 H,0,19.6989812348,-3.5354809606,-1.4114611069
 C,0,25.1968650119,-3.0277556782,-2.4978878081
 H,0,25.9994908608,-3.6040006308,-2.0638229847
 C,0,24.7842230025,-0.0352303449,-6.232572759
 H,0,25.4338293619,0.3131768605,-7.0204965961
 C,0,17.4443942936,-2.2881018632,-2.1385425789
 H,0,16.4775942781,-1.8593277984,-2.3898947093
 H,0,17.5806111083,-2.2201715442,-1.0590307892
 H,0,17.4353803574,-3.3420609965,-2.4146943298
 C,0,17.2769325761,0.2112122931,-4.2069869802
 H,0,17.1398293541,0.0451398626,-5.2764010515
 H,0,17.3924074124,1.2827281885,-4.042701454
 H,0,16.378654015,-0.1196316844,-3.690761988
 C,0,21.38512359,-5.2478216201,-0.1573787804
 H,0,20.9410735407,-6.06137932,-0.7334132364
 H,0,20.5767160058,-4.669372857,0.2867307334
 H,0,21.9843446356,-5.679870143,0.6415015992
 C,0,24.5780073334,-5.2189079897,-0.4882821709
 H,0,25.5176733782,-4.7382282038,-0.2412222425
 C,0,24.4117958264,-6.5017398266,-0.1839745543
 H,0,23.5205212798,-7.0425605734,-0.4500936364
 H,0,25.1805860369,-7.0659496288,0.3173550327
 C,0,28.0131960375,-2.9131727474,-3.7200943552
 H,0,28.0097846462,-3.9659484644,-4.0061696132
 H,0,28.0596399714,-2.8598554671,-2.6333824302
 H,0,28.9070953674,-2.448195419,-4.1311353945
 C,0,27.6507539287,-1.0990524799,-6.347945278
 H,0,27.5561908545,-0.1121920953,-6.7858381765
 C,0,28.6292736909,-1.8959538464,-6.7650398791
 H,0,28.7421805636,-2.9027415145,-6.4032623336
 H,0,29.3379898607,-1.5736671646,-7.5097423378
 C,0,23.8093954017,2.0730929543,-8.2259974464
 H,0,24.1989127112,1.3150900842,-8.9062765549
 H,0,24.6564639269,2.609412834,-7.7981023107
 H,0,23.2146414059,2.777129284,-8.8025609249
 C,0,20.6894741424,2.5621455708,-7.4585646477
 H,0,21.1325831033,3.1033391353,-8.2911509469
 H,0,20.3213169069,3.2887029268,-6.7335809051
 H,0,19.8353735973,1.996255336,-7.8322950201
 O,0,23.152,0.226,-2.493
 H,0,24.107,0.208,-2.43
 H,0,22.608,0.791,-2.075
 C,0,16.7177167257,-4.171385943,-5.5768169541
 H,0,16.4110837377,-4.6845034738,-6.4882649524
 H,0,16.1231037109,-3.2648198443,-5.487310536
 H,0,16.4989909709,-4.8186221063,-4.731880221
 C,0,18.1774635656,-3.836334777,-5.6331416328
 C,0,19.10696187,-4.5279290454,-4.8674823001
 H,0,18.7762599882,-5.3262266787,-4.2191967026
 C,0,20.4498824712,-4.2064519902,-4.9108756374
 H,0,21.1731502176,-4.7230069961,-4.300836032
 C,0,20.8828135477,-3.1729719641,-5.7294831538
 O,0,22.2225992185,-2.8466863255,-5.7233669067
 H,0,22.3911674842,-2.2126300284,-6.4363213541
 C,0,18.6311987193,-2.8219312964,-6.4665925566
 H,0,17.9232948207,-2.2777502907,-7.074703037
 C,0,19.9717538905,-2.4912884015,-6.5239452114
 H,0,20.3100976653,-1.6857020589,-7.161407509
 Recover connectivity data from disk.
 Stoichiometry    C37H38FeN4O2(1+,6)
 Framework group  C1[X(C37H38FeN4O2)]
 Deg. of freedom   240
 Full point group                 C1      NOp   1
 Largest Abelian subgroup         C1      NOp   1
 Largest concise Abelian subgroup C1      NOp   1
                         Standard orientation:                         
 ---------------------------------------------------------------------
 Center     Atomic      Atomic             Coordinates (Angstroms)
 Number     Number       Type             X           Y           Z
 ---------------------------------------------------------------------
      1         26           0        0.396629   -0.142211   -0.479966
      2          7           0       -1.543671   -0.109700   -1.018086
      3          7           0        0.425495    1.860702   -0.667879
      4          7           0        2.401541   -0.153781   -0.297809
      5          7           0        0.390271   -2.129165   -0.544352
      6          6           0       -2.354937   -1.193366   -1.149629
      7          6           0       -3.738500   -0.788805   -1.259095
      8          6           0       -3.748418    0.565873   -1.146325
      9          6           0       -2.369345    0.970316   -0.994538
     10          6           0       -0.653647    2.689190   -0.662434
     11          6           0       -0.250311    4.065537   -0.521611
     12          6           0        1.116664    4.058212   -0.453601
     13          6           0        1.512043    2.663075   -0.524391
     14          6           0        3.220223    0.930752   -0.223879
     15          6           0        4.532700    0.553838    0.230503
     16          6           0        4.481117   -0.793442    0.482337
     17          6           0        3.141315   -1.213448    0.126735
     18          6           0        1.427392   -2.943335   -0.202136
     19          6           0        1.004992   -4.326469   -0.207693
     20          6           0       -0.305596   -4.326781   -0.576347
     21          6           0       -0.676574   -2.942609   -0.765793
     22          6           0       -1.946221   -2.515156   -1.108440
     23          1           0       -2.700467   -3.272449   -1.257742
     24          6           0       -1.964089    2.280628   -0.837119
     25          1           0       -2.732370    3.037975   -0.821122
     26          6           0        2.824800    2.241855   -0.435256
     27          1           0        3.584535    3.003540   -0.349712
     28          6           0        2.696432   -2.523484    0.155015
     29          1           0        3.394159   -3.283085    0.471846
     30          6           0       -4.902983    1.506714   -1.154948
     31          1           0       -5.840515    0.968079   -1.267346
     32          1           0       -4.814148    2.217716   -1.976593
     33          1           0       -4.938608    2.067928   -0.221707
     34          6           0       -4.881687   -1.731271   -1.415864
     35          1           0       -4.975534   -2.365084   -0.532973
     36          1           0       -4.733985   -2.376666   -2.281959
     37          1           0       -5.814490   -1.188031   -1.548594
     38          6           0       -1.170807    5.235337   -0.536458
     39          1           0       -1.617931    5.390182    0.446891
     40          1           0       -1.976643    5.083143   -1.252576
     41          1           0       -0.625526    6.135888   -0.811445
     42          6           0        2.032774    5.172145   -0.341743
     43          1           0        2.977360    5.055566   -0.860618
     44          6           0        1.804974    6.291978    0.336467
     45          1           0        0.907328    6.441161    0.910620
     46          1           0        2.528287    7.089894    0.365663
     47          6           0        5.696704    1.474669    0.340781
     48          1           0        5.667172    2.028458    1.280267
     49          1           0        5.695047    2.195856   -0.475203
     50          1           0        6.625302    0.908443    0.304607
     51          6           0        5.523533   -1.674070    0.960014
     52          1           0        5.486118   -2.690514    0.585809
     53          6           0        6.489787   -1.336776    1.808015
     54          1           0        6.548272   -0.357991    2.250521
     55          1           0        7.243556   -2.044121    2.111700
     56          6           0        1.893736   -5.477028    0.118759
     57          1           0        2.285585   -5.385456    1.132238
     58          1           0        2.739641   -5.512959   -0.567835
     59          1           0        1.352835   -6.417115    0.044690
     60          6           0       -1.237768   -5.476176   -0.750560
     61          1           0       -0.736925   -6.416944   -0.534811
     62          1           0       -1.611525   -5.512870   -1.774271
     63          1           0       -2.094289   -5.381793   -0.082086
     64          8           0        0.904736   -0.202824   -2.694751
     65          1           0        1.854487   -0.089890   -2.733948
     66          1           0        0.363542   -0.348017   -3.384616
     67          6           0       -5.540446    0.417451    2.627074
     68          1           0       -5.823746    0.131921    3.640122
     69          1           0       -6.104299   -0.203784    1.934561
     70          1           0       -5.821825    1.455884    2.474909
     71          6           0       -4.068167    0.224433    2.423526
     72          6           0       -3.201347    1.306970    2.351133
     73          1           0       -3.591094    2.309972    2.446012
     74          6           0       -1.846791    1.125793    2.148602
     75          1           0       -1.172145    1.962624    2.066991
     76          6           0       -1.338379   -0.158027    2.010934
     77          8           0        0.010949   -0.308360    1.769604
     78          1           0        0.235694   -1.248426    1.836768
     79          6           0       -3.539016   -1.054849    2.309656
     80          1           0       -4.197382   -1.909197    2.370504
     81          6           0       -2.185837   -1.252442    2.110746
     82          1           0       -1.788687   -2.252673    2.002976
 ---------------------------------------------------------------------
 Rotational constants (GHZ):           0.0962899           0.0805832           0.0527864
 General basis read from cards:  (5D, 7F)
 There are   757 symmetry adapted cartesian basis functions of A   symmetry.
 There are   711 symmetry adapted basis functions of A   symmetry.
   711 basis functions,  1442 primitive gaussians,   757 cartesian basis functions
   167 alpha electrons      162 beta electrons
       nuclear repulsion energy      6426.9627715177 Hartrees.
 NAtoms=   82 NActive=   82 NUniq=   82 SFac= 1.00D+00 NAtFMM=   60 NAOKFM=T Big=T
 Integral buffers will be    131072 words long.
 Raffenetti 2 integral format.
 Two-electron integral symmetry is turned on.
 R6APFD:  NTU= -4 IXU= 1 FactS= 1.050
 Nuclear repulsion after empirical dispersion term =     6426.7891321039 Hartrees.
 One-electron integrals computed using PRISM.
 NBasis=   711 RedAO= T EigKep=  2.63D-04  NBF=   711
 NBsUse=   711 1.00D-06 EigRej= -1.00D+00 NBFU=   711
 ExpMin= 4.20D-02 ExpMax= 3.01D+05 ExpMxC= 2.91D+03 IAcc=3 IRadAn=         5 AccDes= 0.00D+00
 Harris functional with IExCor= 3731 and IRadAn=       5 diagonalized for initial guess.
 HarFok:  IExCor= 3731 AccDes= 0.00D+00 IRadAn=         5 IDoV= 1 UseB2=F ITyADJ=14
 ICtDFT=  3500011 ScaDFX=  1.000000  1.000000  1.000000  1.000000
 FoFCou: FMM=F IPFlag=           0 FMFlag=      100000 FMFlg1=        2001
         NFxFlg=           0 DoJE=T BraDBF=F KetDBF=T FulRan=T
         wScrn=  0.000000 ICntrl=       500 IOpCl=  0 I1Cent=   200000004 NGrid=           0
         NMat0=    1 NMatS0=      1 NMatT0=    0 NMatD0=    1 NMtDS0=    0 NMtDT0=    0
 Petite list used in FoFCou.
 Initial guess <Sx>= 0.0000 <Sy>= 0.0000 <Sz>= 2.5000 <S**2>= 8.7500 S= 2.5000
 Requested convergence on RMS density matrix=1.00D-08 within 999 cycles.
 Requested convergence on MAX density matrix=1.00D-06.
 Requested convergence on             energy=1.00D-06.
 No special actions if energy rises.
 EnCoef did   100 forward-backward iterations
 EnCoef did   100 forward-backward iterations
 EnCoef did   100 forward-backward iterations
 EnCoef did     3 forward-backward iterations
 EnCoef did     7 forward-backward iterations
 EnCoef did     5 forward-backward iterations
 EnCoef did     1 forward-backward iterations
 EnCoef did   100 forward-backward iterations
 EnCoef did   100 forward-backward iterations
 Restarting incremental Fock formation.
 Rare condition: small coef for last iteration:  0.000D+00
 Rare condition: small coef for last iteration:  0.000D+00
 Rare condition: small coef for last iteration:  0.000D+00
 Rare condition: small coef for last iteration:  0.000D+00
 Rare condition: small coef for last iteration:  0.000D+00
 Rare condition: small coef for last iteration:  0.000D+00
 Rare condition: small coef for last iteration:  0.000D+00
 Rare condition: small coef for last iteration:  0.000D+00
 Restarting incremental Fock formation.
 Rare condition: small coef for last iteration:  0.000D+00
 Rare condition: small coef for last iteration:  0.000D+00
 Rare condition: small coef for last iteration:  0.000D+00
 Rare condition: small coef for last iteration:  0.000D+00
 Rare condition: small coef for last iteration:  0.000D+00
 Rare condition: small coef for last iteration:  0.000D+00
 Restarting incremental Fock formation.
 Rare condition: small coef for last iteration:  0.000D+00
 Rare condition: small coef for last iteration:  0.000D+00
 Rare condition: small coef for last iteration:  0.000D+00
 Rare condition: small coef for last iteration:  0.000D+00
 Rare condition: small coef for last iteration:  0.000D+00
 Rare condition: small coef for last iteration:  0.000D+00
 Restarting incremental Fock formation.
 SCF Done:  E(UAPFD) =  -3064.37380995     A.U. after   92 cycles
            NFock= 92  Conv=0.71D-08     -V/T= 2.0035
 <Sx>= 0.0000 <Sy>= 0.0000 <Sz>= 2.5000 <S**2>= 8.7596 S= 2.5016
 <L.S>=  0.00000000000    
 Annihilation of the first spin contaminant:
 S**2 before annihilation     8.7596,   after     8.7500

 **********************************************************************

            Population analysis using the SCF Density.

 **********************************************************************

 Orbital symmetries:
 Alpha Orbitals:
       Occupied  (A) (A) (A) (A) (A) (A) (A) (A) (A) (A) (A) (A)
                 (A) (A) (A) (A) (A) (A) (A) (A) (A) (A) (A) (A)
                 (A) (A) (A) (A) (A) (A) (A) (A) (A) (A) (A) (A)
                 (A) (A) (A) (A) (A) (A) (A) (A) (A) (A) (A) (A)
                 (A) (A) (A) (A) (A) (A) (A) (A) (A) (A) (A) (A)
                 (A) (A) (A) (A) (A) (A) (A) (A) (A) (A) (A) (A)
                 (A) (A) (A) (A) (A) (A) (A) (A) (A) (A) (A) (A)
                 (A) (A) (A) (A) (A) (A) (A) (A) (A) (A) (A) (A)
                 (A) (A) (A) (A) (A) (A) (A) (A) (A) (A) (A) (A)
                 (A) (A) (A) (A) (A) (A) (A) (A) (A) (A) (A) (A)
                 (A) (A) (A) (A) (A) (A) (A) (A) (A) (A) (A) (A)
                 (A) (A) (A) (A) (A) (A) (A) (A) (A) (A) (A) (A)
                 (A) (A) (A) (A) (A) (A) (A) (A) (A) (A) (A) (A)
                 (A) (A) (A) (A) (A) (A) (A) (A) (A) (A) (A)
       Virtual   (A) (A) (A) (A) (A) (A) (A) (A) (A) (A) (A) (A)
                 (A) (A) (A) (A) (A) (A) (A) (A) (A) (A) (A) (A)
                 (A) (A) (A) (A) (A) (A) (A) (A) (A) (A) (A) (A)
                 (A) (A) (A) (A) (A) (A) (A) (A) (A) (A) (A) (A)
                 (A) (A) (A) (A) (A) (A) (A) (A) (A) (A) (A) (A)
                 (A) (A) (A) (A) (A) (A) (A) (A) (A) (A) (A) (A)
                 (A) (A) (A) (A) (A) (A) (A) (A) (A) (A) (A) (A)
                 (A) (A) (A) (A) (A) (A) (A) (A) (A) (A) (A) (A)
                 (A) (A) (A) (A) (A) (A) (A) (A) (A) (A) (A) (A)
                 (A) (A) (A) (A) (A) (A) (A) (A) (A) (A) (A) (A)
                 (A) (A) (A) (A) (A) (A) (A) (A) (A) (A) (A) (A)
                 (A) (A) (A) (A) (A) (A) (A) (A) (A) (A) (A) (A)
                 (A) (A) (A) (A) (A) (A) (A) (A) (A) (A) (A) (A)
                 (A) (A) (A) (A) (A) (A) (A) (A) (A) (A) (A) (A)
                 (A) (A) (A) (A) (A) (A) (A) (A) (A) (A) (A) (A)
                 (A) (A) (A) (A) (A) (A) (A) (A) (A) (A) (A) (A)
                 (A) (A) (A) (A) (A) (A) (A) (A) (A) (A) (A) (A)
                 (A) (A) (A) (A) (A) (A) (A) (A) (A) (A) (A) (A)
                 (A) (A) (A) (A) (A) (A) (A) (A) (A) (A) (A) (A)
                 (A) (A) (A) (A) (A) (A) (A) (A) (A) (A) (A) (A)
                 (A) (A) (A) (A) (A) (A) (A) (A) (A) (A) (A) (A)
                 (A) (A) (A) (A) (A) (A) (A) (A) (A) (A) (A) (A)
                 (A) (A) (A) (A) (A) (A) (A) (A) (A) (A) (A) (A)
                 (A) (A) (A) (A) (A) (A) (A) (A) (A) (A) (A) (A)
                 (A) (A) (A) (A) (A) (A) (A) (A) (A) (A) (A) (A)
                 (A) (A) (A) (A) (A) (A) (A) (A) (A) (A) (A) (A)
                 (A) (A) (A) (A) (A) (A) (A) (A) (A) (A) (A) (A)
                 (A) (A) (A) (A) (A) (A) (A) (A) (A) (A) (A) (A)
                 (A) (A) (A) (A) (A) (A) (A) (A) (A) (A) (A) (A)
                 (A) (A) (A) (A) (A) (A) (A) (A) (A) (A) (A) (A)
                 (A) (A) (A) (A) (A) (A) (A) (A) (A) (A) (A) (A)
                 (A) (A) (A) (A) (A) (A) (A) (A) (A) (A) (A) (A)
                 (A) (A) (A) (A) (A) (A) (A) (A) (A) (A) (A) (A)
                 (A) (A) (A) (A) (A) (A) (A) (A) (A) (A) (A) (A)
                 (A) (A) (A) (A) (A) (A) (A) (A) (A) (A) (A) (A)
                 (A) (A) (A) (A) (A) (A) (A) (A) (A) (A) (A) (A)
                 (A) (A) (A) (A) (A) (A) (A) (A) (A) (A) (A) (A)
                 (A) (A) (A) (A) (A) (A) (A) (A) (A) (A) (A) (A)
                 (A) (A) (A) (A) (A) (A) (A) (A) (A) (A) (A) (A)
                 (A) (A) (A) (A) (A) (A) (A) (A) (A) (A) (A) (A)
                 (A) (A) (A) (A) (A) (A) (A) (A) (A) (A) (A) (A)
                 (A) (A) (A) (A) (A) (A) (A) (A) (A) (A) (A) (A)
                 (A) (A) (A) (A) (A) (A) (A) (A) (A) (A) (A) (A)
                 (A) (A) (A) (A) (A) (A) (A) (A) (A) (A) (A) (A)
                 (A) (A) (A) (A) (A) (A) (A) (A) (A) (A) (A) (A)
                 (A) (A) (A) (A)
 Beta  Orbitals:
       Occupied  (A) (A) (A) (A) (A) (A) (A) (A) (A) (A) (A) (A)
                 (A) (A) (A) (A) (A) (A) (A) (A) (A) (A) (A) (A)
                 (A) (A) (A) (A) (A) (A) (A) (A) (A) (A) (A) (A)
                 (A) (A) (A) (A) (A) (A) (A) (A) (A) (A) (A) (A)
                 (A) (A) (A) (A) (A) (A) (A) (A) (A) (A) (A) (A)
                 (A) (A) (A) (A) (A) (A) (A) (A) (A) (A) (A) (A)
                 (A) (A) (A) (A) (A) (A) (A) (A) (A) (A) (A) (A)
                 (A) (A) (A) (A) (A) (A) (A) (A) (A) (A) (A) (A)
                 (A) (A) (A) (A) (A) (A) (A) (A) (A) (A) (A) (A)
                 (A) (A) (A) (A) (A) (A) (A) (A) (A) (A) (A) (A)
                 (A) (A) (A) (A) (A) (A) (A) (A) (A) (A) (A) (A)
                 (A) (A) (A) (A) (A) (A) (A) (A) (A) (A) (A) (A)
                 (A) (A) (A) (A) (A) (A) (A) (A) (A) (A) (A) (A)
                 (A) (A) (A) (A) (A) (A)
       Virtual   (A) (A) (A) (A) (A) (A) (A) (A) (A) (A) (A) (A)
                 (A) (A) (A) (A) (A) (A) (A) (A) (A) (A) (A) (A)
                 (A) (A) (A) (A) (A) (A) (A) (A) (A) (A) (A) (A)
                 (A) (A) (A) (A) (A) (A) (A) (A) (A) (A) (A) (A)
                 (A) (A) (A) (A) (A) (A) (A) (A) (A) (A) (A) (A)
                 (A) (A) (A) (A) (A) (A) (A) (A) (A) (A) (A) (A)
                 (A) (A) (A) (A) (A) (A) (A) (A) (A) (A) (A) (A)
                 (A) (A) (A) (A) (A) (A) (A) (A) (A) (A) (A) (A)
                 (A) (A) (A) (A) (A) (A) (A) (A) (A) (A) (A) (A)
                 (A) (A) (A) (A) (A) (A) (A) (A) (A) (A) (A) (A)
                 (A) (A) (A) (A) (A) (A) (A) (A) (A) (A) (A) (A)
                 (A) (A) (A) (A) (A) (A) (A) (A) (A) (A) (A) (A)
                 (A) (A) (A) (A) (A) (A) (A) (A) (A) (A) (A) (A)
                 (A) (A) (A) (A) (A) (A) (A) (A) (A) (A) (A) (A)
                 (A) (A) (A) (A) (A) (A) (A) (A) (A) (A) (A) (A)
                 (A) (A) (A) (A) (A) (A) (A) (A) (A) (A) (A) (A)
                 (A) (A) (A) (A) (A) (A) (A) (A) (A) (A) (A) (A)
                 (A) (A) (A) (A) (A) (A) (A) (A) (A) (A) (A) (A)
                 (A) (A) (A) (A) (A) (A) (A) (A) (A) (A) (A) (A)
                 (A) (A) (A) (A) (A) (A) (A) (A) (A) (A) (A) (A)
                 (A) (A) (A) (A) (A) (A) (A) (A) (A) (A) (A) (A)
                 (A) (A) (A) (A) (A) (A) (A) (A) (A) (A) (A) (A)
                 (A) (A) (A) (A) (A) (A) (A) (A) (A) (A) (A) (A)
                 (A) (A) (A) (A) (A) (A) (A) (A) (A) (A) (A) (A)
                 (A) (A) (A) (A) (A) (A) (A) (A) (A) (A) (A) (A)
                 (A) (A) (A) (A) (A) (A) (A) (A) (A) (A) (A) (A)
                 (A) (A) (A) (A) (A) (A) (A) (A) (A) (A) (A) (A)
                 (A) (A) (A) (A) (A) (A) (A) (A) (A) (A) (A) (A)
                 (A) (A) (A) (A) (A) (A) (A) (A) (A) (A) (A) (A)
                 (A) (A) (A) (A) (A) (A) (A) (A) (A) (A) (A) (A)
                 (A) (A) (A) (A) (A) (A) (A) (A) (A) (A) (A) (A)
                 (A) (A) (A) (A) (A) (A) (A) (A) (A) (A) (A) (A)
                 (A) (A) (A) (A) (A) (A) (A) (A) (A) (A) (A) (A)
                 (A) (A) (A) (A) (A) (A) (A) (A) (A) (A) (A) (A)
                 (A) (A) (A) (A) (A) (A) (A) (A) (A) (A) (A) (A)
                 (A) (A) (A) (A) (A) (A) (A) (A) (A) (A) (A) (A)
                 (A) (A) (A) (A) (A) (A) (A) (A) (A) (A) (A) (A)
                 (A) (A) (A) (A) (A) (A) (A) (A) (A) (A) (A) (A)
                 (A) (A) (A) (A) (A) (A) (A) (A) (A) (A) (A) (A)
                 (A) (A) (A) (A) (A) (A) (A) (A) (A) (A) (A) (A)
                 (A) (A) (A) (A) (A) (A) (A) (A) (A) (A) (A) (A)
                 (A) (A) (A) (A) (A) (A) (A) (A) (A) (A) (A) (A)
                 (A) (A) (A) (A) (A) (A) (A) (A) (A) (A) (A) (A)
                 (A) (A) (A) (A) (A) (A) (A) (A) (A) (A) (A) (A)
                 (A) (A) (A) (A) (A) (A) (A) (A) (A) (A) (A) (A)
                 (A) (A) (A) (A) (A) (A) (A) (A) (A)
 The electronic state is 6-A.
 Alpha  occ. eigenvalues -- -256.44243 -30.35117 -26.18311 -26.17957 -26.17899
 Alpha  occ. eigenvalues --  -19.35411 -19.30046 -14.47510 -14.47453 -14.47164
 Alpha  occ. eigenvalues --  -14.47121 -10.36475 -10.34352 -10.34195 -10.34191
 Alpha  occ. eigenvalues --  -10.34143 -10.34130 -10.33983 -10.33968 -10.33830
 Alpha  occ. eigenvalues --  -10.31225 -10.31148 -10.31106 -10.31058 -10.31044
 Alpha  occ. eigenvalues --  -10.30920 -10.30907 -10.30868 -10.30819 -10.30809
 Alpha  occ. eigenvalues --  -10.30752 -10.30672 -10.30194 -10.30020 -10.29854
 Alpha  occ. eigenvalues --  -10.29807 -10.29647 -10.29498 -10.29371 -10.28931
 Alpha  occ. eigenvalues --  -10.28879 -10.28867 -10.28746 -10.28555 -10.28542
 Alpha  occ. eigenvalues --  -10.28484 -10.28468 -10.27368  -3.80441  -2.57320
 Alpha  occ. eigenvalues --   -2.56883  -2.56770  -1.21231  -1.16675  -1.09901
 Alpha  occ. eigenvalues --   -1.08885  -1.08843  -1.07874  -0.96923  -0.94176
 Alpha  occ. eigenvalues --   -0.92884  -0.92585  -0.92174  -0.91793  -0.91362
 Alpha  occ. eigenvalues --   -0.91345  -0.87766  -0.87291  -0.86023  -0.85947
 Alpha  occ. eigenvalues --   -0.85827  -0.84895  -0.83560  -0.81825  -0.80832
 Alpha  occ. eigenvalues --   -0.79308  -0.79115  -0.79013  -0.78790  -0.75772
 Alpha  occ. eigenvalues --   -0.75744  -0.73417  -0.72452  -0.71277  -0.70659
 Alpha  occ. eigenvalues --   -0.70252  -0.69431  -0.69132  -0.66078  -0.65835
 Alpha  occ. eigenvalues --   -0.65225  -0.64646  -0.64368  -0.63009  -0.62570
 Alpha  occ. eigenvalues --   -0.62512  -0.62102  -0.61235  -0.59339  -0.59073
 Alpha  occ. eigenvalues --   -0.59002  -0.58255  -0.57993  -0.57359  -0.56933
 Alpha  occ. eigenvalues --   -0.56747  -0.56569  -0.56297  -0.55133  -0.54634
 Alpha  occ. eigenvalues --   -0.54413  -0.54313  -0.54168  -0.54078  -0.53866
 Alpha  occ. eigenvalues --   -0.53626  -0.53394  -0.52947  -0.52777  -0.52352
 Alpha  occ. eigenvalues --   -0.52198  -0.51859  -0.51711  -0.51287  -0.51182
 Alpha  occ. eigenvalues --   -0.50816  -0.50792  -0.50523  -0.50362  -0.50303
 Alpha  occ. eigenvalues --   -0.49820  -0.49714  -0.49386  -0.49217  -0.48885
 Alpha  occ. eigenvalues --   -0.48711  -0.48240  -0.47721  -0.47577  -0.47265
 Alpha  occ. eigenvalues --   -0.46875  -0.46335  -0.45940  -0.45516  -0.45195
 Alpha  occ. eigenvalues --   -0.44729  -0.44633  -0.44223  -0.43937  -0.43742
 Alpha  occ. eigenvalues --   -0.43173  -0.42860  -0.42676  -0.42347  -0.40220
 Alpha  occ. eigenvalues --   -0.39816  -0.38188  -0.37897  -0.34951  -0.34677
 Alpha  occ. eigenvalues --   -0.34546  -0.33883  -0.33081  -0.32597  -0.32123
 Alpha  occ. eigenvalues --   -0.30104  -0.29184
 Alpha virt. eigenvalues --   -0.18094  -0.18029  -0.12168  -0.09328  -0.08447
 Alpha virt. eigenvalues --   -0.07930  -0.07412  -0.05213  -0.04366  -0.02694
 Alpha virt. eigenvalues --   -0.02184  -0.01811  -0.00619   0.00120   0.01040
 Alpha virt. eigenvalues --    0.01361   0.01979   0.02281   0.02848   0.02938
 Alpha virt. eigenvalues --    0.03596   0.03791   0.04306   0.04451   0.04969
 Alpha virt. eigenvalues --    0.05551   0.05781   0.05839   0.06350   0.06540
 Alpha virt. eigenvalues --    0.06802   0.07052   0.07361   0.07783   0.07854
 Alpha virt. eigenvalues --    0.08056   0.08520   0.08706   0.08874   0.09072
 Alpha virt. eigenvalues --    0.09493   0.09695   0.09919   0.10677   0.10842
 Alpha virt. eigenvalues --    0.11287   0.11360   0.11524   0.11866   0.11963
 Alpha virt. eigenvalues --    0.12386   0.12714   0.13151   0.13446   0.13775
 Alpha virt. eigenvalues --    0.14209   0.14256   0.14684   0.15129   0.15173
 Alpha virt. eigenvalues --    0.15702   0.15924   0.16183   0.16577   0.16937
 Alpha virt. eigenvalues --    0.17387   0.17481   0.18656   0.19272   0.19942
 Alpha virt. eigenvalues --    0.20086   0.21039   0.21472   0.21858   0.22819
 Alpha virt. eigenvalues --    0.23052   0.24043   0.24805   0.25010   0.25242
 Alpha virt. eigenvalues --    0.25437   0.26125   0.26332   0.26881   0.28093
 Alpha virt. eigenvalues --    0.28536   0.29340   0.29835   0.31908   0.32535
 Alpha virt. eigenvalues --    0.33302   0.33800   0.34146   0.35778   0.36140
 Alpha virt. eigenvalues --    0.36451   0.36630   0.37772   0.38192   0.38647
 Alpha virt. eigenvalues --    0.38944   0.39454   0.39773   0.40344   0.41148
 Alpha virt. eigenvalues --    0.41267   0.41989   0.42226   0.42976   0.43113
 Alpha virt. eigenvalues --    0.43540   0.44134   0.44247   0.44438   0.44661
 Alpha virt. eigenvalues --    0.45323   0.45655   0.45691   0.46511   0.46941
 Alpha virt. eigenvalues --    0.47410   0.47464   0.47794   0.48295   0.49059
 Alpha virt. eigenvalues --    0.49554   0.50029   0.50209   0.50732   0.51189
 Alpha virt. eigenvalues --    0.51271   0.51909   0.52211   0.52590   0.53159
 Alpha virt. eigenvalues --    0.53531   0.53639   0.53857   0.54294   0.54710
 Alpha virt. eigenvalues --    0.55080   0.55328   0.55537   0.55853   0.56017
 Alpha virt. eigenvalues --    0.56451   0.56882   0.57183   0.57688   0.57839
 Alpha virt. eigenvalues --    0.58101   0.58732   0.59019   0.59806   0.60165
 Alpha virt. eigenvalues --    0.61183   0.61706   0.62309   0.62552   0.63011
 Alpha virt. eigenvalues --    0.63326   0.63731   0.64719   0.64791   0.65393
 Alpha virt. eigenvalues --    0.65468   0.65784   0.66181   0.66258   0.67065
 Alpha virt. eigenvalues --    0.67318   0.67378   0.67904   0.67999   0.68567
 Alpha virt. eigenvalues --    0.69119   0.69428   0.69678   0.70201   0.70616
 Alpha virt. eigenvalues --    0.70786   0.71212   0.71691   0.72511   0.73231
 Alpha virt. eigenvalues --    0.73572   0.74268   0.74808   0.75266   0.76546
 Alpha virt. eigenvalues --    0.76780   0.77094   0.77328   0.77733   0.77908
 Alpha virt. eigenvalues --    0.78220   0.78522   0.78765   0.79294   0.79412
 Alpha virt. eigenvalues --    0.79939   0.80194   0.80718   0.81223   0.81751
 Alpha virt. eigenvalues --    0.82033   0.82234   0.82452   0.82820   0.83141
 Alpha virt. eigenvalues --    0.83187   0.83419   0.83599   0.84092   0.84391
 Alpha virt. eigenvalues --    0.84563   0.84804   0.85734   0.86138   0.86340
 Alpha virt. eigenvalues --    0.86844   0.87240   0.87540   0.87638   0.88407
 Alpha virt. eigenvalues --    0.88548   0.89200   0.89704   0.90156   0.90349
 Alpha virt. eigenvalues --    0.90800   0.90898   0.91212   0.91558   0.91659
 Alpha virt. eigenvalues --    0.92158   0.92830   0.93058   0.93594   0.93749
 Alpha virt. eigenvalues --    0.94125   0.94864   0.95047   0.95543   0.95998
 Alpha virt. eigenvalues --    0.96611   0.97310   0.97913   0.98245   1.00250
 Alpha virt. eigenvalues --    1.00442   1.01096   1.02847   1.03036   1.04078
 Alpha virt. eigenvalues --    1.04414   1.04862   1.05492   1.05874   1.06401
 Alpha virt. eigenvalues --    1.07192   1.07323   1.08087   1.08555   1.09092
 Alpha virt. eigenvalues --    1.09596   1.10499   1.10889   1.11106   1.11504
 Alpha virt. eigenvalues --    1.11667   1.11977   1.12950   1.13471   1.13880
 Alpha virt. eigenvalues --    1.14558   1.15369   1.15966   1.16590   1.16721
 Alpha virt. eigenvalues --    1.17057   1.17636   1.18492   1.19379   1.19882
 Alpha virt. eigenvalues --    1.20265   1.21564   1.21657   1.23614   1.23848
 Alpha virt. eigenvalues --    1.24430   1.24835   1.25474   1.26024   1.26408
 Alpha virt. eigenvalues --    1.26769   1.27040   1.27259   1.28143   1.28163
 Alpha virt. eigenvalues --    1.29729   1.30090   1.30401   1.31145   1.31560
 Alpha virt. eigenvalues --    1.32787   1.33669   1.33931   1.34771   1.35258
 Alpha virt. eigenvalues --    1.36088   1.36978   1.37388   1.38052   1.38664
 Alpha virt. eigenvalues --    1.39266   1.40333   1.41282   1.41825   1.42482
 Alpha virt. eigenvalues --    1.42743   1.43589   1.44384   1.45222   1.45890
 Alpha virt. eigenvalues --    1.46649   1.46936   1.48139   1.48532   1.49182
 Alpha virt. eigenvalues --    1.50065   1.51425   1.51896   1.52544   1.53960
 Alpha virt. eigenvalues --    1.54364   1.54885   1.57058   1.57727   1.58458
 Alpha virt. eigenvalues --    1.59932   1.60055   1.61053   1.61525   1.64213
 Alpha virt. eigenvalues --    1.65798   1.66647   1.67502   1.68595   1.69112
 Alpha virt. eigenvalues --    1.69543   1.69867   1.70499   1.70948   1.71657
 Alpha virt. eigenvalues --    1.71913   1.72310   1.73338   1.73392   1.74011
 Alpha virt. eigenvalues --    1.74422   1.75277   1.75458   1.75892   1.76354
 Alpha virt. eigenvalues --    1.76721   1.77154   1.78018   1.78604   1.79306
 Alpha virt. eigenvalues --    1.80519   1.81001   1.81143   1.81821   1.82064
 Alpha virt. eigenvalues --    1.82132   1.83343   1.83657   1.83970   1.84287
 Alpha virt. eigenvalues --    1.84624   1.84893   1.85519   1.85856   1.87603
 Alpha virt. eigenvalues --    1.87807   1.89601   1.90196   1.90460   1.90812
 Alpha virt. eigenvalues --    1.91132   1.91483   1.91934   1.92878   1.92883
 Alpha virt. eigenvalues --    1.93269   1.93948   1.94568   1.95396   1.95764
 Alpha virt. eigenvalues --    1.97082   1.97454   1.97779   1.98632   1.99403
 Alpha virt. eigenvalues --    2.00969   2.01926   2.02417   2.02643   2.03882
 Alpha virt. eigenvalues --    2.04684   2.05342   2.05715   2.06564   2.07036
 Alpha virt. eigenvalues --    2.07485   2.08105   2.09042   2.09594   2.10860
 Alpha virt. eigenvalues --    2.10990   2.12277   2.12873   2.13197   2.13768
 Alpha virt. eigenvalues --    2.13933   2.14393   2.15174   2.15894   2.16503
 Alpha virt. eigenvalues --    2.16731   2.17206   2.17677   2.18326   2.18548
 Alpha virt. eigenvalues --    2.19281   2.19763   2.20545   2.20974   2.21291
 Alpha virt. eigenvalues --    2.21482   2.22366   2.23055   2.23149   2.23682
 Alpha virt. eigenvalues --    2.24286   2.25207   2.25555   2.26069   2.26529
 Alpha virt. eigenvalues --    2.27227   2.27754   2.28140   2.28469   2.29208
 Alpha virt. eigenvalues --    2.29989   2.30475   2.31587   2.32089   2.32402
 Alpha virt. eigenvalues --    2.33317   2.33848   2.34145   2.34327   2.34552
 Alpha virt. eigenvalues --    2.35329   2.36528   2.37573   2.38106   2.39819
 Alpha virt. eigenvalues --    2.41642   2.41907   2.42524   2.42656   2.42774
 Alpha virt. eigenvalues --    2.43699   2.44515   2.44953   2.45645   2.46221
 Alpha virt. eigenvalues --    2.46479   2.46923   2.48835   2.50158   2.50270
 Alpha virt. eigenvalues --    2.52051   2.52415   2.53848   2.55446   2.55815
 Alpha virt. eigenvalues --    2.56663   2.57639   2.58347   2.59311   2.60097
 Alpha virt. eigenvalues --    2.60682   2.62222   2.62383   2.65699   2.67448
 Alpha virt. eigenvalues --    2.68161   2.69192   2.69369   2.70695   2.71254
 Alpha virt. eigenvalues --    2.73771   2.76219   2.77151   2.77447   2.79123
 Alpha virt. eigenvalues --    2.80155   2.81278   2.81685   2.84166   2.84681
 Alpha virt. eigenvalues --    2.85879   2.86252   2.87941   2.88302   2.89164
 Alpha virt. eigenvalues --    2.90268   2.94366   2.94878   2.97298   3.01891
 Alpha virt. eigenvalues --    3.02425   3.05232   3.10094   3.12371   3.12963
 Alpha virt. eigenvalues --    3.19372   3.19663   3.27031   3.28277   3.28409
 Alpha virt. eigenvalues --    3.34655   3.35247   3.37422   3.38176   3.39782
 Alpha virt. eigenvalues --    3.57185   3.62425   3.90617   3.95659
  Beta  occ. eigenvalues -- -256.44080 -30.25506 -26.10245 -26.09934 -26.09899
  Beta  occ. eigenvalues --  -19.35203 -19.29870 -14.47209 -14.47153 -14.46864
  Beta  occ. eigenvalues --  -14.46802 -10.36485 -10.34343 -10.34186 -10.34166
  Beta  occ. eigenvalues --  -10.34126 -10.34116 -10.33960 -10.33942 -10.33802
  Beta  occ. eigenvalues --  -10.31188 -10.31106 -10.31098 -10.31026 -10.31010
  Beta  occ. eigenvalues --  -10.30908 -10.30878 -10.30875 -10.30780 -10.30763
  Beta  occ. eigenvalues --  -10.30714 -10.30677 -10.30185 -10.30010 -10.29864
  Beta  occ. eigenvalues --  -10.29819 -10.29635 -10.29502 -10.29376 -10.28930
  Beta  occ. eigenvalues --  -10.28879 -10.28867 -10.28746 -10.28531 -10.28519
  Beta  occ. eigenvalues --  -10.28484 -10.28468 -10.27369  -3.57782  -2.33217
  Beta  occ. eigenvalues --   -2.32593  -2.32550  -1.20860  -1.16363  -1.09507
  Beta  occ. eigenvalues --   -1.08501  -1.08449  -1.07456  -0.96898  -0.94111
  Beta  occ. eigenvalues --   -0.92694  -0.92413  -0.91979  -0.91584  -0.91260
  Beta  occ. eigenvalues --   -0.91230  -0.87729  -0.87225  -0.85951  -0.85913
  Beta  occ. eigenvalues --   -0.85773  -0.84832  -0.83525  -0.81712  -0.80681
  Beta  occ. eigenvalues --   -0.79133  -0.79025  -0.78893  -0.78613  -0.75678
  Beta  occ. eigenvalues --   -0.75649  -0.73369  -0.72248  -0.71088  -0.70492
  Beta  occ. eigenvalues --   -0.70173  -0.69266  -0.68701  -0.65994  -0.65688
  Beta  occ. eigenvalues --   -0.64938  -0.64071  -0.63911  -0.62341  -0.62328
  Beta  occ. eigenvalues --   -0.61909  -0.60065  -0.59667  -0.58825  -0.58655
  Beta  occ. eigenvalues --   -0.57259  -0.56746  -0.56302  -0.55251  -0.55047
  Beta  occ. eigenvalues --   -0.54676  -0.54556  -0.54324  -0.54094  -0.53814
  Beta  occ. eigenvalues --   -0.53529  -0.53449  -0.53266  -0.52734  -0.52433
  Beta  occ. eigenvalues --   -0.52375  -0.52306  -0.51779  -0.51297  -0.51166
  Beta  occ. eigenvalues --   -0.50892  -0.50801  -0.50715  -0.50688  -0.50332
  Beta  occ. eigenvalues --   -0.50081  -0.49679  -0.49516  -0.49454  -0.49041
  Beta  occ. eigenvalues --   -0.48680  -0.48583  -0.48154  -0.47812  -0.47552
  Beta  occ. eigenvalues --   -0.47245  -0.47076  -0.46582  -0.46168  -0.45424
  Beta  occ. eigenvalues --   -0.45171  -0.45060  -0.44470  -0.44056  -0.43920
  Beta  occ. eigenvalues --   -0.43718  -0.43191  -0.42967  -0.42340  -0.41823
  Beta  occ. eigenvalues --   -0.40073  -0.39622  -0.38205  -0.37874  -0.34965
  Beta  occ. eigenvalues --   -0.34757  -0.34658  -0.33082  -0.32489  -0.32171
  Beta  occ. eigenvalues --   -0.30003  -0.29079
  Beta virt. eigenvalues --   -0.22484  -0.22358  -0.21217  -0.18475  -0.17215
  Beta virt. eigenvalues --   -0.17068  -0.13371  -0.12012  -0.09259  -0.08265
  Beta virt. eigenvalues --   -0.07781  -0.07190  -0.04746  -0.03956  -0.02322
  Beta virt. eigenvalues --   -0.01820  -0.01428  -0.00569   0.00352   0.01062
  Beta virt. eigenvalues --    0.01550   0.02020   0.02302   0.02956   0.03257
  Beta virt. eigenvalues --    0.03794   0.03935   0.04455   0.04590   0.05103
  Beta virt. eigenvalues --    0.05611   0.05869   0.05954   0.06414   0.06740
  Beta virt. eigenvalues --    0.06918   0.07175   0.07451   0.07857   0.07930
  Beta virt. eigenvalues --    0.08312   0.08617   0.08766   0.08957   0.09182
  Beta virt. eigenvalues --    0.09626   0.09783   0.10042   0.10718   0.10909
  Beta virt. eigenvalues --    0.11415   0.11474   0.11888   0.11934   0.12076
  Beta virt. eigenvalues --    0.12767   0.12838   0.13375   0.13708   0.14134
  Beta virt. eigenvalues --    0.14372   0.14594   0.15111   0.15322   0.15608
  Beta virt. eigenvalues --    0.16010   0.16305   0.16406   0.16841   0.17384
  Beta virt. eigenvalues --    0.17586   0.17883   0.19297   0.19902   0.20194
  Beta virt. eigenvalues --    0.21224   0.21649   0.21994   0.22332   0.22963
  Beta virt. eigenvalues --    0.23453   0.24417   0.24976   0.25242   0.25452
  Beta virt. eigenvalues --    0.25656   0.26253   0.26501   0.27049   0.28206
  Beta virt. eigenvalues --    0.28745   0.29639   0.30091   0.32045   0.32696
  Beta virt. eigenvalues --    0.33549   0.34015   0.34649   0.36054   0.36503
  Beta virt. eigenvalues --    0.36919   0.37135   0.37990   0.38447   0.38959
  Beta virt. eigenvalues --    0.39090   0.39818   0.40024   0.40936   0.41313
  Beta virt. eigenvalues --    0.41497   0.42098   0.42334   0.43160   0.43202
  Beta virt. eigenvalues --    0.43645   0.44286   0.44382   0.44571   0.44728
  Beta virt. eigenvalues --    0.45400   0.45760   0.45895   0.46790   0.47086
  Beta virt. eigenvalues --    0.47675   0.47879   0.48067   0.48362   0.49152
  Beta virt. eigenvalues --    0.49631   0.50136   0.50448   0.50825   0.51358
  Beta virt. eigenvalues --    0.51705   0.51983   0.52398   0.52777   0.53331
  Beta virt. eigenvalues --    0.53634   0.53783   0.54147   0.54683   0.54856
  Beta virt. eigenvalues --    0.55278   0.55435   0.55691   0.56073   0.56380
  Beta virt. eigenvalues --    0.56640   0.57019   0.57437   0.57796   0.57988
  Beta virt. eigenvalues --    0.58427   0.58906   0.59583   0.59956   0.60673
  Beta virt. eigenvalues --    0.61399   0.61867   0.62542   0.62764   0.63148
  Beta virt. eigenvalues --    0.63694   0.63974   0.64880   0.64979   0.65551
  Beta virt. eigenvalues --    0.65658   0.65958   0.66375   0.66565   0.67322
  Beta virt. eigenvalues --    0.67516   0.67957   0.68016   0.68092   0.68748
  Beta virt. eigenvalues --    0.69292   0.69526   0.69791   0.70271   0.70793
  Beta virt. eigenvalues --    0.70913   0.71385   0.71902   0.72673   0.73404
  Beta virt. eigenvalues --    0.73658   0.74368   0.74943   0.75483   0.76634
  Beta virt. eigenvalues --    0.76872   0.77208   0.77443   0.77856   0.78021
  Beta virt. eigenvalues --    0.78418   0.78692   0.78901   0.79395   0.79685
  Beta virt. eigenvalues --    0.80268   0.80427   0.80904   0.81454   0.82015
  Beta virt. eigenvalues --    0.82104   0.82477   0.82804   0.82998   0.83188
  Beta virt. eigenvalues --    0.83598   0.83723   0.84148   0.84330   0.84550
  Beta virt. eigenvalues --    0.84656   0.85273   0.86030   0.86332   0.86558
  Beta virt. eigenvalues --    0.87064   0.87441   0.87721   0.88193   0.88511
  Beta virt. eigenvalues --    0.88942   0.89412   0.89804   0.90438   0.90596
  Beta virt. eigenvalues --    0.91017   0.91122   0.91501   0.91633   0.91941
  Beta virt. eigenvalues --    0.92357   0.92928   0.93278   0.93757   0.94090
  Beta virt. eigenvalues --    0.94452   0.95151   0.95166   0.95847   0.96138
  Beta virt. eigenvalues --    0.97185   0.97835   0.98487   0.98958   1.00413
  Beta virt. eigenvalues --    1.00948   1.01406   1.03336   1.03780   1.04551
  Beta virt. eigenvalues --    1.04701   1.05271   1.05640   1.06048   1.06607
  Beta virt. eigenvalues --    1.07322   1.07505   1.08610   1.08867   1.09621
  Beta virt. eigenvalues --    1.09737   1.10915   1.11135   1.11246   1.11744
  Beta virt. eigenvalues --    1.12116   1.12393   1.13271   1.13778   1.14511
  Beta virt. eigenvalues --    1.14740   1.15506   1.16217   1.16728   1.16917
  Beta virt. eigenvalues --    1.17419   1.17780   1.18663   1.19625   1.20105
  Beta virt. eigenvalues --    1.20434   1.21798   1.22173   1.23840   1.24260
  Beta virt. eigenvalues --    1.24612   1.24995   1.25590   1.26179   1.26537
  Beta virt. eigenvalues --    1.26940   1.27150   1.27426   1.28298   1.28397
  Beta virt. eigenvalues --    1.29895   1.30258   1.30558   1.31296   1.31753
  Beta virt. eigenvalues --    1.32991   1.33903   1.34239   1.35064   1.35489
  Beta virt. eigenvalues --    1.36276   1.37081   1.37473   1.38245   1.38890
  Beta virt. eigenvalues --    1.39423   1.40705   1.41718   1.42167   1.42864
  Beta virt. eigenvalues --    1.42996   1.43954   1.44734   1.45938   1.46162
  Beta virt. eigenvalues --    1.47087   1.47292   1.48550   1.49009   1.49456
  Beta virt. eigenvalues --    1.50537   1.51744   1.52170   1.52808   1.54294
  Beta virt. eigenvalues --    1.54472   1.55026   1.57285   1.57853   1.58633
  Beta virt. eigenvalues --    1.60076   1.60198   1.61249   1.61662   1.64408
  Beta virt. eigenvalues --    1.66260   1.67102   1.67814   1.68744   1.69248
  Beta virt. eigenvalues --    1.69821   1.70030   1.70617   1.71134   1.71967
  Beta virt. eigenvalues --    1.72149   1.72710   1.73503   1.73604   1.74205
  Beta virt. eigenvalues --    1.74714   1.75439   1.75858   1.76011   1.76499
  Beta virt. eigenvalues --    1.76951   1.77392   1.78167   1.78762   1.79502
  Beta virt. eigenvalues --    1.80980   1.81238   1.81867   1.82026   1.82389
  Beta virt. eigenvalues --    1.82689   1.83676   1.83903   1.84237   1.84577
  Beta virt. eigenvalues --    1.85069   1.85165   1.85928   1.86125   1.87882
  Beta virt. eigenvalues --    1.89090   1.89736   1.90469   1.90591   1.91156
  Beta virt. eigenvalues --    1.91254   1.91680   1.92180   1.93030   1.93116
  Beta virt. eigenvalues --    1.93551   1.94148   1.94849   1.95831   1.96275
  Beta virt. eigenvalues --    1.97302   1.97733   1.98393   1.99106   1.99973
  Beta virt. eigenvalues --    2.01109   2.02081   2.02686   2.02966   2.04193
  Beta virt. eigenvalues --    2.04899   2.05428   2.05961   2.07066   2.07217
  Beta virt. eigenvalues --    2.07856   2.08647   2.09935   2.10114   2.11147
  Beta virt. eigenvalues --    2.11576   2.12849   2.13438   2.13640   2.14363
  Beta virt. eigenvalues --    2.14616   2.14715   2.15822   2.16613   2.16861
  Beta virt. eigenvalues --    2.17512   2.17643   2.18320   2.18663   2.19294
  Beta virt. eigenvalues --    2.19816   2.20133   2.21055   2.21253   2.21488
  Beta virt. eigenvalues --    2.21760   2.22564   2.23202   2.23755   2.24195
  Beta virt. eigenvalues --    2.24721   2.25308   2.25821   2.26267   2.26645
  Beta virt. eigenvalues --    2.27689   2.27947   2.28493   2.28528   2.29329
  Beta virt. eigenvalues --    2.30130   2.30624   2.31804   2.32320   2.32571
  Beta virt. eigenvalues --    2.33571   2.34052   2.34442   2.34465   2.35090
  Beta virt. eigenvalues --    2.36392   2.36727   2.37917   2.38711   2.40368
  Beta virt. eigenvalues --    2.41952   2.42099   2.42747   2.43041   2.43388
  Beta virt. eigenvalues --    2.44001   2.45049   2.45300   2.45981   2.46499
  Beta virt. eigenvalues --    2.46902   2.47447   2.49269   2.50380   2.50462
  Beta virt. eigenvalues --    2.52174   2.52627   2.53968   2.55687   2.56021
  Beta virt. eigenvalues --    2.56822   2.57967   2.58599   2.59351   2.60317
  Beta virt. eigenvalues --    2.61042   2.62409   2.62579   2.65848   2.67688
  Beta virt. eigenvalues --    2.68227   2.69284   2.69777   2.70796   2.71340
  Beta virt. eigenvalues --    2.73823   2.76416   2.77318   2.77609   2.79413
  Beta virt. eigenvalues --    2.80304   2.81518   2.81753   2.84400   2.84912
  Beta virt. eigenvalues --    2.86067   2.86462   2.88171   2.88656   2.89286
  Beta virt. eigenvalues --    2.90449   2.94576   2.95127   2.97569   3.02106
  Beta virt. eigenvalues --    3.02664   3.05282   3.10230   3.12852   3.13239
  Beta virt. eigenvalues --    3.19446   3.19765   3.27199   3.28498   3.29546
  Beta virt. eigenvalues --    3.35062   3.35560   3.38344   3.50068   3.52295
  Beta virt. eigenvalues --    3.66755   3.74323   4.01197   4.06170
          Condensed to atoms (all electrons):
          Atomic-Atomic Spin Densities.
 Mulliken charges and spin densities:
               1          2
     1  Fe   1.168640   4.312455
     2  N   -0.730984   0.095560
     3  N   -0.732330   0.088335
     4  N   -0.762206   0.088772
     5  N   -0.745204   0.090309
     6  C    0.326510   0.006958
     7  C    0.048870   0.023948
     8  C    0.059479   0.020903
     9  C    0.324123   0.009556
    10  C    0.310354   0.009211
    11  C    0.048203   0.018430
    12  C    0.009280   0.028057
    13  C    0.330445   0.000563
    14  C    0.304741   0.002799
    15  C    0.047843   0.020503
    16  C    0.017846   0.025107
    17  C    0.307204  -0.002465
    18  C    0.292974  -0.003263
    19  C    0.046536   0.027516
    20  C    0.039664   0.015479
    21  C    0.314641   0.008527
    22  C   -0.300114  -0.005048
    23  H    0.190995   0.000462
    24  C   -0.285337  -0.004181
    25  H    0.190006   0.000400
    26  C   -0.289229  -0.000753
    27  H    0.193614   0.000266
    28  C   -0.293712   0.005871
    29  H    0.195358  -0.000014
    30  C   -0.613619  -0.000884
    31  H    0.202880   0.000430
    32  H    0.208151   0.000991
    33  H    0.201245   0.000954
    34  C   -0.614107  -0.001137
    35  H    0.200302   0.001193
    36  H    0.206538   0.000960
    37  H    0.204692   0.000444
    38  C   -0.614536  -0.000819
    39  H    0.204571   0.001074
    40  H    0.199416   0.000628
    41  H    0.214918   0.000590
    42  C   -0.154563  -0.009183
    43  H    0.183755   0.000794
    44  C   -0.386149   0.017119
    45  H    0.190007  -0.000835
    46  H    0.197292  -0.000676
    47  C   -0.616842  -0.000883
    48  H    0.212198   0.001120
    49  H    0.198919   0.000623
    50  H    0.214595   0.000620
    51  C   -0.152320  -0.008259
    52  H    0.181617   0.000687
    53  C   -0.388097   0.016010
    54  H    0.191744  -0.000789
    55  H    0.197110  -0.000657
    56  C   -0.612912  -0.001348
    57  H    0.204877   0.001203
    58  H    0.210113   0.001197
    59  H    0.206323   0.000449
    60  C   -0.611096  -0.000460
    61  H    0.206563   0.000418
    62  H    0.209459   0.000742
    63  H    0.200894   0.000745
    64  O   -0.811562   0.036505
    65  H    0.475655   0.001080
    66  H    0.464647   0.002219
    67  C   -0.599963  -0.000522
    68  H    0.212778   0.000407
    69  H    0.191251   0.000190
    70  H    0.189211   0.000021
    71  C    0.137758   0.007258
    72  C   -0.211653  -0.004202
    73  H    0.175524   0.000161
    74  C   -0.189104   0.008677
    75  H    0.196068  -0.000445
    76  C    0.343715  -0.006201
    77  O   -0.685180   0.044562
    78  H    0.467220   0.000199
    79  C   -0.200211  -0.003410
    80  H    0.177837   0.000166
    81  C   -0.222397   0.006323
    82  H    0.176259  -0.000312
 Sum of Mulliken charges =   1.00000   5.00000
 Mulliken charges and spin densities with hydrogens summed into heavy atoms:
               1          2
     1  Fe   1.168640   4.312455
     2  N   -0.730984   0.095560
     3  N   -0.732330   0.088335
     4  N   -0.762206   0.088772
     5  N   -0.745204   0.090309
     6  C    0.326510   0.006958
     7  C    0.048870   0.023948
     8  C    0.059479   0.020903
     9  C    0.324123   0.009556
    10  C    0.310354   0.009211
    11  C    0.048203   0.018430
    12  C    0.009280   0.028057
    13  C    0.330445   0.000563
    14  C    0.304741   0.002799
    15  C    0.047843   0.020503
    16  C    0.017846   0.025107
    17  C    0.307204  -0.002465
    18  C    0.292974  -0.003263
    19  C    0.046536   0.027516
    20  C    0.039664   0.015479
    21  C    0.314641   0.008527
    22  C   -0.109118  -0.004586
    24  C   -0.095331  -0.003780
    26  C   -0.095615  -0.000487
    28  C   -0.098354   0.005857
    30  C   -0.001343   0.001492
    34  C   -0.002575   0.001460
    38  C    0.004369   0.001474
    42  C    0.029192  -0.008389
    44  C    0.001149   0.015608
    47  C    0.008871   0.001479
    51  C    0.029297  -0.007572
    53  C    0.000756   0.014563
    56  C    0.008401   0.001502
    60  C    0.005821   0.001445
    64  O    0.128740   0.039804
    67  C   -0.006723   0.000096
    71  C    0.137758   0.007258
    72  C   -0.036129  -0.004041
    74  C    0.006964   0.008233
    76  C    0.343715  -0.006201
    77  O   -0.217961   0.044761
    79  C   -0.022373  -0.003245
    81  C   -0.046139   0.006011
 Electronic spatial extent (au):  <R**2>=          21490.3432
 Charge=              1.0000 electrons
 Dipole moment (field-independent basis, Debye):
    X=             -0.1911    Y=             -1.2372    Z=             -1.3040  Tot=              1.8076
 Quadrupole moment (field-independent basis, Debye-Ang):
   XX=           -180.5048   YY=           -188.5748   ZZ=           -246.1071
   XY=              0.6247   XZ=              2.3638   YZ=              0.4797
 Traceless Quadrupole moment (field-independent basis, Debye-Ang):
   XX=             24.5574   YY=             16.4875   ZZ=            -41.0449
   XY=              0.6247   XZ=              2.3638   YZ=              0.4797
 Octapole moment (field-independent basis, Debye-Ang**2):
  XXX=             44.0348  YYY=              1.8138  ZZZ=            -71.2245  XYY=             33.3453
  XXY=             -2.9302  XXZ=             39.0937  XZZ=             -2.3698  YZZ=            -16.1431
  YYZ=              4.8640  XYZ=            -18.4704
 Hexadecapole moment (field-independent basis, Debye-Ang**3):
 XXXX=         -12338.8705 YYYY=          -9772.3240 ZZZZ=          -2611.3894 XXXY=            -44.1679
 XXXZ=            265.7435 YYYX=            100.5019 YYYZ=            128.1584 ZZZX=            -56.7144
 ZZZY=             31.8829 XXYY=          -3848.1192 XXZZ=          -2667.4757 YYZZ=          -2433.5824
 XXYZ=            -55.2453 YYXZ=             45.8810 ZZXY=             -8.0513
 N-N= 6.426789132104D+03 E-N=-2.001439348019D+04  KE= 3.053586058945D+03
                          Isotropic Fermi Contact Couplings
        Atom                 a.u.       MegaHertz       Gauss      10(-4) cm-1
     1  Fe(57)             0.68381      19.83581       7.07791       6.61652
     2  N(14)              0.13155       8.50089       3.03333       2.83559
     3  N(14)              0.12560       8.11614       2.89604       2.70725
     4  N(14)              0.12435       8.03534       2.86721       2.68030
     5  N(14)              0.12523       8.09274       2.88769       2.69945
     6  C(13)              0.00557       1.25298       0.44709       0.41795
     7  C(13)              0.00644       1.44815       0.51674       0.48305
     8  C(13)              0.00595       1.33761       0.47729       0.44618
     9  C(13)              0.00606       1.36238       0.48613       0.45444
    10  C(13)              0.00596       1.34076       0.47842       0.44723
    11  C(13)              0.00542       1.21828       0.43471       0.40637
    12  C(13)              0.00696       1.56589       0.55875       0.52233
    13  C(13)              0.00439       0.98664       0.35206       0.32911
    14  C(13)              0.00508       1.14326       0.40794       0.38135
    15  C(13)              0.00592       1.33058       0.47478       0.44383
    16  C(13)              0.00653       1.46861       0.52404       0.48988
    17  C(13)              0.00384       0.86425       0.30839       0.28828
    18  C(13)              0.00419       0.94136       0.33590       0.31400
    19  C(13)              0.00700       1.57364       0.56151       0.52491
    20  C(13)              0.00517       1.16138       0.41441       0.38740
    21  C(13)              0.00603       1.35501       0.48350       0.45198
    22  C(13)             -0.00128      -0.28689      -0.10237      -0.09570
    23  H(1)               0.00015       0.13643       0.04868       0.04551
    24  C(13)             -0.00100      -0.22427      -0.08002      -0.07481
    25  H(1)               0.00012       0.10922       0.03897       0.03643
    26  C(13)             -0.00062      -0.13992      -0.04993      -0.04667
    27  H(1)               0.00010       0.08542       0.03048       0.02849
    28  C(13)              0.00045       0.10045       0.03584       0.03351
    29  H(1)              -0.00001      -0.00877      -0.00313      -0.00293
    30  C(13)             -0.00023      -0.05087      -0.01815      -0.01697
    31  H(1)               0.00017       0.15035       0.05365       0.05015
    32  H(1)               0.00052       0.46328       0.16531       0.15454
    33  H(1)               0.00052       0.46091       0.16446       0.15374
    34  C(13)             -0.00030      -0.06768      -0.02415      -0.02258
    35  H(1)               0.00062       0.55350       0.19750       0.18463
    36  H(1)               0.00050       0.44513       0.15883       0.14848
    37  H(1)               0.00018       0.15835       0.05650       0.05282
    38  C(13)             -0.00011      -0.02563      -0.00914      -0.00855
    39  H(1)               0.00057       0.50579       0.18048       0.16871
    40  H(1)               0.00029       0.25906       0.09244       0.08641
    41  H(1)               0.00021       0.18402       0.06566       0.06138
    42  C(13)             -0.00150      -0.33748      -0.12042      -0.11257
    43  H(1)               0.00031       0.27302       0.09742       0.09107
    44  C(13)              0.00266       0.59732       0.21314       0.19924
    45  H(1)              -0.00025      -0.22616      -0.08070      -0.07544
    46  H(1)              -0.00020      -0.17733      -0.06328      -0.05915
    47  C(13)             -0.00016      -0.03603      -0.01286      -0.01202
    48  H(1)               0.00060       0.53282       0.19012       0.17773
    49  H(1)               0.00029       0.25497       0.09098       0.08505
    50  H(1)               0.00022       0.19787       0.07060       0.06600
    51  C(13)             -0.00124      -0.27931      -0.09966      -0.09317
    52  H(1)               0.00026       0.23056       0.08227       0.07691
    53  C(13)              0.00244       0.54939       0.19604       0.18326
    54  H(1)              -0.00024      -0.21494      -0.07670      -0.07170
    55  H(1)              -0.00019      -0.17295      -0.06171      -0.05769
    56  C(13)             -0.00033      -0.07470      -0.02666      -0.02492
    57  H(1)               0.00061       0.54806       0.19556       0.18281
    58  H(1)               0.00059       0.52780       0.18833       0.17605
    59  H(1)               0.00018       0.15883       0.05667       0.05298
    60  C(13)             -0.00000      -0.00013      -0.00005      -0.00004
    61  H(1)               0.00016       0.14660       0.05231       0.04890
    62  H(1)               0.00037       0.32913       0.11744       0.10979
    63  H(1)               0.00038       0.33657       0.12010       0.11227
    64  O(17)              0.09708     -11.76973      -4.19973      -3.92596
    65  H(1)              -0.00012      -0.10662      -0.03804      -0.03556
    66  H(1)               0.00100       0.89190       0.31825       0.29751
    67  C(13)             -0.00020      -0.04513      -0.01610      -0.01505
    68  H(1)               0.00021       0.18909       0.06747       0.06307
    69  H(1)               0.00012       0.10340       0.03689       0.03449
    70  H(1)               0.00001       0.01000       0.00357       0.00334
    71  C(13)              0.00102       0.22868       0.08160       0.07628
    72  C(13)             -0.00067      -0.14982      -0.05346      -0.04997
    73  H(1)               0.00005       0.04376       0.01562       0.01460
    74  C(13)              0.00110       0.24828       0.08859       0.08282
    75  H(1)              -0.00012      -0.11173      -0.03987      -0.03727
    76  C(13)             -0.00183      -0.41052      -0.14648      -0.13693
    77  O(17)              0.06659      -8.07280      -2.88058      -2.69280
    78  H(1)              -0.00049      -0.43454      -0.15506      -0.14495
    79  C(13)             -0.00049      -0.11075      -0.03952      -0.03694
    80  H(1)               0.00006       0.05121       0.01827       0.01708
    81  C(13)              0.00103       0.23267       0.08302       0.07761
    82  H(1)              -0.00010      -0.08590      -0.03065      -0.02865
 --------------------------------------------------------
       Center         ----  Spin Dipole Couplings  ----
                      3XX-RR        3YY-RR        3ZZ-RR
 --------------------------------------------------------
     1   Atom        0.080141      0.086237     -0.166377
     2   Atom        0.254652     -0.186090     -0.068562
     3   Atom       -0.179205      0.256407     -0.077201
     4   Atom        0.252907     -0.175320     -0.077587
     5   Atom       -0.172745      0.269050     -0.096305
     6   Atom        0.034068     -0.012657     -0.021411
     7   Atom        0.011054     -0.021278      0.010223
     8   Atom        0.012450     -0.019507      0.007057
     9   Atom        0.033271     -0.013126     -0.020145
    10   Atom       -0.014337      0.036717     -0.022379
    11   Atom       -0.018703      0.013820      0.004883
    12   Atom       -0.022891      0.009849      0.013042
    13   Atom       -0.008615      0.038632     -0.030017
    14   Atom        0.038756     -0.009827     -0.028928
    15   Atom        0.013913     -0.018387      0.004474
    16   Atom        0.013345     -0.020506      0.007161
    17   Atom        0.039100     -0.008825     -0.030275
    18   Atom       -0.009979      0.043453     -0.033474
    19   Atom       -0.020303      0.010878      0.009425
    20   Atom       -0.015688      0.015716     -0.000027
    21   Atom       -0.011619      0.036507     -0.024888
    22   Atom        0.010489      0.012032     -0.022521
    23   Atom        0.003769      0.004044     -0.007813
    24   Atom        0.010984      0.012260     -0.023244
    25   Atom        0.003978      0.004456     -0.008434
    26   Atom        0.011012      0.010203     -0.021214
    27   Atom        0.004277      0.004092     -0.008368
    28   Atom        0.005974      0.008153     -0.014127
    29   Atom        0.003143      0.004315     -0.007457
    30   Atom        0.007380     -0.003259     -0.004120
    31   Atom        0.005698     -0.002613     -0.003086
    32   Atom        0.004512     -0.001417     -0.003096
    33   Atom        0.005665     -0.001799     -0.003866
    34   Atom        0.007263     -0.003296     -0.003968
    35   Atom        0.005592     -0.001679     -0.003913
    36   Atom        0.004366     -0.001628     -0.002737
    37   Atom        0.005611     -0.002645     -0.002965
    38   Atom       -0.003214      0.007704     -0.004489
    39   Atom       -0.002016      0.005287     -0.003270
    40   Atom       -0.001399      0.005237     -0.003838
    41   Atom       -0.002536      0.005768     -0.003232
    42   Atom       -0.001654      0.009774     -0.008121
    43   Atom       -0.001284      0.005334     -0.004051
    44   Atom       -0.006184      0.002309      0.003876
    45   Atom       -0.001717      0.003817     -0.002100
    46   Atom       -0.001124      0.003244     -0.002119
    47   Atom        0.007366     -0.003118     -0.004248
    48   Atom        0.004348     -0.001734     -0.002615
    49   Atom        0.005471     -0.001501     -0.003970
    50   Atom        0.005648     -0.002561     -0.003087
    51   Atom        0.007185     -0.001173     -0.006012
    52   Atom        0.005005     -0.001392     -0.003614
    53   Atom        0.005235     -0.008134      0.002899
    54   Atom        0.003010     -0.001662     -0.001348
    55   Atom        0.002797     -0.001363     -0.001435
    56   Atom       -0.003481      0.007680     -0.004198
    57   Atom       -0.002388      0.005133     -0.002745
    58   Atom       -0.001358      0.005312     -0.003954
    59   Atom       -0.002723      0.005851     -0.003128
    60   Atom       -0.003116      0.007662     -0.004546
    61   Atom       -0.002560      0.005733     -0.003173
    62   Atom       -0.002187      0.005230     -0.003043
    63   Atom       -0.001160      0.005101     -0.003942
    64   Atom       -0.103555     -0.115359      0.218915
    65   Atom        0.003900     -0.039197      0.035297
    66   Atom       -0.023873     -0.032375      0.056248
    67   Atom        0.003038     -0.002531     -0.000507
    68   Atom        0.001877     -0.001821     -0.000056
    69   Atom        0.003595     -0.002282     -0.001312
    70   Atom        0.002667     -0.001756     -0.000911
    71   Atom        0.001638     -0.008263      0.006625
    72   Atom        0.005856     -0.003305     -0.002551
    73   Atom        0.002409     -0.001800     -0.000609
    74   Atom       -0.001686     -0.012794      0.014480
    75   Atom       -0.006637      0.000186      0.006450
    76   Atom        0.005886     -0.023937      0.018051
    77   Atom       -0.158003     -0.164701      0.322704
    78   Atom       -0.044350     -0.006744      0.051095
    79   Atom        0.006714     -0.004335     -0.002379
    80   Atom        0.003564     -0.002714     -0.000851
    81   Atom        0.002998     -0.012120      0.009121
    82   Atom       -0.001079     -0.001210      0.002289
 --------------------------------------------------------
                        XY            XZ            YZ
 --------------------------------------------------------
     1   Atom       -0.028478      0.048146     -0.000039
     2   Atom       -0.001483      0.059619     -0.012338
     3   Atom        0.004060     -0.001836      0.009022
     4   Atom       -0.003942      0.056600      0.018785
     5   Atom        0.006526     -0.026768     -0.016008
     6   Atom        0.033488      0.015402      0.007516
     7   Atom        0.002517      0.003167     -0.001441
     8   Atom       -0.002610      0.004582     -0.002935
     9   Atom       -0.034697      0.011983     -0.006756
    10   Atom       -0.032866     -0.000129     -0.005735
    11   Atom       -0.002212     -0.002032     -0.002114
    12   Atom        0.002970     -0.001056     -0.002092
    13   Atom        0.034631      0.003824      0.001767
    14   Atom        0.033858      0.006196      0.004004
    15   Atom        0.001113     -0.000597      0.005701
    16   Atom       -0.003868     -0.002371      0.004329
    17   Atom       -0.033104      0.016085     -0.010160
    18   Atom       -0.033767      0.008221     -0.009634
    19   Atom       -0.003130     -0.008664      0.002000
    20   Atom        0.002324     -0.004853      0.001631
    21   Atom        0.034441      0.001137      0.008422
    22   Atom        0.022556      0.009682      0.007202
    23   Atom        0.010849      0.003009      0.002732
    24   Atom       -0.023222      0.003777     -0.002919
    25   Atom       -0.011214      0.001424     -0.001200
    26   Atom        0.023821      0.001669     -0.002049
    27   Atom        0.011281      0.000703      0.000392
    28   Atom       -0.023764      0.006520     -0.005747
    29   Atom       -0.011362      0.003650     -0.003658
    30   Atom       -0.004705      0.001434     -0.000554
    31   Atom       -0.001713      0.001037     -0.000183
    32   Atom       -0.004015      0.002456     -0.001425
    33   Atom       -0.004317     -0.000693      0.000602
    34   Atom        0.004598      0.002173      0.000719
    35   Atom        0.004319     -0.000079     -0.000314
    36   Atom        0.003845      0.003009      0.001688
    37   Atom        0.001633      0.001480      0.000290
    38   Atom       -0.004415      0.000096     -0.000116
    39   Atom       -0.003537     -0.000895      0.001723
    40   Atom       -0.004370      0.000908     -0.001431
    41   Atom       -0.001555      0.000199     -0.000507
    42   Atom        0.006472     -0.003293      0.004344
    43   Atom        0.004603     -0.000326     -0.000447
    44   Atom       -0.002868      0.008043     -0.007795
    45   Atom        0.000150     -0.000394      0.001558
    46   Atom        0.002360      0.000545      0.000272
    47   Atom        0.004498      0.001733      0.000673
    48   Atom        0.003543      0.002826      0.001468
    49   Atom        0.004391     -0.000109     -0.000309
    50   Atom        0.001606      0.001057      0.000054
    51   Atom       -0.005704      0.008116      0.000842
    52   Atom       -0.004447      0.002147     -0.000994
    53   Atom        0.002456     -0.007485     -0.005268
    54   Atom        0.000056      0.002633      0.000325
    55   Atom       -0.002024      0.001629     -0.001055
    56   Atom       -0.004417      0.000452     -0.001551
    57   Atom       -0.003485      0.001510     -0.003032
    58   Atom       -0.004301     -0.000227      0.000184
    59   Atom       -0.001487      0.000196     -0.000836
    60   Atom        0.004625      0.000236      0.000949
    61   Atom        0.001758      0.000095      0.000081
    62   Atom        0.003569      0.001201      0.002351
    63   Atom        0.004512     -0.000512     -0.000759
    64   Atom       -0.002837     -0.114467     -0.000168
    65   Atom        0.002585     -0.045909     -0.001603
    66   Atom        0.002089      0.006695      0.007326
    67   Atom       -0.000548     -0.003021      0.000314
    68   Atom       -0.000154     -0.002494      0.000080
    69   Atom        0.000110     -0.002253     -0.000009
    70   Atom       -0.001304     -0.002350      0.000637
    71   Atom       -0.000886     -0.005288      0.000087
    72   Atom       -0.004124     -0.008864      0.003632
    73   Atom       -0.003880     -0.004866      0.003054
    74   Atom       -0.009010     -0.014172      0.008837
    75   Atom       -0.009754     -0.012610      0.016207
    76   Atom       -0.000350     -0.037843      0.000090
    77   Atom        0.010533     -0.045208     -0.029774
    78   Atom       -0.001428     -0.006168     -0.046570
    79   Atom        0.002492     -0.008416     -0.001810
    80   Atom        0.002774     -0.004736     -0.001922
    81   Atom        0.007599     -0.013155     -0.006384
    82   Atom        0.009973     -0.012047     -0.011250
 --------------------------------------------------------


 ---------------------------------------------------------------------------------
              Anisotropic Spin Dipole Couplings in Principal Axis System
 ---------------------------------------------------------------------------------

       Atom             a.u.   MegaHertz   Gauss  10(-4) cm-1        Axes

              Baa    -0.1756    -3.039    -1.085    -1.014 -0.1872 -0.0202  0.9821
     1 Fe(57) Bbb     0.0598     1.034     0.369     0.345  0.6739  0.7248  0.1434
              Bcc     0.1158     2.005     0.715     0.669  0.7147 -0.6887  0.1220
 
              Baa    -0.1874    -7.229    -2.579    -2.411 -0.0113  0.9940  0.1089
     2 N(14)  Bbb    -0.0779    -3.005    -1.072    -1.002 -0.1759 -0.1092  0.9783
              Bcc     0.2653    10.233     3.651     3.413  0.9843 -0.0080  0.1761
 
              Baa    -0.1793    -6.914    -2.467    -2.306  0.9998 -0.0097  0.0188
     3 N(14)  Bbb    -0.0774    -2.985    -1.065    -0.996 -0.0191 -0.0268  0.9995
              Bcc     0.2567     9.900     3.533     3.302  0.0092  0.9996  0.0270
 
              Baa    -0.1793    -6.915    -2.468    -2.307  0.0352  0.9791 -0.2004
     4 N(14)  Bbb    -0.0830    -3.202    -1.143    -1.068 -0.1603  0.2034  0.9659
              Bcc     0.2623    10.118     3.610     3.375  0.9864 -0.0018  0.1641
 
              Baa    -0.1812    -6.988    -2.494    -2.331  0.9539 -0.0032  0.3002
     5 N(14)  Bbb    -0.0887    -3.421    -1.221    -1.141 -0.2997  0.0481  0.9528
              Bcc     0.2699    10.409     3.714     3.472  0.0174  0.9988 -0.0449
 
              Baa    -0.0302    -4.048    -1.445    -1.350 -0.4771  0.8744  0.0887
     6 C(13)  Bbb    -0.0252    -3.381    -1.206    -1.128 -0.1505 -0.1807  0.9720
              Bcc     0.0554     7.429     2.651     2.478  0.8659  0.4504  0.2178
 
              Baa    -0.0216    -2.893    -1.032    -0.965 -0.0820  0.9952  0.0533
     7 C(13)  Bbb     0.0077     1.034     0.369     0.345 -0.6457 -0.0938  0.7578
              Bcc     0.0139     1.860     0.664     0.620  0.7592  0.0277  0.6503
 
              Baa    -0.0200    -2.679    -0.956    -0.894  0.0663  0.9931  0.0966
     8 C(13)  Bbb     0.0045     0.604     0.215     0.201 -0.5108 -0.0494  0.8583
              Bcc     0.0155     2.076     0.741     0.692  0.8571 -0.1063  0.5040
 
              Baa    -0.0317    -4.251    -1.517    -1.418  0.4661  0.8841  0.0336
     9 C(13)  Bbb    -0.0227    -3.043    -1.086    -1.015 -0.1761  0.0555  0.9828
              Bcc     0.0543     7.293     2.602     2.433  0.8670 -0.4640  0.1815
 
              Baa    -0.0312    -4.192    -1.496    -1.398  0.8503  0.4361  0.2947
    10 C(13)  Bbb    -0.0219    -2.940    -1.049    -0.981 -0.2937 -0.0714  0.9532
              Bcc     0.0531     7.132     2.545     2.379 -0.4367  0.8971 -0.0674
 
              Baa    -0.0191    -2.556    -0.912    -0.853  0.9932  0.0727  0.0907
    11 C(13)  Bbb     0.0047     0.626     0.223     0.209 -0.1037  0.2000  0.9743
              Bcc     0.0144     1.930     0.689     0.644 -0.0527  0.9771 -0.2061
 
              Baa    -0.0232    -3.110    -1.110    -1.038  0.9958 -0.0880  0.0239
    12 C(13)  Bbb     0.0090     1.202     0.429     0.401  0.0666  0.8809  0.4687
              Bcc     0.0142     1.908     0.681     0.636 -0.0623 -0.4651  0.8831
 
              Baa    -0.0316    -4.234    -1.511    -1.412 -0.4419  0.1960  0.8754
    13 C(13)  Bbb    -0.0255    -3.423    -1.221    -1.142  0.7654 -0.4265  0.4819
              Bcc     0.0571     7.657     2.732     2.554  0.4678  0.8830  0.0385
 
              Baa    -0.0298    -3.994    -1.425    -1.332  0.0524 -0.2814  0.9582
    14 C(13)  Bbb    -0.0270    -3.623    -1.293    -1.208 -0.4606  0.8445  0.2732
              Bcc     0.0568     7.617     2.718     2.541  0.8861  0.4556  0.0854
 
              Baa    -0.0198    -2.653    -0.947    -0.885 -0.0362  0.9726 -0.2296
    15 C(13)  Bbb     0.0058     0.779     0.278     0.260  0.0398  0.2309  0.9722
              Bcc     0.0140     1.875     0.669     0.625  0.9986  0.0260 -0.0471
 
              Baa    -0.0215    -2.887    -1.030    -0.963  0.0998  0.9850 -0.1405
    16 C(13)  Bbb     0.0066     0.889     0.317     0.297  0.3784  0.0930  0.9210
              Bcc     0.0149     1.998     0.713     0.667  0.9203 -0.1450 -0.3635
 
              Baa    -0.0346    -4.640    -1.656    -1.548 -0.0934  0.2592  0.9613
[...]
    22 C(13)  Bbb    -0.0110    -1.482    -0.529    -0.494 -0.6879  0.7136 -0.1325
              Bcc     0.0362     4.864     1.736     1.622  0.6869  0.6990  0.1988
 
              Baa    -0.0085    -4.562    -1.628    -1.522 -0.2154 -0.0262  0.9762
    23 H(1)   Bbb    -0.0069    -3.689    -1.316    -1.231 -0.6876  0.7139 -0.1326
              Bcc     0.0155     8.251     2.944     2.752  0.6934  0.6998  0.1718
 
              Baa    -0.0237    -3.175    -1.133    -1.059 -0.0958  0.0190  0.9952
    24 C(13)  Bbb    -0.0116    -1.553    -0.554    -0.518  0.7117  0.7003  0.0552
              Bcc     0.0352     4.728     1.687     1.577 -0.6959  0.7136 -0.0806
 
              Baa    -0.0086    -4.587    -1.637    -1.530 -0.1326 -0.0228  0.9909
    25 H(1)   Bbb    -0.0070    -3.724    -1.329    -1.242  0.7038  0.7017  0.1103
              Bcc     0.0156     8.311     2.966     2.772 -0.6979  0.7121 -0.0770
 
              Baa    -0.0220    -2.953    -1.054    -0.985 -0.1981  0.2075  0.9580
    26 C(13)  Bbb    -0.0124    -1.668    -0.595    -0.556 -0.6727  0.6820 -0.2869
              Bcc     0.0344     4.621     1.649     1.541  0.7129  0.7012 -0.0044
 
              Baa    -0.0084    -4.497    -1.605    -1.500 -0.1357  0.0913  0.9865
    27 H(1)   Bbb    -0.0071    -3.768    -1.344    -1.257 -0.6912  0.7047 -0.1603
              Bcc     0.0155     8.265     2.949     2.757  0.7098  0.7036  0.0325
 
              Baa    -0.0171    -2.297    -0.820    -0.766  0.6962  0.5498 -0.4615
    28 C(13)  Bbb    -0.0153    -2.059    -0.735    -0.687  0.2267  0.4416  0.8681
              Bcc     0.0325     4.356     1.554     1.453 -0.6811  0.7090 -0.1828
 
              Baa    -0.0086    -4.589    -1.637    -1.531 -0.2398  0.0634  0.9688
    29 H(1)   Bbb    -0.0076    -4.072    -1.453    -1.358  0.6991  0.7037  0.1270
              Bcc     0.0162     8.661     3.090     2.889 -0.6737  0.7077 -0.2131
 
              Baa    -0.0050    -0.677    -0.241    -0.226  0.3529  0.9356  0.0134
    30 C(13)  Bbb    -0.0043    -0.576    -0.206    -0.192 -0.1109  0.0276  0.9934
              Bcc     0.0093     1.253     0.447     0.418  0.9291 -0.3520  0.1135
 
              Baa    -0.0032    -1.711    -0.611    -0.571 -0.1275 -0.0635  0.9898
    31 H(1)   Bbb    -0.0030    -1.574    -0.562    -0.525  0.1836  0.9792  0.0864
              Bcc     0.0062     3.285     1.172     1.096  0.9747 -0.1928  0.1132
 
              Baa    -0.0039    -2.092    -0.747    -0.698 -0.0787  0.3946  0.9155
    32 H(1)   Bbb    -0.0034    -1.809    -0.645    -0.603  0.5050  0.8076 -0.3047
              Bcc     0.0073     3.901     1.392     1.301  0.8595 -0.4383  0.2628
 
              Baa    -0.0041    -2.200    -0.785    -0.734 -0.1922 -0.5648  0.8025
    33 H(1)   Bbb    -0.0036    -1.911    -0.682    -0.638  0.3770  0.7126  0.5917
              Bcc     0.0077     4.112     1.467     1.372  0.9061 -0.4163 -0.0759
 
              Baa    -0.0050    -0.675    -0.241    -0.225 -0.3672  0.9213  0.1279
    34 C(13)  Bbb    -0.0043    -0.583    -0.208    -0.195 -0.1115 -0.1801  0.9773
              Bcc     0.0094     1.258     0.449     0.420  0.9234  0.3446  0.1689
 
              Baa    -0.0041    -2.176    -0.777    -0.726 -0.2152  0.4972  0.8405
    35 H(1)   Bbb    -0.0035    -1.882    -0.672    -0.628 -0.3637  0.7579 -0.5415
              Bcc     0.0076     4.058     1.448     1.354  0.9063  0.4222 -0.0177
 
              Baa    -0.0040    -2.123    -0.758    -0.708 -0.1062 -0.4596  0.8818
    36 H(1)   Bbb    -0.0034    -1.832    -0.654    -0.611 -0.5188  0.7821  0.3452
              Bcc     0.0074     3.955     1.411     1.319  0.8483  0.4208  0.3215
 
              Baa    -0.0032    -1.715    -0.612    -0.572 -0.1543 -0.0601  0.9862
    37 H(1)   Bbb    -0.0030    -1.577    -0.563    -0.526 -0.1921  0.9809  0.0298
              Bcc     0.0062     3.293     1.175     1.098  0.9692  0.1849  0.1629
 
              Baa    -0.0048    -0.642    -0.229    -0.214  0.9291  0.3268 -0.1733
    38 C(13)  Bbb    -0.0045    -0.601    -0.215    -0.201  0.1600  0.0674  0.9848
              Bcc     0.0093     1.244     0.444     0.415 -0.3335  0.9427 -0.0103
 
              Baa    -0.0037    -1.996    -0.712    -0.666  0.5434  0.0531  0.8378
    39 H(1)   Bbb    -0.0033    -1.781    -0.636    -0.594  0.7526  0.4114 -0.5142
              Bcc     0.0071     3.778     1.348     1.260 -0.3719  0.9099  0.1836
 
              Baa    -0.0041    -2.208    -0.788    -0.737 -0.3242 -0.0067  0.9460
    40 H(1)   Bbb    -0.0035    -1.875    -0.669    -0.625  0.8364  0.4651  0.2900
              Bcc     0.0077     4.083     1.457     1.362 -0.4419  0.8852 -0.1452
 
              Baa    -0.0033    -1.753    -0.626    -0.585 -0.2265  0.0156  0.9739
    41 H(1)   Bbb    -0.0028    -1.491    -0.532    -0.497  0.9575  0.1869  0.2197
              Bcc     0.0061     3.244     1.158     1.082 -0.1786  0.9822 -0.0573
 
              Baa    -0.0116    -1.562    -0.557    -0.521  0.4729 -0.3102  0.8247
    42 C(13)  Bbb    -0.0014    -0.187    -0.067    -0.062  0.7972 -0.2480 -0.5504
              Bcc     0.0130     1.749     0.624     0.583  0.3752  0.9178  0.1300
 
              Baa    -0.0041    -2.184    -0.779    -0.728  0.1886 -0.0456  0.9810
    43 H(1)   Bbb    -0.0036    -1.935    -0.691    -0.646  0.8697 -0.4561 -0.1884
              Bcc     0.0077     4.119     1.470     1.374  0.4561  0.8887 -0.0464
 
              Baa    -0.0108    -1.450    -0.518    -0.484  0.8386 -0.1309 -0.5288
    44 C(13)  Bbb    -0.0033    -0.440    -0.157    -0.147  0.3990  0.8085  0.4325
              Bcc     0.0141     1.890     0.674     0.630  0.3709 -0.5737  0.7303
 
              Baa    -0.0027    -1.424    -0.508    -0.475  0.4024 -0.2226  0.8880
    45 H(1)   Bbb    -0.0015    -0.818    -0.292    -0.273  0.9154  0.0886 -0.3926
              Bcc     0.0042     2.242     0.800     0.748  0.0087  0.9709  0.2394
 
              Baa    -0.0025    -1.357    -0.484    -0.453 -0.6684  0.2395  0.7042
    46 H(1)   Bbb    -0.0018    -0.942    -0.336    -0.314  0.6248 -0.3327  0.7063
              Bcc     0.0043     2.299     0.820     0.767  0.4035  0.9121  0.0727
 
              Baa    -0.0048    -0.642    -0.229    -0.214 -0.3325  0.9376 -0.1019
    47 C(13)  Bbb    -0.0045    -0.604    -0.216    -0.201 -0.1627  0.0494  0.9854
              Bcc     0.0093     1.246     0.445     0.416  0.9290  0.3443  0.1361
 
              Baa    -0.0037    -1.987    -0.709    -0.663 -0.1056 -0.4619  0.8807
    48 H(1)   Bbb    -0.0033    -1.762    -0.629    -0.588 -0.4977  0.7913  0.3553
              Bcc     0.0070     3.749     1.338     1.251  0.8609  0.4008  0.3134
 
              Baa    -0.0041    -2.181    -0.778    -0.728 -0.1762  0.4060  0.8967
    49 H(1)   Bbb    -0.0035    -1.871    -0.668    -0.624 -0.3984  0.8036 -0.4421
              Bcc     0.0076     4.053     1.446     1.352  0.9001  0.4351 -0.0201
 
              Baa    -0.0033    -1.738    -0.620    -0.580 -0.1674  0.3135  0.9347
    50 H(1)   Bbb    -0.0028    -1.501    -0.535    -0.501 -0.1349  0.9319 -0.3367
              Bcc     0.0061     3.239     1.156     1.080  0.9766  0.1824  0.1138
 
              Baa    -0.0110    -1.482    -0.529    -0.494 -0.4694 -0.3408  0.8146
    51 C(13)  Bbb    -0.0017    -0.229    -0.082    -0.076  0.1495  0.8785  0.4537
              Bcc     0.0127     1.711     0.610     0.571  0.8702 -0.3347  0.3614
 
              Baa    -0.0041    -2.200    -0.785    -0.734 -0.2688 -0.0887  0.9591
    52 H(1)   Bbb    -0.0037    -1.949    -0.695    -0.650  0.4089  0.8911  0.1970
              Bcc     0.0078     4.149     1.480     1.384  0.8721 -0.4451  0.2032
 
              Baa    -0.0103    -1.378    -0.492    -0.460  0.0440  0.9187  0.3926
    53 C(13)  Bbb    -0.0027    -0.365    -0.130    -0.122  0.7005 -0.3086  0.6435
              Bcc     0.0130     1.743     0.622     0.581  0.7123  0.2467 -0.6571
 
              Baa    -0.0027    -1.419    -0.506    -0.473 -0.4043 -0.2625  0.8762
    54 H(1)   Bbb    -0.0016    -0.851    -0.304    -0.284 -0.1401  0.9644  0.2243
              Bcc     0.0043     2.270     0.810     0.757  0.9038  0.0320  0.4267
 
              Baa    -0.0025    -1.323    -0.472    -0.441  0.1082  0.7791  0.6175
    55 H(1)   Bbb    -0.0018    -0.950    -0.339    -0.317 -0.4786 -0.5036  0.7192
              Bcc     0.0043     2.273     0.811     0.758  0.8713 -0.3734  0.3184
 
              Baa    -0.0050    -0.675    -0.241    -0.225  0.9321  0.3394  0.1262
    56 C(13)  Bbb    -0.0044    -0.588    -0.210    -0.196 -0.1584  0.0687  0.9850
              Bcc     0.0094     1.262     0.450     0.421 -0.3256  0.9381 -0.1178
 
              Baa    -0.0041    -2.181    -0.778    -0.728 -0.6890 -0.0222  0.7244
    57 H(1)   Bbb    -0.0035    -1.874    -0.669    -0.625  0.6321  0.4707  0.6156
              Bcc     0.0076     4.056     1.447     1.353 -0.3546  0.8820 -0.3103
 
              Baa    -0.0040    -2.128    -0.759    -0.710  0.2157  0.0805  0.9731
    58 H(1)   Bbb    -0.0034    -1.834    -0.654    -0.612  0.8716  0.4333 -0.2290
              Bcc     0.0074     3.962     1.414     1.322 -0.4401  0.8976  0.0233
 
              Baa    -0.0032    -1.717    -0.613    -0.573 -0.2282  0.0522  0.9722
    59 H(1)   Bbb    -0.0030    -1.580    -0.564    -0.527  0.9594  0.1823  0.2154
              Bcc     0.0062     3.298     1.177     1.100 -0.1660  0.9819 -0.0917
 
              Baa    -0.0049    -0.654    -0.233    -0.218  0.8575 -0.3452  0.3814
    60 C(13)  Bbb    -0.0046    -0.613    -0.219    -0.205 -0.3808  0.0725  0.9218
              Bcc     0.0094     1.267     0.452     0.423  0.3459  0.9357  0.0693
 
              Baa    -0.0032    -1.705    -0.608    -0.569 -0.2626  0.0429  0.9639
    61 H(1)   Bbb    -0.0029    -1.545    -0.551    -0.515  0.9441 -0.1948  0.2659
              Bcc     0.0061     3.250     1.160     1.084  0.1992  0.9799  0.0106
 
              Baa    -0.0039    -2.080    -0.742    -0.694 -0.6628  0.0670  0.7458
    62 H(1)   Bbb    -0.0034    -1.833    -0.654    -0.612  0.6526 -0.4367  0.6192
              Bcc     0.0073     3.914     1.396     1.305  0.3672  0.8971  0.2457
 
              Baa    -0.0040    -2.152    -0.768    -0.718  0.2068 -0.0208  0.9782
    63 H(1)   Bbb    -0.0035    -1.868    -0.666    -0.623  0.8620 -0.4691 -0.1922
              Bcc     0.0075     4.020     1.434     1.341  0.4628  0.8829 -0.0791
 
              Baa    -0.1404    10.156     3.624     3.388  0.9471  0.1095  0.3018
    64 O(17)  Bbb    -0.1151     8.325     2.971     2.777 -0.1037  0.9940 -0.0351
              Bcc     0.2554   -18.482    -6.595    -6.165 -0.3038  0.0019  0.9527
 
              Baa    -0.0394   -21.022    -7.501    -7.012 -0.1054  0.9935 -0.0435
    65 H(1)   Bbb    -0.0288   -15.361    -5.481    -5.124  0.8066  0.1110  0.5806
              Bcc     0.0682    36.383    12.983    12.136 -0.5816 -0.0261  0.8130
 
              Baa    -0.0332   -17.736    -6.329    -5.916 -0.1708  0.9830 -0.0677
    66 H(1)   Bbb    -0.0242   -12.903    -4.604    -4.304  0.9817  0.1639 -0.0966
              Bcc     0.0574    30.640    10.933    10.220  0.0839  0.0830  0.9930
 
              Baa    -0.0026    -0.347    -0.124    -0.116  0.0739  0.9963 -0.0433
    67 C(13)  Bbb    -0.0022    -0.300    -0.107    -0.100  0.4970  0.0009  0.8678
              Bcc     0.0048     0.647     0.231     0.216  0.8646 -0.0857 -0.4951
 
              Baa    -0.0018    -0.978    -0.349    -0.326  0.1889  0.9566  0.2220
    68 H(1)   Bbb    -0.0018    -0.938    -0.335    -0.313  0.5331 -0.2898  0.7949
              Bcc     0.0036     1.916     0.684     0.639  0.8247 -0.0318 -0.5647
 
              Baa    -0.0023    -1.224    -0.437    -0.408 -0.1201  0.9562 -0.2669
    69 H(1)   Bbb    -0.0022    -1.163    -0.415    -0.388  0.3428  0.2923  0.8928
              Bcc     0.0045     2.387     0.852     0.796  0.9317  0.0157 -0.3629
 
              Baa    -0.0021    -1.127    -0.402    -0.376  0.3031  0.9487  0.0900
    70 H(1)   Bbb    -0.0021    -1.106    -0.395    -0.369  0.3876 -0.2090  0.8978
              Bcc     0.0042     2.233     0.797     0.745  0.8706 -0.2372 -0.4310
 
              Baa    -0.0084    -1.121    -0.400    -0.374  0.1046  0.9940  0.0312
    71 C(13)  Bbb    -0.0016    -0.220    -0.079    -0.073  0.8372 -0.1050  0.5367
              Bcc     0.0100     1.341     0.479     0.447 -0.5368  0.0300  0.8432
 
              Baa    -0.0084    -1.123    -0.401    -0.375  0.4642 -0.2347  0.8541
    72 C(13)  Bbb    -0.0049    -0.655    -0.234    -0.218  0.3883  0.9206  0.0419
              Bcc     0.0132     1.777     0.634     0.593  0.7961 -0.3121 -0.5185
 
              Baa    -0.0043    -2.313    -0.825    -0.771  0.1790 -0.6333  0.7529
    73 H(1)   Bbb    -0.0041    -2.162    -0.771    -0.721  0.6692  0.6393  0.3787
              Bcc     0.0084     4.475     1.597     1.493  0.7212 -0.4361 -0.5382
 
              Baa    -0.0179    -2.396    -0.855    -0.799  0.4579  0.8880 -0.0420
    74 C(13)  Bbb    -0.0087    -1.161    -0.414    -0.387  0.7330 -0.3504  0.5830
              Bcc     0.0265     3.557     1.269     1.187 -0.5030  0.2977  0.8114
 
              Baa    -0.0143    -7.632    -2.723    -2.546  0.8386 -0.0430  0.5431
    75 H(1)   Bbb    -0.0130    -6.938    -2.476    -2.314  0.3409  0.8191 -0.4614
              Bcc     0.0273    14.570     5.199     4.860 -0.4250  0.5721  0.7015
 
              Baa    -0.0264    -3.540    -1.263    -1.181  0.7586  0.0849  0.6460
    76 C(13)  Bbb    -0.0239    -3.210    -1.145    -1.071 -0.0621  0.9964 -0.0581
              Bcc     0.0503     6.750     2.408     2.251 -0.6486  0.0040  0.7611
 
              Baa    -0.1724    12.477     4.452     4.162 -0.6047  0.7965 -0.0073
    77 O(17)  Bbb    -0.1564    11.317     4.038     3.775  0.7910  0.6015  0.1120
              Bcc     0.3288   -23.793    -8.490    -7.937 -0.0936 -0.0619  0.9937
 
              Baa    -0.0459   -24.485    -8.737    -8.167  0.9517  0.2489  0.1800
    78 H(1)   Bbb    -0.0313   -16.692    -5.956    -5.568 -0.3047  0.8387  0.4513
              Bcc     0.0772    41.177    14.693    13.735 -0.0387 -0.4844  0.8740
 
              Baa    -0.0074    -0.997    -0.356    -0.332  0.4946  0.1063  0.8626
    79 C(13)  Bbb    -0.0049    -0.654    -0.233    -0.218 -0.2102  0.9777  0.0001
              Bcc     0.0123     1.650     0.589     0.551  0.8433  0.1814 -0.5059
 
              Baa    -0.0040    -2.116    -0.755    -0.706  0.2639  0.5884  0.7643
    80 H(1)   Bbb    -0.0037    -1.980    -0.706    -0.660 -0.5384  0.7473 -0.3894
              Bcc     0.0077     4.096     1.461     1.366  0.8003  0.3087 -0.5141
 
              Baa    -0.0153    -2.057    -0.734    -0.686 -0.3466  0.9362  0.0580
    81 C(13)  Bbb    -0.0070    -0.939    -0.335    -0.313  0.7106  0.2217  0.6678
              Bcc     0.0223     2.995     1.069     0.999 -0.6124 -0.2727  0.7421
 
              Baa    -0.0116    -6.178    -2.204    -2.061  0.7978 -0.1281  0.5892
    82 H(1)   Bbb    -0.0108    -5.752    -2.053    -1.919 -0.2355  0.8333  0.5002
              Bcc     0.0224    11.930     4.257     3.979 -0.5550 -0.5378  0.6346
 

 ---------------------------------------------------------------------------------

 Unable to Open any file for archive entry.
 1\1\GINC-BGN1016\SP\UAPFD\Gen\C37H38Fe1N4O2(1+,6)\BEBJONES\23-Jul-2024
 \0\\# apfd/gen scf=maxcycle=999 geom=check\\1gwh_III_H\\1,6\Fe,0,22.63
 2986151,-1.3816065383,-4.0139684829\N,0,20.7017411139,-1.1018265041,-3
 .5165635379\N,0,22.7809609244,-2.6823166542,-2.4862054067\N,0,24.63243
 10936,-1.4255962955,-4.2447749224\N,0,22.5101686708,0.0845587575,-5.35
 09228312\C,0,19.8290474725,-0.2650627069,-4.1394774386\C,0,18.47247980
 32,-0.5297493533,-3.7157261414\C,0,18.541510065,-1.5779453152,-2.85288
 9226\C,0,19.9409046677,-1.9217213508,-2.7435001635\C,0,21.7524278837,-
 3.3190961247,-1.8636301054\C,0,22.235065749,-4.3869447119,-1.024819921
 3\C,0,23.5987364013,-4.3781389608,-1.1415445155\C,0,23.9118179596,-3.3
 159022327,-2.0803606646\C,0,25.5129781835,-2.2225058209,-3.5803281637\
 C,0,26.7978186466,-2.2209043138,-4.2286381608\C,0,26.6653013189,-1.434
 6838491,-5.3446766685\C,0,25.305606157,-0.9361037529,-5.320705448\C,0,
 23.4951857274,0.4669603215,-6.2106417531\C,0,22.9921795113,1.444575776
 5,-7.1501971996\C,0,21.6864329064,1.6531008855,-6.8260194723\C,0,21.39
 88691222,0.7811878598,-5.7095415865\C,0,20.1589826578,0.6670702879,-5.
 1080561921\H,0,19.3625370045,1.284862212,-5.4936425952\C,0,20.42145881
 73,-2.9538361605,-1.9626425078\H,0,19.6989812348,-3.5354809606,-1.4114
 611069\C,0,25.1968650119,-3.0277556782,-2.4978878081\H,0,25.9994908608
 ,-3.6040006308,-2.0638229847\C,0,24.7842230025,-0.0352303449,-6.232572
 759\H,0,25.4338293619,0.3131768605,-7.0204965961\C,0,17.4443942936,-2.
 2881018632,-2.1385425789\H,0,16.4775942781,-1.8593277984,-2.3898947093
 \H,0,17.5806111083,-2.2201715442,-1.0590307892\H,0,17.4353803574,-3.34
 20609965,-2.4146943298\C,0,17.2769325761,0.2112122931,-4.2069869802\H,
 0,17.1398293541,0.0451398626,-5.2764010515\H,0,17.3924074124,1.2827281
 885,-4.042701454\H,0,16.378654015,-0.1196316844,-3.690761988\C,0,21.38
 512359,-5.2478216201,-0.1573787804\H,0,20.9410735407,-6.06137932,-0.73
 34132364\H,0,20.5767160058,-4.669372857,0.2867307334\H,0,21.9843446356
 ,-5.679870143,0.6415015992\C,0,24.5780073334,-5.2189079897,-0.48828217
 09\H,0,25.5176733782,-4.7382282038,-0.2412222425\C,0,24.4117958264,-6.
 5017398266,-0.1839745543\H,0,23.5205212798,-7.0425605734,-0.4500936364
 \H,0,25.1805860369,-7.0659496288,0.3173550327\C,0,28.0131960375,-2.913
 1727474,-3.7200943552\H,0,28.0097846462,-3.9659484644,-4.0061696132\H,
 0,28.0596399714,-2.8598554671,-2.6333824302\H,0,28.9070953674,-2.44819
 5419,-4.1311353945\C,0,27.6507539287,-1.0990524799,-6.347945278\H,0,27
 .5561908545,-0.1121920953,-6.7858381765\C,0,28.6292736909,-1.895953846
 4,-6.7650398791\H,0,28.7421805636,-2.9027415145,-6.4032623336\H,0,29.3
 379898607,-1.5736671646,-7.5097423378\C,0,23.8093954017,2.0730929543,-
 8.2259974464\H,0,24.1989127112,1.3150900842,-8.9062765549\H,0,24.65646
 39269,2.609412834,-7.7981023107\H,0,23.2146414059,2.777129284,-8.80256
 09249\C,0,20.6894741424,2.5621455708,-7.4585646477\H,0,21.1325831033,3
 .1033391353,-8.2911509469\H,0,20.3213169069,3.2887029268,-6.7335809051
 \H,0,19.8353735973,1.996255336,-7.8322950201\O,0,23.152,0.226,-2.493\H
 ,0,24.107,0.208,-2.43\H,0,22.608,0.791,-2.075\C,0,16.7177167257,-4.171
 385943,-5.5768169541\H,0,16.4110837377,-4.6845034738,-6.4882649524\H,0
 ,16.1231037109,-3.2648198443,-5.487310536\H,0,16.4989909709,-4.8186221
 063,-4.731880221\C,0,18.1774635656,-3.836334777,-5.6331416328\C,0,19.1
 0696187,-4.5279290454,-4.8674823001\H,0,18.7762599882,-5.3262266787,-4
 .2191967026\C,0,20.4498824712,-4.2064519902,-4.9108756374\H,0,21.17315
 02176,-4.7230069961,-4.300836032\C,0,20.8828135477,-3.1729719641,-5.72
 94831538\O,0,22.2225992185,-2.8466863255,-5.7233669067\H,0,22.39116748
 42,-2.2126300284,-6.4363213541\C,0,18.6311987193,-2.8219312964,-6.4665
 925566\H,0,17.9232948207,-2.2777502907,-7.074703037\C,0,19.9717538905,
 -2.4912884015,-6.5239452114\H,0,20.3100976653,-1.6857020589,-7.1614075
 09\\Version=ES64L-G16RevC.02\State=6-A\HF=-3064.37381\S2=8.759592\S2-1
 =0.\S2A=8.750028\RMSD=7.104e-09\Dipole=-0.100133,0.7033452,0.0320783\Q
 uadrupole=18.2646371,-8.3162674,-9.9483697,-1.551585,-1.4395729,-21.34
 24742\PG=C01 [X(C37H38Fe1N4O2)]\\@
 The archive entry for this job was punched.


 Until you make peace with who you are,
 you'll never be content with what you have.
                           -- Doris Mortman
 Job cpu time:       0 days  6 hours 26 minutes 39.8 seconds.
 Elapsed time:       0 days  0 hours  6 minutes 39.9 seconds.
 File lengths (MBytes):  RWF=    471 Int=      0 D2E=      0 Chk=    223 Scr=      1
 Normal termination of Gaussian 16 at Tue Jul 23 21:40:24 2024.
