 Entering Gaussian System, Link 0=g16
 Input=1gwt05re.com
 Output=1gwt05re.log
 Initial command:
 /sw/chem/gaussian/g16_C02/a100/g16/l1.exe "/local/bebjones_7947471/Gau-1717161.inp" -scrdir="/local/bebjones_7947471/"
 Entering Link 1 = /sw/chem/gaussian/g16_C02/a100/g16/l1.exe PID=   1717162.
  
 Copyright (c) 1988-2021, Gaussian, Inc.  All Rights Reserved.
  
 This is part of the Gaussian(R) 16 program.  It is based on
 the Gaussian(R) 09 system (copyright 2009, Gaussian, Inc.),
 the Gaussian(R) 03 system (copyright 2003, Gaussian, Inc.),
 the Gaussian(R) 98 system (copyright 1998, Gaussian, Inc.),
 the Gaussian(R) 94 system (copyright 1995, Gaussian, Inc.),
 the Gaussian 92(TM) system (copyright 1992, Gaussian, Inc.),
 the Gaussian 90(TM) system (copyright 1990, Gaussian, Inc.),
 the Gaussian 88(TM) system (copyright 1988, Gaussian, Inc.),
 the Gaussian 86(TM) system (copyright 1986, Carnegie Mellon
 University), and the Gaussian 82(TM) system (copyright 1983,
 Carnegie Mellon University). Gaussian is a federally registered
 trademark of Gaussian, Inc.
  
 This software contains proprietary and confidential information,
 including trade secrets, belonging to Gaussian, Inc.
  
 This software is provided under written license and may be
 used, copied, transmitted, or stored only in accord with that
 written license.
  
 The following legend is applicable only to US Government
 contracts under FAR:
  
                    RESTRICTED RIGHTS LEGEND
  
 Use, reproduction and disclosure by the US Government is
 subject to restrictions as set forth in subparagraphs (a)
 and (c) of the Commercial Computer Software - Restricted
 Rights clause in FAR 52.227-19.
  
 Gaussian, Inc.
 340 Quinnipiac St., Bldg. 40, Wallingford CT 06492
  
  
 ---------------------------------------------------------------
 Warning -- This program may not be used in any manner that
 competes with the business of Gaussian, Inc. or will provide
 assistance to any competitor of Gaussian, Inc.  The licensee
 of this program is prohibited from giving any competitor of
 Gaussian, Inc. access to this program.  By using this program,
 the user acknowledges that Gaussian, Inc. is engaged in the
 business of creating and licensing software in the field of
 computational chemistry and represents and warrants to the
 licensee that it is not a competitor of Gaussian, Inc. and that
 it will not use this program in any manner prohibited above.
 ---------------------------------------------------------------
  

 Cite this work as:
 Gaussian 16, Revision C.02,
 M. J. Frisch, G. W. Trucks, H. B. Schlegel, G. E. Scuseria, 
 M. A. Robb, J. R. Cheeseman, G. Scalmani, V. Barone, 
 G. A. Petersson, H. Nakatsuji, X. Li, M. Caricato, A. V. Marenich, 
 J. Bloino, B. G. Janesko, R. Gomperts, B. Mennucci, H. P. Hratchian, 
 J. V. Ortiz, A. F. Izmaylov, J. L. Sonnenberg, D. Williams-Young, 
 F. Ding, F. Lipparini, F. Egidi, J. Goings, B. Peng, A. Petrone, 
 T. Henderson, D. Ranasinghe, V. G. Zakrzewski, J. Gao, N. Rega, 
 G. Zheng, W. Liang, M. Hada, M. Ehara, K. Toyota, R. Fukuda, 
 J. Hasegawa, M. Ishida, T. Nakajima, Y. Honda, O. Kitao, H. Nakai, 
 T. Vreven, K. Throssell, J. A. Montgomery, Jr., J. E. Peralta, 
 F. Ogliaro, M. J. Bearpark, J. J. Heyd, E. N. Brothers, K. N. Kudin, 
 V. N. Staroverov, T. A. Keith, R. Kobayashi, J. Normand, 
 K. Raghavachari, A. P. Rendell, J. C. Burant, S. S. Iyengar, 
 J. Tomasi, M. Cossi, J. M. Millam, M. Klene, C. Adamo, R. Cammi, 
 J. W. Ochterski, R. L. Martin, K. Morokuma, O. Farkas, 
 J. B. Foresman, and D. J. Fox, Gaussian, Inc., Wallingford CT, 2019.
 
 ******************************************
 Gaussian 16:  ES64L-G16RevC.02  7-Dec-2021
                23-Jul-2024 
 ******************************************
 %mem=16GB
 %CPU=0-71
 SetSPE:  set environment variable "OMP_PROC_BIND" = "true"
 SetSPE:  set environment variable "OMP_PLACES" = "{0},{1},{2},{3},{4},{5},{6},{7},{8},{9},{10},{11},{12},{13},{14},{15},{16},{17},{18},{19},{20},{21},{22},{23},{24},{25},{26},{27},{28},{29},{30},{31},{32},{33},{34},{35},{36},{37},{38},{39},{40},{41},{42},{43},{44},{45},{46},{47},{48},{49},{50},{51},{52},{53},{54},{55},{56},{57},{58},{59},{60},{61},{62},{63},{64},{65},{66},{67},{68},{69},{70},{71}"
 Will use up to   72 processors via shared memory.
 %gpucpu=0,1,2,3=0,1,2,3
 Will use    4 GPUs:
 Thread  CPU   GPU
      0    0     0
      1    1     1
      2    2     2
      3    3     3
      4    4    -1
      5    5    -1
      6    6    -1
      7    7    -1
      8    8    -1
      9    9    -1
     10   10    -1
     11   11    -1
     12   12    -1
     13   13    -1
     14   14    -1
     15   15    -1
     16   16    -1
     17   17    -1
     18   18    -1
     19   19    -1
     20   20    -1
     21   21    -1
     22   22    -1
     23   23    -1
     24   24    -1
     25   25    -1
     26   26    -1
     27   27    -1
     28   28    -1
     29   29    -1
     30   30    -1
     31   31    -1
     32   32    -1
     33   33    -1
     34   34    -1
     35   35    -1
     36   36    -1
     37   37    -1
     38   38    -1
     39   39    -1
     40   40    -1
     41   41    -1
     42   42    -1
     43   43    -1
     44   44    -1
     45   45    -1
     46   46    -1
     47   47    -1
     48   48    -1
     49   49    -1
     50   50    -1
     51   51    -1
     52   52    -1
     53   53    -1
     54   54    -1
     55   55    -1
     56   56    -1
     57   57    -1
     58   58    -1
     59   59    -1
     60   60    -1
     61   61    -1
     62   62    -1
     63   63    -1
     64   64    -1
     65   65    -1
     66   66    -1
     67   67    -1
     68   68    -1
     69   69    -1
     70   70    -1
     71   71    -1
 SetGPE:  set environment variable "OMP_PROC_BIND" = "true"
 SetGPE:  set environment variable "OMP_PLACES" = "{0},{1},{2},{3},{4},{5},{6},{7},{8},{9},{10},{11},{12},{13},{14},{15},{16},{17},{18},{19},{20},{21},{22},{23},{24},{25},{26},{27},{28},{29},{30},{31},{32},{33},{34},{35},{36},{37},{38},{39},{40},{41},{42},{43},{44},{45},{46},{47},{48},{49},{50},{51},{52},{53},{54},{55},{56},{57},{58},{59},{60},{61},{62},{63},{64},{65},{66},{67},{68},{69},{70},{71}"
 %oldchk=1gwt_II_S.chk
 %chk=1gwt_II_Sre.chk
 Properties for Device   0
 Minimum vector length:                              32
 Maximum vector length:                            1024
 Number of SMPs:                                    108
 Maximum number of threads per SMP:                2048
 Number of ASync Engines:                             5
 Memory:                                           9207742464
 Properties for Device   1
 Minimum vector length:                              32
 Maximum vector length:                            1024
 Number of SMPs:                                    108
 Maximum number of threads per SMP:                2048
 Number of ASync Engines:                             5
 Memory:                                           9207742464
 Properties for Device   2
 Minimum vector length:                              32
 Maximum vector length:                            1024
 Number of SMPs:                                    108
 Maximum number of threads per SMP:                2048
 Number of ASync Engines:                             5
 Memory:                                           9207742464
 Properties for Device   3
 Minimum vector length:                              32
 Maximum vector length:                            1024
 Number of SMPs:                                    108
 Maximum number of threads per SMP:                2048
 Number of ASync Engines:                             5
 Memory:                                           9207742464
   8286968217 words of memory will be used on each GPU.
 Copying data from "1gwt_II_S.chk" to current chk file "1gwt_II_Sre.chk"
 IOpt=  2 FromEx=T IUOpen= 4 IOptOp= 5 NList=   0 IFRang= 0 IUIn= 4 IUOut= 2.
 --------------------------------------
 # apfd/gen scf=maxcycle=999 geom=check
 --------------------------------------
 1/29=2,38=1,172=1/1;
 2/12=2,40=1/2;
 3/5=7,11=2,14=-4,25=1,30=1,74=-44/1,2,3;
 4//1;
 5/5=2,7=999,38=5/2;
 6/7=2,8=2,9=2,10=2,28=1/1;
 99/5=1,9=1/99;
 ---------
 1gwt_II_Q
 ---------
 Structure from the checkpoint file:  "1gwt_II_Sre.chk"
 Charge =  0 Multiplicity = 5
 Z-Matrix found in chk file.
 Fe,0,3.137167034,32.0201615893,46.8254010204
 N,0,1.4914706856,32.1472243092,47.9764603617
 N,0,4.1640590122,33.0233030765,48.2353040752
 N,0,4.8643416041,31.5669170882,45.925393742
 N,0,2.163555208,30.8284646355,45.5676657914
 C,0,0.2588976722,31.6545500492,47.6782598986
 C,0,-0.6844220019,31.9700438018,48.7265735647
 C,0,0.0110009156,32.6561977548,49.6742543853
 C,0,1.3699547727,32.7523268262,49.1909284103
 C,0,3.672605638,33.577679343,49.377288904
 C,0,4.668910416,34.3897134014,50.0249225234
 C,0,5.7968422409,34.3056942806,49.2536380045
 C,0,5.4688883414,33.398922092,48.1705129151
 C,0,6.1060250932,32.019296596,46.2483347605
 C,0,7.1094114844,31.410977576,45.4128527046
 C,0,6.4384636385,30.5976050044,44.5376645256
 C,0,5.0331888883,30.7200087741,44.8770428813
 C,0,2.6700463689,30.2144537039,44.4662890748
 C,0,1.6041462272,29.7159650748,43.6239272044
 C,0,0.4475219097,29.9423689867,44.3027078185
 C,0,0.8219531271,30.6115172296,45.5302246111
 C,0,-0.0761996678,30.997573282,46.5072476982
 H,0,-1.1115753453,30.7250122788,46.368805025
 C,0,2.3715667099,33.4500800175,49.8368064675
 H,0,2.1259724731,33.9230993696,50.7756533231
 C,0,6.3842875013,32.936611418,47.246267836
 H,0,7.4089019977,33.2529201461,47.3640155687
 C,0,4.013052299,30.1360496397,44.1474013307
 H,0,4.2846146644,29.5717461627,43.267966271
 C,0,-0.4597356842,33.2116333431,50.9750866758
 H,0,-1.5081817496,32.9757347253,51.1400596048
 H,0,-0.3456593171,34.2960023209,50.9946736501
 H,0,0.1191373106,32.797326074,51.8008696627
 C,0,-2.1224758222,31.5786181278,48.7108598737
 H,0,-2.2239874616,30.4938945667,48.6652917157
 H,0,-2.6251629158,32.0008583329,47.8404565063
 H,0,-2.6303925992,31.9332668208,49.6045185961
 C,0,4.4525642723,35.1818039777,51.2683395613
 H,0,4.0819759864,34.5440438134,52.0712047214
 H,0,3.7185461116,35.9712789379,51.1002149579
 H,0,5.3807858137,35.6456184065,51.5928469587
 C,0,7.0577071658,34.9794770823,49.4845814536
 H,0,7.3431222282,35.0842383355,50.5262608998
 C,0,7.8426102112,35.5002952096,48.5480116722
 H,0,7.5819002221,35.4728605817,47.5036760234
 H,0,8.7670974442,35.9940790351,48.7985922709
 C,0,8.5779169156,31.6109810137,45.5555008402
 H,0,8.8530841524,31.7081927933,46.6044886406
 H,0,8.8991806902,32.5162918813,45.0375496552
 H,0,9.113702804,30.7645420167,45.130290349
 C,0,6.9588500741,29.7344030658,43.5012469547
 H,0,6.3928093493,28.8271335028,43.3228246863
 C,0,8.0421275735,29.9707830769,42.7677312966
 H,0,8.6157988531,30.8754789784,42.866976507
 H,0,8.3782767055,29.2724643732,42.0191055128
 C,0,1.8141418988,29.0469261543,42.308888299
 H,0,2.3584678527,28.1105890912,42.4375280729
 H,0,2.3942505356,29.6846721476,41.6419558825
 H,0,0.8627952537,28.8248184211,41.8314660627
 C,0,-0.9536073173,29.609780294,43.9189016927
 H,0,-0.9907364171,29.1896184478,42.9166807457
 H,0,-1.580182757,30.501396522,43.9426545616
 H,0,-1.3769835614,28.8807488337,44.6108397936
 O,0,3.483,30.151,48.107
 H,0,2.727,30.13,48.694
 H,0,4.148,29.561,48.085
 C,0,2.3073499833,35.7070929626,42.7494803425
 H,0,3.0103754671,36.5364375978,42.6713116991
 H,0,1.3011055348,36.0986033711,42.6023288646
 H,0,2.523224734,34.9940513745,41.9602530302
 N,0,2.1253707564,35.6751986698,45.2459233013
 H,0,1.8107663936,36.6272356895,45.3356875236
 C,0,2.4239447035,35.0382127464,44.0700663803
 C,0,2.3327329582,34.7952583357,46.2528819661
 H,0,2.1791842554,35.0169526107,47.2888998484
 N,0,2.7446140988,33.6410702218,45.7850744472
 C,0,2.8074698214,33.7775527502,44.4286528475
 H,0,3.1213756482,32.9628694703,43.8089151595
 Recover connectivity data from disk.
 Stoichiometry    C34H36FeN6O(5)
 Framework group  C1[X(C34H36FeN6O)]
 Deg. of freedom   228
 Full point group                 C1      NOp   1
 Largest Abelian subgroup         C1      NOp   1
 Largest concise Abelian subgroup C1      NOp   1
                         Standard orientation:                         
 ---------------------------------------------------------------------
 Center     Atomic      Atomic             Coordinates (Angstroms)
 Number     Number       Type             X           Y           Z
 ---------------------------------------------------------------------
      1         26           0        0.191862   -0.035541   -0.312496
      2          7           0        2.184377    0.152604   -0.521978
      3          7           0        0.025278    1.968342   -0.385488
      4          7           0       -1.791455   -0.183026   -0.520533
      5          7           0        0.361496   -2.008159   -0.485593
      6          6           0        3.089893   -0.861794   -0.565870
      7          6           0        4.433118   -0.342379   -0.685475
      8          6           0        4.317753    1.013206   -0.725499
      9          6           0        2.905090    1.303787   -0.627801
     10          6           0        1.035290    2.879764   -0.432139
     11          6           0        0.529913    4.216655   -0.262534
     12          6           0       -0.827397    4.102096   -0.125579
     13          6           0       -1.121025    2.688627   -0.262828
     14          6           0       -2.697841    0.831450   -0.524787
     15          6           0       -4.026939    0.333815   -0.771212
     16          6           0       -3.913084   -1.027437   -0.879527
     17          6           0       -2.502873   -1.324165   -0.711556
     18          6           0       -0.649364   -2.915908   -0.512544
     19          6           0       -0.139363   -4.254447   -0.306583
     20          6           0        1.215616   -4.142320   -0.271369
     21          6           0        1.509837   -2.732614   -0.416007
     22          6           0        2.787784   -2.207098   -0.447277
     23          1           0        3.613609   -2.902043   -0.424398
     24          6           0        2.382707    2.580061   -0.553735
     25          1           0        3.074588    3.407207   -0.604995
     26          6           0       -2.397915    2.167565   -0.325774
     27          1           0       -3.219221    2.866503   -0.299443
     28          6           0       -1.990723   -2.607581   -0.643662
     29          1           0       -2.687763   -3.429814   -0.704144
     30          6           0        5.381768    2.048914   -0.857586
     31          1           0        6.360819    1.587282   -0.959859
     32          1           0        5.398950    2.697347    0.019051
     33          1           0        5.203269    2.672403   -1.733977
     34          6           0        5.659116   -1.186981   -0.756429
     35          1           0        5.618967   -1.848939   -1.621996
     36          1           0        5.750706   -1.805467    0.136694
     37          1           0        6.550663   -0.569812   -0.837851
     38          6           0        1.366541    5.448594   -0.210758
     39          1           0        1.995316    5.524252   -1.098217
     40          1           0        2.019165    5.435461    0.663444
     41          1           0        0.739409    6.334765   -0.152191
     42          6           0       -1.770289    5.177840    0.099872
     43          1           0       -1.538645    6.110342   -0.404423
     44          6           0       -2.838277    5.121744    0.887743
     45          1           0       -3.085202    4.239722    1.453804
     46          1           0       -3.492701    5.969061    1.010519
     47          6           0       -5.241448    1.180031   -0.931661
     48          1           0       -4.998173    2.109308   -1.444306
     49          1           0       -5.670072    1.433183    0.039559
     50          1           0       -5.994184    0.648048   -1.510203
     51          6           0       -4.931804   -2.016667   -1.151034
     52          1           0       -4.603416   -2.879834   -1.718905
     53          6           0       -6.200151   -1.950428   -0.758200
     54          1           0       -6.571553   -1.142547   -0.152551
     55          1           0       -6.908364   -2.722514   -1.010000
     56          6           0       -0.990544   -5.474496   -0.217085
     57          1           0       -1.508052   -5.651170   -1.160768
     58          1           0       -1.742921   -5.361323    0.563406
     59          1           0       -0.388134   -6.350756    0.010059
     60          6           0        2.247491   -5.205124   -0.107759
     61          1           0        1.782306   -6.171846    0.069477
     62          1           0        2.902572   -4.978064    0.733343
     63          1           0        2.863346   -5.281671   -1.004628
     64          8           0        0.280309    0.031638   -2.602370
     65          1           0        1.214112    0.117318   -2.795286
     66          1           0       -0.377598   -0.014834   -3.198866
     67          6           0       -0.555805   -1.350194    5.036137
     68          1           0       -1.129938   -0.655165    5.648896
     69          1           0        0.307170   -1.680612    5.613683
     70          1           0       -1.177529   -2.211584    4.813928
     71          7           0        0.737178    0.357334    3.740412
     72          1           0        1.152291    0.799633    4.543817
     73          6           0       -0.125873   -0.706559    3.768922
     74          6           0        0.922920    0.699817    2.444470
     75          1           0        1.552217    1.501408    2.116607
     76          7           0        0.229462   -0.082548    1.652218
     77          6           0       -0.429192   -0.961628    2.462064
     78          1           0       -1.070835   -1.712996    2.049680
 ---------------------------------------------------------------------
 Rotational constants (GHZ):           0.0944332           0.0908927           0.0603645
 General basis read from cards:  (5D, 7F)
 There are   723 symmetry adapted cartesian basis functions of A   symmetry.
 There are   679 symmetry adapted basis functions of A   symmetry.
   679 basis functions,  1378 primitive gaussians,   723 cartesian basis functions
   160 alpha electrons      156 beta electrons
       nuclear repulsion energy      5974.8711492025 Hartrees.
 NAtoms=   78 NActive=   78 NUniq=   78 SFac= 1.00D+00 NAtFMM=   60 NAOKFM=T Big=T
 Integral buffers will be    131072 words long.
 Raffenetti 2 integral format.
 Two-electron integral symmetry is turned on.
 R6APFD:  NTU= -4 IXU= 1 FactS= 1.050
 Nuclear repulsion after empirical dispersion term =     5974.7183692326 Hartrees.
 One-electron integrals computed using PRISM.
 NBasis=   679 RedAO= T EigKep=  2.65D-04  NBF=   679
 NBsUse=   679 1.00D-06 EigRej= -1.00D+00 NBFU=   679
 ExpMin= 4.20D-02 ExpMax= 3.01D+05 ExpMxC= 2.91D+03 IAcc=3 IRadAn=         5 AccDes= 0.00D+00
 Harris functional with IExCor= 3731 and IRadAn=       5 diagonalized for initial guess.
 HarFok:  IExCor= 3731 AccDes= 0.00D+00 IRadAn=         5 IDoV= 1 UseB2=F ITyADJ=14
 ICtDFT=  3500011 ScaDFX=  1.000000  1.000000  1.000000  1.000000
 FoFCou: FMM=F IPFlag=           0 FMFlag=      100000 FMFlg1=        2001
         NFxFlg=           0 DoJE=T BraDBF=F KetDBF=T FulRan=T
         wScrn=  0.000000 ICntrl=       500 IOpCl=  0 I1Cent=   200000004 NGrid=           0
         NMat0=    1 NMatS0=      1 NMatT0=    0 NMatD0=    1 NMtDS0=    0 NMtDT0=    0
 Petite list used in FoFCou.
 Initial guess <Sx>= 0.0000 <Sy>= 0.0000 <Sz>= 2.0000 <S**2>= 6.0000 S= 2.0000
 Requested convergence on RMS density matrix=1.00D-08 within 999 cycles.
 Requested convergence on MAX density matrix=1.00D-06.
 Requested convergence on             energy=1.00D-06.
 No special actions if energy rises.
 EnCoef did   100 forward-backward iterations
 EnCoef did   100 forward-backward iterations
 EnCoef did   100 forward-backward iterations
 EnCoef did     8 forward-backward iterations
 Rare condition: small coef for last iteration:  0.000D+00
 Rare condition: small coef for last iteration:  0.000D+00
 Rare condition: small coef for last iteration:  0.000D+00
 Rare condition: small coef for last iteration:  0.000D+00
 Restarting incremental Fock formation.
 Rare condition: small coef for last iteration:  0.000D+00
 Rare condition: small coef for last iteration:  0.000D+00
 Rare condition: small coef for last iteration:  0.000D+00
 Rare condition: small coef for last iteration:  0.000D+00
 Rare condition: small coef for last iteration:  0.000D+00
 Rare condition: small coef for last iteration:  0.000D+00
 Rare condition: small coef for last iteration:  0.000D+00
 Rare condition: small coef for last iteration:  0.000D+00
 Rare condition: small coef for last iteration:  0.000D+00
 Restarting incremental Fock formation.
 Rare condition: small coef for last iteration:  0.000D+00
 Rare condition: small coef for last iteration:  0.000D+00
 Restarting incremental Fock formation.
 Restarting incremental Fock formation.
 Restarting incremental Fock formation.
 SCF Done:  E(UAPFD) =  -2983.34903283     A.U. after  106 cycles
            NFock=106  Conv=0.58D-08     -V/T= 2.0036
 <Sx>= 0.0000 <Sy>= 0.0000 <Sz>= 2.0000 <S**2>= 6.0633 S= 2.0126
 <L.S>=  0.00000000000    
 Annihilation of the first spin contaminant:
 S**2 before annihilation     6.0633,   after     6.0010

 **********************************************************************

            Population analysis using the SCF Density.

 **********************************************************************

 Orbital symmetries:
 Alpha Orbitals:
       Occupied  (A) (A) (A) (A) (A) (A) (A) (A) (A) (A) (A) (A)
                 (A) (A) (A) (A) (A) (A) (A) (A) (A) (A) (A) (A)
                 (A) (A) (A) (A) (A) (A) (A) (A) (A) (A) (A) (A)
                 (A) (A) (A) (A) (A) (A) (A) (A) (A) (A) (A) (A)
                 (A) (A) (A) (A) (A) (A) (A) (A) (A) (A) (A) (A)
                 (A) (A) (A) (A) (A) (A) (A) (A) (A) (A) (A) (A)
                 (A) (A) (A) (A) (A) (A) (A) (A) (A) (A) (A) (A)
                 (A) (A) (A) (A) (A) (A) (A) (A) (A) (A) (A) (A)
                 (A) (A) (A) (A) (A) (A) (A) (A) (A) (A) (A) (A)
                 (A) (A) (A) (A) (A) (A) (A) (A) (A) (A) (A) (A)
                 (A) (A) (A) (A) (A) (A) (A) (A) (A) (A) (A) (A)
                 (A) (A) (A) (A) (A) (A) (A) (A) (A) (A) (A) (A)
                 (A) (A) (A) (A) (A) (A) (A) (A) (A) (A) (A) (A)
                 (A) (A) (A) (A)
       Virtual   (A) (A) (A) (A) (A) (A) (A) (A) (A) (A) (A) (A)
                 (A) (A) (A) (A) (A) (A) (A) (A) (A) (A) (A) (A)
                 (A) (A) (A) (A) (A) (A) (A) (A) (A) (A) (A) (A)
                 (A) (A) (A) (A) (A) (A) (A) (A) (A) (A) (A) (A)
                 (A) (A) (A) (A) (A) (A) (A) (A) (A) (A) (A) (A)
                 (A) (A) (A) (A) (A) (A) (A) (A) (A) (A) (A) (A)
                 (A) (A) (A) (A) (A) (A) (A) (A) (A) (A) (A) (A)
                 (A) (A) (A) (A) (A) (A) (A) (A) (A) (A) (A) (A)
                 (A) (A) (A) (A) (A) (A) (A) (A) (A) (A) (A) (A)
                 (A) (A) (A) (A) (A) (A) (A) (A) (A) (A) (A) (A)
                 (A) (A) (A) (A) (A) (A) (A) (A) (A) (A) (A) (A)
                 (A) (A) (A) (A) (A) (A) (A) (A) (A) (A) (A) (A)
                 (A) (A) (A) (A) (A) (A) (A) (A) (A) (A) (A) (A)
                 (A) (A) (A) (A) (A) (A) (A) (A) (A) (A) (A) (A)
                 (A) (A) (A) (A) (A) (A) (A) (A) (A) (A) (A) (A)
                 (A) (A) (A) (A) (A) (A) (A) (A) (A) (A) (A) (A)
                 (A) (A) (A) (A) (A) (A) (A) (A) (A) (A) (A) (A)
                 (A) (A) (A) (A) (A) (A) (A) (A) (A) (A) (A) (A)
                 (A) (A) (A) (A) (A) (A) (A) (A) (A) (A) (A) (A)
                 (A) (A) (A) (A) (A) (A) (A) (A) (A) (A) (A) (A)
                 (A) (A) (A) (A) (A) (A) (A) (A) (A) (A) (A) (A)
                 (A) (A) (A) (A) (A) (A) (A) (A) (A) (A) (A) (A)
                 (A) (A) (A) (A) (A) (A) (A) (A) (A) (A) (A) (A)
                 (A) (A) (A) (A) (A) (A) (A) (A) (A) (A) (A) (A)
                 (A) (A) (A) (A) (A) (A) (A) (A) (A) (A) (A) (A)
                 (A) (A) (A) (A) (A) (A) (A) (A) (A) (A) (A) (A)
                 (A) (A) (A) (A) (A) (A) (A) (A) (A) (A) (A) (A)
                 (A) (A) (A) (A) (A) (A) (A) (A) (A) (A) (A) (A)
                 (A) (A) (A) (A) (A) (A) (A) (A) (A) (A) (A) (A)
                 (A) (A) (A) (A) (A) (A) (A) (A) (A) (A) (A) (A)
                 (A) (A) (A) (A) (A) (A) (A) (A) (A) (A) (A) (A)
                 (A) (A) (A) (A) (A) (A) (A) (A) (A) (A) (A) (A)
                 (A) (A) (A) (A) (A) (A) (A) (A) (A) (A) (A) (A)
                 (A) (A) (A) (A) (A) (A) (A) (A) (A) (A) (A) (A)
                 (A) (A) (A) (A) (A) (A) (A) (A) (A) (A) (A) (A)
                 (A) (A) (A) (A) (A) (A) (A) (A) (A) (A) (A) (A)
                 (A) (A) (A) (A) (A) (A) (A) (A) (A) (A) (A) (A)
                 (A) (A) (A) (A) (A) (A) (A) (A) (A) (A) (A) (A)
                 (A) (A) (A) (A) (A) (A) (A) (A) (A) (A) (A) (A)
                 (A) (A) (A) (A) (A) (A) (A) (A) (A) (A) (A) (A)
                 (A) (A) (A) (A) (A) (A) (A) (A) (A) (A) (A) (A)
                 (A) (A) (A) (A) (A) (A) (A) (A) (A) (A) (A) (A)
                 (A) (A) (A) (A) (A) (A) (A) (A) (A) (A) (A) (A)
                 (A) (A) (A)
 Beta  Orbitals:
       Occupied  (A) (A) (A) (A) (A) (A) (A) (A) (A) (A) (A) (A)
                 (A) (A) (A) (A) (A) (A) (A) (A) (A) (A) (A) (A)
                 (A) (A) (A) (A) (A) (A) (A) (A) (A) (A) (A) (A)
                 (A) (A) (A) (A) (A) (A) (A) (A) (A) (A) (A) (A)
                 (A) (A) (A) (A) (A) (A) (A) (A) (A) (A) (A) (A)
                 (A) (A) (A) (A) (A) (A) (A) (A) (A) (A) (A) (A)
                 (A) (A) (A) (A) (A) (A) (A) (A) (A) (A) (A) (A)
                 (A) (A) (A) (A) (A) (A) (A) (A) (A) (A) (A) (A)
                 (A) (A) (A) (A) (A) (A) (A) (A) (A) (A) (A) (A)
                 (A) (A) (A) (A) (A) (A) (A) (A) (A) (A) (A) (A)
                 (A) (A) (A) (A) (A) (A) (A) (A) (A) (A) (A) (A)
                 (A) (A) (A) (A) (A) (A) (A) (A) (A) (A) (A) (A)
                 (A) (A) (A) (A) (A) (A) (A) (A) (A) (A) (A) (A)
       Virtual   (A) (A) (A) (A) (A) (A) (A) (A) (A) (A) (A) (A)
                 (A) (A) (A) (A) (A) (A) (A) (A) (A) (A) (A) (A)
                 (A) (A) (A) (A) (A) (A) (A) (A) (A) (A) (A) (A)
                 (A) (A) (A) (A) (A) (A) (A) (A) (A) (A) (A) (A)
                 (A) (A) (A) (A) (A) (A) (A) (A) (A) (A) (A) (A)
                 (A) (A) (A) (A) (A) (A) (A) (A) (A) (A) (A) (A)
                 (A) (A) (A) (A) (A) (A) (A) (A) (A) (A) (A) (A)
                 (A) (A) (A) (A) (A) (A) (A) (A) (A) (A) (A) (A)
                 (A) (A) (A) (A) (A) (A) (A) (A) (A) (A) (A) (A)
                 (A) (A) (A) (A) (A) (A) (A) (A) (A) (A) (A) (A)
                 (A) (A) (A) (A) (A) (A) (A) (A) (A) (A) (A) (A)
                 (A) (A) (A) (A) (A) (A) (A) (A) (A) (A) (A) (A)
                 (A) (A) (A) (A) (A) (A) (A) (A) (A) (A) (A) (A)
                 (A) (A) (A) (A) (A) (A) (A) (A) (A) (A) (A) (A)
                 (A) (A) (A) (A) (A) (A) (A) (A) (A) (A) (A) (A)
                 (A) (A) (A) (A) (A) (A) (A) (A) (A) (A) (A) (A)
                 (A) (A) (A) (A) (A) (A) (A) (A) (A) (A) (A) (A)
                 (A) (A) (A) (A) (A) (A) (A) (A) (A) (A) (A) (A)
                 (A) (A) (A) (A) (A) (A) (A) (A) (A) (A) (A) (A)
                 (A) (A) (A) (A) (A) (A) (A) (A) (A) (A) (A) (A)
                 (A) (A) (A) (A) (A) (A) (A) (A) (A) (A) (A) (A)
                 (A) (A) (A) (A) (A) (A) (A) (A) (A) (A) (A) (A)
                 (A) (A) (A) (A) (A) (A) (A) (A) (A) (A) (A) (A)
                 (A) (A) (A) (A) (A) (A) (A) (A) (A) (A) (A) (A)
                 (A) (A) (A) (A) (A) (A) (A) (A) (A) (A) (A) (A)
                 (A) (A) (A) (A) (A) (A) (A) (A) (A) (A) (A) (A)
                 (A) (A) (A) (A) (A) (A) (A) (A) (A) (A) (A) (A)
                 (A) (A) (A) (A) (A) (A) (A) (A) (A) (A) (A) (A)
                 (A) (A) (A) (A) (A) (A) (A) (A) (A) (A) (A) (A)
                 (A) (A) (A) (A) (A) (A) (A) (A) (A) (A) (A) (A)
                 (A) (A) (A) (A) (A) (A) (A) (A) (A) (A) (A) (A)
                 (A) (A) (A) (A) (A) (A) (A) (A) (A) (A) (A) (A)
                 (A) (A) (A) (A) (A) (A) (A) (A) (A) (A) (A) (A)
                 (A) (A) (A) (A) (A) (A) (A) (A) (A) (A) (A) (A)
                 (A) (A) (A) (A) (A) (A) (A) (A) (A) (A) (A) (A)
                 (A) (A) (A) (A) (A) (A) (A) (A) (A) (A) (A) (A)
                 (A) (A) (A) (A) (A) (A) (A) (A) (A) (A) (A) (A)
                 (A) (A) (A) (A) (A) (A) (A) (A) (A) (A) (A) (A)
                 (A) (A) (A) (A) (A) (A) (A) (A) (A) (A) (A) (A)
                 (A) (A) (A) (A) (A) (A) (A) (A) (A) (A) (A) (A)
                 (A) (A) (A) (A) (A) (A) (A) (A) (A) (A) (A) (A)
                 (A) (A) (A) (A) (A) (A) (A) (A) (A) (A) (A) (A)
                 (A) (A) (A) (A) (A) (A) (A) (A) (A) (A) (A) (A)
                 (A) (A) (A) (A) (A) (A) (A)
 The electronic state is 5-A.
 Alpha  occ. eigenvalues -- -256.26320 -30.15404 -26.00154 -25.97938 -25.97861
 Alpha  occ. eigenvalues --  -19.17319 -14.44468 -14.38742 -14.35111 -14.34910
 Alpha  occ. eigenvalues --  -14.34303 -14.34231 -10.28080 -10.25692 -10.22855
 Alpha  occ. eigenvalues --  -10.22281 -10.21219 -10.21148 -10.21027 -10.20981
 Alpha  occ. eigenvalues --  -10.20599 -10.20486 -10.20447 -10.20149 -10.19776
 Alpha  occ. eigenvalues --  -10.19335 -10.19153 -10.19013 -10.18963 -10.18835
 Alpha  occ. eigenvalues --  -10.18804 -10.18752 -10.18712 -10.18466 -10.18319
 Alpha  occ. eigenvalues --  -10.18274 -10.18138 -10.17928 -10.17882 -10.17625
 Alpha  occ. eigenvalues --  -10.17527 -10.17344 -10.17289 -10.17242 -10.17107
 Alpha  occ. eigenvalues --  -10.16654  -3.57890  -2.38231  -2.32348  -2.32183
 Alpha  occ. eigenvalues --   -1.06901  -1.04130  -0.96618  -0.95742  -0.95466
 Alpha  occ. eigenvalues --   -0.94622  -0.92672  -0.81397  -0.81321  -0.81065
 Alpha  occ. eigenvalues --   -0.80376  -0.80143  -0.79724  -0.78821  -0.78408
 Alpha  occ. eigenvalues --   -0.76104  -0.74573  -0.73485  -0.73003  -0.72750
 Alpha  occ. eigenvalues --   -0.72484  -0.70098  -0.69128  -0.67912  -0.67344
 Alpha  occ. eigenvalues --   -0.67026  -0.66279  -0.63389  -0.62941  -0.62558
 Alpha  occ. eigenvalues --   -0.60055  -0.59852  -0.59052  -0.57254  -0.56361
 Alpha  occ. eigenvalues --   -0.55938  -0.53626  -0.53389  -0.52504  -0.51631
 Alpha  occ. eigenvalues --   -0.50307  -0.49882  -0.49607  -0.49270  -0.48467
 Alpha  occ. eigenvalues --   -0.47924  -0.47014  -0.46603  -0.45421  -0.45309
 Alpha  occ. eigenvalues --   -0.44480  -0.44321  -0.43948  -0.43708  -0.43643
 Alpha  occ. eigenvalues --   -0.43205  -0.43086  -0.43006  -0.42670  -0.42280
 Alpha  occ. eigenvalues --   -0.42119  -0.41629  -0.41318  -0.41139  -0.40995
 Alpha  occ. eigenvalues --   -0.40934  -0.40659  -0.40084  -0.39998  -0.39692
 Alpha  occ. eigenvalues --   -0.39532  -0.39314  -0.39249  -0.38782  -0.38075
 Alpha  occ. eigenvalues --   -0.37751  -0.37482  -0.37378  -0.37258  -0.36869
 Alpha  occ. eigenvalues --   -0.36603  -0.36276  -0.36100  -0.35948  -0.35736
 Alpha  occ. eigenvalues --   -0.35380  -0.34810  -0.33669  -0.33315  -0.32742
 Alpha  occ. eigenvalues --   -0.32339  -0.31906  -0.31387  -0.30888  -0.30738
 Alpha  occ. eigenvalues --   -0.29696  -0.29120  -0.28139  -0.27780  -0.25752
 Alpha  occ. eigenvalues --   -0.25654  -0.24802  -0.23947  -0.22261  -0.21997
 Alpha  occ. eigenvalues --   -0.21405  -0.20575  -0.17838  -0.17315  -0.09033
 Alpha virt. eigenvalues --   -0.06763  -0.05469  -0.01109   0.00989   0.02353
 Alpha virt. eigenvalues --    0.03894   0.05140   0.06712   0.06802   0.08225
 Alpha virt. eigenvalues --    0.09172   0.09888   0.10678   0.11247   0.11653
 Alpha virt. eigenvalues --    0.11732   0.12303   0.13455   0.13707   0.14016
 Alpha virt. eigenvalues --    0.14279   0.14671   0.14878   0.15514   0.15812
 Alpha virt. eigenvalues --    0.16064   0.16207   0.16337   0.16582   0.16889
 Alpha virt. eigenvalues --    0.17334   0.17514   0.17972   0.18140   0.18563
 Alpha virt. eigenvalues --    0.18631   0.18824   0.19072   0.19359   0.19581
 Alpha virt. eigenvalues --    0.19591   0.19833   0.20058   0.20421   0.20878
 Alpha virt. eigenvalues --    0.21287   0.21572   0.22076   0.22503   0.22580
 Alpha virt. eigenvalues --    0.22675   0.23323   0.23764   0.24312   0.24904
 Alpha virt. eigenvalues --    0.25516   0.25809   0.26008   0.26689   0.27224
 Alpha virt. eigenvalues --    0.27828   0.27977   0.28295   0.28422   0.30326
 Alpha virt. eigenvalues --    0.30923   0.31091   0.31528   0.32377   0.32704
 Alpha virt. eigenvalues --    0.33991   0.34148   0.35406   0.35570   0.35926
 Alpha virt. eigenvalues --    0.36701   0.37281   0.37599   0.37861   0.39219
 Alpha virt. eigenvalues --    0.39950   0.41109   0.42021   0.42473   0.43012
 Alpha virt. eigenvalues --    0.44633   0.44981   0.45176   0.45910   0.46771
 Alpha virt. eigenvalues --    0.48366   0.48840   0.48990   0.49478   0.50188
 Alpha virt. eigenvalues --    0.50433   0.50846   0.51195   0.51727   0.52740
 Alpha virt. eigenvalues --    0.52790   0.52911   0.53476   0.53578   0.53859
 Alpha virt. eigenvalues --    0.54018   0.54333   0.54560   0.55195   0.55448
 Alpha virt. eigenvalues --    0.55902   0.56362   0.56959   0.57067   0.57806
 Alpha virt. eigenvalues --    0.57907   0.59177   0.59525   0.59785   0.59984
 Alpha virt. eigenvalues --    0.60634   0.61561   0.61677   0.61806   0.62212
 Alpha virt. eigenvalues --    0.62876   0.63433   0.63637   0.64087   0.64548
 Alpha virt. eigenvalues --    0.64709   0.65331   0.65509   0.65859   0.66010
 Alpha virt. eigenvalues --    0.66396   0.66830   0.67248   0.67305   0.67593
 Alpha virt. eigenvalues --    0.67753   0.68032   0.68886   0.69122   0.69675
 Alpha virt. eigenvalues --    0.70066   0.70593   0.71367   0.71793   0.72177
 Alpha virt. eigenvalues --    0.72601   0.72907   0.73280   0.73911   0.73995
 Alpha virt. eigenvalues --    0.74729   0.75278   0.75625   0.76246   0.76986
 Alpha virt. eigenvalues --    0.77286   0.77732   0.78035   0.78278   0.78858
 Alpha virt. eigenvalues --    0.79132   0.79621   0.79913   0.80079   0.80567
 Alpha virt. eigenvalues --    0.80887   0.81215   0.82081   0.82480   0.82603
 Alpha virt. eigenvalues --    0.83319   0.84243   0.84557   0.85209   0.85321
 Alpha virt. eigenvalues --    0.85758   0.87004   0.87532   0.87884   0.88033
 Alpha virt. eigenvalues --    0.88226   0.88702   0.88986   0.89356   0.89600
 Alpha virt. eigenvalues --    0.89887   0.89977   0.90435   0.90582   0.90917
 Alpha virt. eigenvalues --    0.91006   0.91927   0.92529   0.92739   0.92868
 Alpha virt. eigenvalues --    0.93522   0.93920   0.94092   0.94172   0.94463
 Alpha virt. eigenvalues --    0.95111   0.95269   0.96187   0.96739   0.96842
 Alpha virt. eigenvalues --    0.96956   0.97666   0.97984   0.98835   0.99400
 Alpha virt. eigenvalues --    0.99539   0.99874   1.00056   1.00512   1.00869
 Alpha virt. eigenvalues --    1.01108   1.01400   1.01568   1.02405   1.02640
 Alpha virt. eigenvalues --    1.03891   1.04100   1.04305   1.04940   1.05137
 Alpha virt. eigenvalues --    1.06372   1.06803   1.07149   1.07436   1.08306
 Alpha virt. eigenvalues --    1.08769   1.09605   1.10079   1.10565   1.11635
 Alpha virt. eigenvalues --    1.12306   1.14072   1.14686   1.15473   1.16531
 Alpha virt. eigenvalues --    1.16670   1.17752   1.18141   1.18400   1.19105
 Alpha virt. eigenvalues --    1.19276   1.19553   1.19850   1.20212   1.21587
 Alpha virt. eigenvalues --    1.21650   1.22457   1.22890   1.23032   1.23733
 Alpha virt. eigenvalues --    1.24482   1.25087   1.26138   1.26956   1.27365
 Alpha virt. eigenvalues --    1.28146   1.28666   1.29715   1.30725   1.31040
 Alpha virt. eigenvalues --    1.32199   1.33232   1.34135   1.34397   1.34833
 Alpha virt. eigenvalues --    1.35050   1.35581   1.37054   1.37404   1.38126
 Alpha virt. eigenvalues --    1.38631   1.38789   1.39106   1.39436   1.39689
 Alpha virt. eigenvalues --    1.40009   1.40307   1.41215   1.41774   1.42464
 Alpha virt. eigenvalues --    1.43384   1.45066   1.45729   1.46287   1.47131
 Alpha virt. eigenvalues --    1.47278   1.48270   1.48838   1.49977   1.50552
 Alpha virt. eigenvalues --    1.50654   1.52024   1.52355   1.52833   1.54085
 Alpha virt. eigenvalues --    1.54796   1.55529   1.56017   1.56962   1.58114
 Alpha virt. eigenvalues --    1.58572   1.59389   1.60169   1.61911   1.62512
 Alpha virt. eigenvalues --    1.62734   1.64973   1.65446   1.65888   1.66611
 Alpha virt. eigenvalues --    1.67588   1.68385   1.69816   1.70613   1.71045
 Alpha virt. eigenvalues --    1.71522   1.73342   1.73874   1.74658   1.76218
 Alpha virt. eigenvalues --    1.76976   1.80150   1.80429   1.81228   1.81835
 Alpha virt. eigenvalues --    1.82020   1.82179   1.82507   1.83029   1.83427
 Alpha virt. eigenvalues --    1.83916   1.84504   1.84654   1.85314   1.85909
 Alpha virt. eigenvalues --    1.86339   1.86897   1.88154   1.88447   1.88929
 Alpha virt. eigenvalues --    1.89237   1.89832   1.90089   1.91829   1.92401
 Alpha virt. eigenvalues --    1.93254   1.93947   1.94420   1.94960   1.95489
 Alpha virt. eigenvalues --    1.96012   1.96451   1.96875   1.97496   1.97569
 Alpha virt. eigenvalues --    1.98877   1.99793   2.00333   2.00969   2.01754
 Alpha virt. eigenvalues --    2.01885   2.02545   2.04047   2.04932   2.05261
 Alpha virt. eigenvalues --    2.06097   2.06242   2.06565   2.07028   2.07583
 Alpha virt. eigenvalues --    2.08246   2.08599   2.09991   2.10686   2.11033
 Alpha virt. eigenvalues --    2.11347   2.12738   2.12986   2.14147   2.14282
 Alpha virt. eigenvalues --    2.15780   2.16651   2.17360   2.17785   2.19549
 Alpha virt. eigenvalues --    2.20084   2.20741   2.21106   2.21613   2.22346
 Alpha virt. eigenvalues --    2.22839   2.24030   2.24159   2.24571   2.25334
 Alpha virt. eigenvalues --    2.26089   2.26378   2.27179   2.27491   2.27914
 Alpha virt. eigenvalues --    2.28535   2.29285   2.29660   2.30354   2.30896
 Alpha virt. eigenvalues --    2.31240   2.31657   2.31919   2.32713   2.33223
 Alpha virt. eigenvalues --    2.33654   2.34629   2.35423   2.35737   2.36288
 Alpha virt. eigenvalues --    2.36564   2.36646   2.37590   2.37798   2.38432
 Alpha virt. eigenvalues --    2.38852   2.39288   2.39676   2.41183   2.41528
 Alpha virt. eigenvalues --    2.42115   2.42401   2.43169   2.43824   2.43919
 Alpha virt. eigenvalues --    2.44754   2.45138   2.46416   2.46941   2.47714
 Alpha virt. eigenvalues --    2.49041   2.50260   2.50655   2.51975   2.53630
 Alpha virt. eigenvalues --    2.54032   2.54363   2.54786   2.55255   2.56421
 Alpha virt. eigenvalues --    2.56812   2.57274   2.57919   2.58134   2.59117
 Alpha virt. eigenvalues --    2.60814   2.61016   2.62063   2.62583   2.63659
 Alpha virt. eigenvalues --    2.65092   2.66959   2.68302   2.70236   2.70571
 Alpha virt. eigenvalues --    2.71401   2.72162   2.73237   2.73760   2.74768
 Alpha virt. eigenvalues --    2.76035   2.77708   2.78911   2.80118   2.80861
 Alpha virt. eigenvalues --    2.82517   2.83536   2.87119   2.89239   2.89880
 Alpha virt. eigenvalues --    2.90819   2.93226   2.94274   2.95100   2.97493
 Alpha virt. eigenvalues --    2.98550   2.98788   3.00824   3.01489   3.01895
 Alpha virt. eigenvalues --    3.02555   3.03895   3.06055   3.06935   3.08523
 Alpha virt. eigenvalues --    3.14456   3.14624   3.16029   3.20439   3.24879
 Alpha virt. eigenvalues --    3.26408   3.30472   3.32354   3.40873   3.41101
 Alpha virt. eigenvalues --    3.42372   3.48279   3.48466   3.57394   3.61343
 Alpha virt. eigenvalues --    3.78756   3.85534   4.12750   4.16920
  Beta  occ. eigenvalues -- -256.26210 -30.09109 -25.93754 -25.93627 -25.92792
  Beta  occ. eigenvalues --  -19.17179 -14.44451 -14.38486 -14.35215 -14.35014
  Beta  occ. eigenvalues --  -14.34176 -14.34121 -10.28045 -10.25685 -10.22841
  Beta  occ. eigenvalues --  -10.22278 -10.21267 -10.21183 -10.20990 -10.20952
  Beta  occ. eigenvalues --  -10.20515 -10.20344 -10.20287 -10.20086 -10.19790
  Beta  occ. eigenvalues --  -10.19376 -10.19169 -10.18980 -10.18961 -10.18804
  Beta  occ. eigenvalues --  -10.18785 -10.18756 -10.18750 -10.18473 -10.18291
  Beta  occ. eigenvalues --  -10.18287 -10.18059 -10.17836 -10.17793 -10.17554
  Beta  occ. eigenvalues --  -10.17338 -10.17261 -10.17251 -10.17208 -10.16920
  Beta  occ. eigenvalues --  -10.16414  -3.42889  -2.19503  -2.19269  -2.15990
  Beta  occ. eigenvalues --   -1.06739  -1.03898  -0.96448  -0.95570  -0.95316
  Beta  occ. eigenvalues --   -0.94464  -0.92382  -0.81331  -0.81204  -0.80856
  Beta  occ. eigenvalues --   -0.80266  -0.79989  -0.79570  -0.78661  -0.78084
  Beta  occ. eigenvalues --   -0.76006  -0.74405  -0.73392  -0.72914  -0.72398
  Beta  occ. eigenvalues --   -0.72378  -0.70008  -0.68991  -0.67856  -0.67273
  Beta  occ. eigenvalues --   -0.66894  -0.66011  -0.63132  -0.62779  -0.62460
  Beta  occ. eigenvalues --   -0.59964  -0.59718  -0.58901  -0.57114  -0.56199
  Beta  occ. eigenvalues --   -0.55724  -0.53512  -0.53334  -0.52379  -0.51442
  Beta  occ. eigenvalues --   -0.50208  -0.49797  -0.49508  -0.48909  -0.48310
  Beta  occ. eigenvalues --   -0.47710  -0.46904  -0.46425  -0.45224  -0.44574
  Beta  occ. eigenvalues --   -0.44122  -0.43948  -0.43615  -0.43357  -0.43165
  Beta  occ. eigenvalues --   -0.43020  -0.42816  -0.42591  -0.42455  -0.42175
  Beta  occ. eigenvalues --   -0.41596  -0.41179  -0.41064  -0.40968  -0.40859
  Beta  occ. eigenvalues --   -0.40528  -0.40162  -0.39580  -0.39470  -0.39105
  Beta  occ. eigenvalues --   -0.38751  -0.38509  -0.38397  -0.37843  -0.37700
  Beta  occ. eigenvalues --   -0.37206  -0.36954  -0.36797  -0.36523  -0.36411
  Beta  occ. eigenvalues --   -0.35967  -0.35883  -0.35325  -0.34581  -0.34382
  Beta  occ. eigenvalues --   -0.33635  -0.33166  -0.32534  -0.32438  -0.32072
  Beta  occ. eigenvalues --   -0.31026  -0.30032  -0.29831  -0.29431  -0.27896
  Beta  occ. eigenvalues --   -0.27503  -0.25194  -0.24838  -0.24621  -0.24241
  Beta  occ. eigenvalues --   -0.22302  -0.22101  -0.21279  -0.20208  -0.16643
  Beta  occ. eigenvalues --   -0.16144
  Beta virt. eigenvalues --   -0.07391  -0.06988  -0.03711  -0.02974  -0.00778
  Beta virt. eigenvalues --    0.00104   0.01477   0.01669   0.02912   0.04637
  Beta virt. eigenvalues --    0.05771   0.06948   0.07603   0.08445   0.10103
  Beta virt. eigenvalues --    0.10439   0.10727   0.11285   0.11690   0.12181
  Beta virt. eigenvalues --    0.12474   0.13558   0.13754   0.14068   0.14519
  Beta virt. eigenvalues --    0.14829   0.15070   0.15901   0.16052   0.16392
  Beta virt. eigenvalues --    0.16433   0.16744   0.16899   0.16946   0.17344
  Beta virt. eigenvalues --    0.17619   0.18082   0.18440   0.18702   0.18773
  Beta virt. eigenvalues --    0.18990   0.19376   0.19501   0.19697   0.19793
  Beta virt. eigenvalues --    0.20147   0.20288   0.20600   0.21029   0.21437
  Beta virt. eigenvalues --    0.21640   0.22141   0.22698   0.22799   0.22919
  Beta virt. eigenvalues --    0.23393   0.23873   0.24499   0.25017   0.25601
  Beta virt. eigenvalues --    0.25936   0.26183   0.26863   0.27346   0.27967
  Beta virt. eigenvalues --    0.28101   0.28452   0.28585   0.30515   0.31332
  Beta virt. eigenvalues --    0.31767   0.32555   0.32827   0.33013   0.34376
  Beta virt. eigenvalues --    0.34411   0.35701   0.35824   0.36182   0.36930
  Beta virt. eigenvalues --    0.37448   0.37755   0.38028   0.39449   0.40721
  Beta virt. eigenvalues --    0.41387   0.42437   0.42821   0.43944   0.44823
  Beta virt. eigenvalues --    0.45178   0.45346   0.46106   0.47264   0.48550
  Beta virt. eigenvalues --    0.49046   0.49180   0.49760   0.50399   0.50536
  Beta virt. eigenvalues --    0.51040   0.51401   0.51941   0.52951   0.52993
  Beta virt. eigenvalues --    0.53170   0.53655   0.53771   0.54100   0.54205
  Beta virt. eigenvalues --    0.54498   0.54686   0.55589   0.55823   0.56255
  Beta virt. eigenvalues --    0.56521   0.57263   0.57373   0.57990   0.58183
  Beta virt. eigenvalues --    0.59338   0.59831   0.60105   0.60317   0.60984
  Beta virt. eigenvalues --    0.61784   0.61845   0.62036   0.62513   0.63305
  Beta virt. eigenvalues --    0.63653   0.63906   0.64279   0.64810   0.64978
  Beta virt. eigenvalues --    0.65663   0.65852   0.66095   0.66315   0.66660
  Beta virt. eigenvalues --    0.67150   0.67502   0.67706   0.67839   0.67987
  Beta virt. eigenvalues --    0.68242   0.69176   0.69435   0.69900   0.70465
  Beta virt. eigenvalues --    0.70774   0.71645   0.72110   0.72472   0.72813
  Beta virt. eigenvalues --    0.73098   0.73559   0.74244   0.74458   0.74906
  Beta virt. eigenvalues --    0.75658   0.75912   0.76407   0.77175   0.77469
  Beta virt. eigenvalues --    0.77904   0.78248   0.78439   0.79129   0.79384
  Beta virt. eigenvalues --    0.79758   0.80189   0.80418   0.81001   0.81123
  Beta virt. eigenvalues --    0.81708   0.82532   0.82686   0.82998   0.83655
  Beta virt. eigenvalues --    0.84500   0.84854   0.85371   0.85637   0.85933
  Beta virt. eigenvalues --    0.87155   0.87613   0.87992   0.88185   0.88356
  Beta virt. eigenvalues --    0.88794   0.89107   0.89484   0.89795   0.89961
  Beta virt. eigenvalues --    0.90120   0.90535   0.90675   0.91090   0.91144
  Beta virt. eigenvalues --    0.92140   0.92612   0.92890   0.93075   0.93627
  Beta virt. eigenvalues --    0.94138   0.94292   0.94355   0.94613   0.95253
  Beta virt. eigenvalues --    0.95363   0.96408   0.96938   0.97266   0.97363
  Beta virt. eigenvalues --    0.97980   0.98130   0.99108   0.99573   0.99668
  Beta virt. eigenvalues --    1.00044   1.00323   1.00656   1.01026   1.01316
  Beta virt. eigenvalues --    1.01705   1.02015   1.02564   1.02784   1.04118
  Beta virt. eigenvalues --    1.04528   1.04710   1.05036   1.05515   1.06623
  Beta virt. eigenvalues --    1.07020   1.07358   1.07771   1.08550   1.09106
  Beta virt. eigenvalues --    1.10010   1.10539   1.10903   1.11789   1.12719
  Beta virt. eigenvalues --    1.14325   1.14904   1.15734   1.16837   1.17333
  Beta virt. eigenvalues --    1.18129   1.18338   1.18976   1.19246   1.19563
  Beta virt. eigenvalues --    1.19964   1.20112   1.21364   1.21789   1.21841
  Beta virt. eigenvalues --    1.22684   1.23069   1.23281   1.23973   1.24676
  Beta virt. eigenvalues --    1.25605   1.26898   1.27163   1.27738   1.28512
  Beta virt. eigenvalues --    1.28915   1.30028   1.30978   1.31203   1.32487
  Beta virt. eigenvalues --    1.33448   1.34410   1.34641   1.35123   1.35248
  Beta virt. eigenvalues --    1.35866   1.37290   1.37557   1.38265   1.38847
  Beta virt. eigenvalues --    1.39008   1.39308   1.39804   1.40011   1.40278
  Beta virt. eigenvalues --    1.40702   1.41584   1.42101   1.42766   1.43600
  Beta virt. eigenvalues --    1.45305   1.45978   1.46645   1.47335   1.47557
  Beta virt. eigenvalues --    1.48440   1.49098   1.50292   1.50781   1.50943
  Beta virt. eigenvalues --    1.52179   1.52618   1.53318   1.54264   1.55014
  Beta virt. eigenvalues --    1.55682   1.56223   1.57139   1.58402   1.58768
  Beta virt. eigenvalues --    1.59570   1.60412   1.62249   1.62750   1.63091
  Beta virt. eigenvalues --    1.65343   1.65780   1.66496   1.66927   1.67834
  Beta virt. eigenvalues --    1.68814   1.69985   1.70760   1.71255   1.71877
  Beta virt. eigenvalues --    1.73581   1.74178   1.74886   1.76720   1.77273
  Beta virt. eigenvalues --    1.80256   1.80603   1.81387   1.81999   1.82151
  Beta virt. eigenvalues --    1.82370   1.82718   1.83269   1.83600   1.84041
  Beta virt. eigenvalues --    1.84714   1.84852   1.85484   1.86123   1.86509
  Beta virt. eigenvalues --    1.87010   1.88228   1.88536   1.89146   1.89310
  Beta virt. eigenvalues --    1.90006   1.90296   1.92021   1.92561   1.93506
  Beta virt. eigenvalues --    1.94216   1.94717   1.95268   1.96008   1.96723
  Beta virt. eigenvalues --    1.96875   1.97547   1.97815   1.97969   1.99875
  Beta virt. eigenvalues --    1.99992   2.00769   2.01417   2.01981   2.02062
  Beta virt. eigenvalues --    2.03328   2.04214   2.05195   2.05510   2.06331
  Beta virt. eigenvalues --    2.06506   2.06744   2.07303   2.07955   2.08579
  Beta virt. eigenvalues --    2.09079   2.10377   2.10933   2.11327   2.11723
  Beta virt. eigenvalues --    2.13231   2.13531   2.14252   2.14421   2.16161
  Beta virt. eigenvalues --    2.16773   2.17551   2.18021   2.19851   2.20595
  Beta virt. eigenvalues --    2.21056   2.21304   2.21802   2.22569   2.23416
  Beta virt. eigenvalues --    2.24245   2.24645   2.24902   2.25642   2.26483
  Beta virt. eigenvalues --    2.26697   2.27425   2.27794   2.28147   2.28808
  Beta virt. eigenvalues --    2.29524   2.29878   2.30579   2.31196   2.31743
  Beta virt. eigenvalues --    2.31869   2.32104   2.33327   2.33486   2.34517
  Beta virt. eigenvalues --    2.34827   2.35794   2.36541   2.36771   2.37038
  Beta virt. eigenvalues --    2.37069   2.37743   2.38056   2.38841   2.39333
  Beta virt. eigenvalues --    2.39658   2.39977   2.41686   2.41969   2.42521
  Beta virt. eigenvalues --    2.42658   2.43499   2.44145   2.44297   2.45011
  Beta virt. eigenvalues --    2.45635   2.46705   2.47379   2.47778   2.49540
  Beta virt. eigenvalues --    2.50782   2.51334   2.52653   2.53883   2.54415
  Beta virt. eigenvalues --    2.54926   2.55251   2.55492   2.56588   2.57094
  Beta virt. eigenvalues --    2.57845   2.58110   2.58653   2.59449   2.61137
  Beta virt. eigenvalues --    2.61418   2.62406   2.62984   2.63996   2.65316
  Beta virt. eigenvalues --    2.67123   2.68644   2.70646   2.70989   2.71899
  Beta virt. eigenvalues --    2.72570   2.73531   2.74070   2.74951   2.76404
  Beta virt. eigenvalues --    2.77850   2.79041   2.80248   2.81235   2.82639
  Beta virt. eigenvalues --    2.83674   2.87325   2.89410   2.90168   2.90976
  Beta virt. eigenvalues --    2.93474   2.94554   2.95301   2.97564   2.98720
  Beta virt. eigenvalues --    2.98877   3.00900   3.01698   3.02196   3.02753
  Beta virt. eigenvalues --    3.04533   3.06140   3.07295   3.08585   3.14544
  Beta virt. eigenvalues --    3.14688   3.16143   3.20479   3.25025   3.26680
  Beta virt. eigenvalues --    3.30515   3.32490   3.40938   3.41172   3.42664
  Beta virt. eigenvalues --    3.48395   3.48693   3.68223   3.71924   3.87056
  Beta virt. eigenvalues --    3.90105   4.19030   4.22641
          Condensed to atoms (all electrons):
          Atomic-Atomic Spin Densities.
 Mulliken charges and spin densities:
               1          2
     1  Fe   1.029779   2.927535
     2  N   -0.689876  -0.065485
     3  N   -0.687145   0.046059
     4  N   -0.691036  -0.064140
     5  N   -0.687297   0.038240
     6  C    0.299023   0.045360
     7  C    0.021985   0.086507
     8  C    0.027795   0.046310
     9  C    0.273336   0.100062
    10  C    0.301482   0.032932
    11  C    0.028654  -0.029020
    12  C   -0.010039   0.034752
    13  C    0.327956  -0.030496
    14  C    0.303739   0.028710
    15  C    0.023230   0.129932
    16  C   -0.009473   0.048743
    17  C    0.294422   0.087746
    18  C    0.305609   0.026423
    19  C    0.034912  -0.013075
    20  C    0.030715   0.023086
    21  C    0.330089  -0.020484
    22  C   -0.337632   0.133171
    23  H    0.151401  -0.007094
    24  C   -0.338261   0.029344
    25  H    0.154734  -0.002208
    26  C   -0.334085   0.169089
    27  H    0.165468  -0.008575
    28  C   -0.331204   0.046447
    29  H    0.159359  -0.002985
    30  C   -0.606635  -0.005942
    31  H    0.180443  -0.000266
    32  H    0.180274   0.003247
    33  H    0.185940   0.002610
    34  C   -0.606327  -0.009535
    35  H    0.185353   0.004847
    36  H    0.182389   0.004792
    37  H    0.178080  -0.000139
    38  C   -0.599607   0.002144
    39  H    0.189626  -0.000044
    40  H    0.186467  -0.000563
    41  H    0.183565  -0.000329
    42  C   -0.154781  -0.010823
    43  H    0.162945   0.000746
    44  C   -0.401402   0.018821
    45  H    0.178626  -0.000068
    46  H    0.163272  -0.001089
    47  C   -0.609562  -0.012676
    48  H    0.183317   0.003298
    49  H    0.178766   0.008194
    50  H    0.189533   0.000905
    51  C   -0.147333  -0.028807
    52  H    0.157813   0.002071
    53  C   -0.412583   0.059515
    54  H    0.168465  -0.003084
    55  H    0.157718  -0.003275
    56  C   -0.606604   0.000768
    57  H    0.192508   0.000129
    58  H    0.187678   0.000633
    59  H    0.181766  -0.000279
    60  C   -0.607008  -0.002403
    61  H    0.181113  -0.000142
    62  H    0.187205   0.002368
    63  H    0.190633   0.001834
    64  O   -0.817837   0.022514
    65  H    0.464222   0.001483
    66  H    0.449381   0.002868
    67  C   -0.601974   0.001007
    68  H    0.200488   0.000059
    69  H    0.195873   0.000097
    70  H    0.215695   0.000040
    71  N   -0.634655   0.005083
    72  H    0.370371   0.001834
    73  C    0.276465   0.002508
    74  C    0.260875   0.014526
    75  H    0.235533   0.000269
    76  N   -0.504578   0.069536
    77  C   -0.034112   0.002466
    78  H    0.214960   0.001365
 Sum of Mulliken charges =  -0.00000   4.00000
 Mulliken charges and spin densities with hydrogens summed into heavy atoms:
               1          2
     1  Fe   1.029779   2.927535
     2  N   -0.689876  -0.065485
     3  N   -0.687145   0.046059
     4  N   -0.691036  -0.064140
     5  N   -0.687297   0.038240
     6  C    0.299023   0.045360
     7  C    0.021985   0.086507
     8  C    0.027795   0.046310
     9  C    0.273336   0.100062
    10  C    0.301482   0.032932
    11  C    0.028654  -0.029020
    12  C   -0.010039   0.034752
    13  C    0.327956  -0.030496
    14  C    0.303739   0.028710
    15  C    0.023230   0.129932
    16  C   -0.009473   0.048743
    17  C    0.294422   0.087746
    18  C    0.305609   0.026423
    19  C    0.034912  -0.013075
    20  C    0.030715   0.023086
    21  C    0.330089  -0.020484
    22  C   -0.186231   0.126077
    24  C   -0.183527   0.027136
    26  C   -0.168617   0.160514
    28  C   -0.171845   0.043463
    30  C   -0.059978  -0.000351
    34  C   -0.060505  -0.000035
    38  C   -0.039950   0.001208
    42  C    0.008163  -0.010077
    44  C   -0.059504   0.017665
    47  C   -0.057945  -0.000279
    51  C    0.010480  -0.026736
    53  C   -0.086400   0.053155
    56  C   -0.044652   0.001251
    60  C   -0.048056   0.001657
    64  O    0.095765   0.026865
    67  C    0.010084   0.001203
    71  N   -0.264285   0.006918
    73  C    0.276465   0.002508
    74  C    0.496408   0.014795
    76  N   -0.504578   0.069536
    77  C    0.180848   0.003831
 Electronic spatial extent (au):  <R**2>=          19794.4838
 Charge=             -0.0000 electrons
 Dipole moment (field-independent basis, Debye):
    X=              2.7866    Y=              0.0039    Z=              4.9835  Tot=              5.7097
 Quadrupole moment (field-independent basis, Debye-Ang):
   XX=           -251.5851   YY=           -237.4271   ZZ=           -215.0635
   XY=              3.3846   XZ=              1.3904   YZ=              1.0393
 Traceless Quadrupole moment (field-independent basis, Debye-Ang):
   XX=            -16.8932   YY=             -2.7352   ZZ=             19.6284
   XY=              3.3846   XZ=              1.3904   YZ=              1.0393
 Octapole moment (field-independent basis, Debye-Ang**2):
  XXX=             55.9996  YYY=            -14.3522  ZZZ=            115.8881  XYY=             10.9723
  XXY=             12.1404  XXZ=              9.3842  XZZ=             33.1013  YZZ=              1.2080
  YYZ=             -1.6859  XYZ=              2.8098
 Hexadecapole moment (field-independent basis, Debye-Ang**3):
 XXXX=         -12023.2877 YYYY=         -10896.3341 ZZZZ=          -2667.7322 XXXY=            -41.0792
 XXXZ=            -97.4519 YYYX=             -2.1902 YYYZ=            -44.3357 ZZZX=             76.4569
 ZZZY=              6.6581 XXYY=          -3798.7579 XXZZ=          -2623.2717 YYZZ=          -2525.5154
 XXYZ=             51.8992 YYXZ=              6.3672 ZZXY=             58.5060
 N-N= 5.974718369233D+03 E-N=-1.895940322520D+04  KE= 2.972773540276D+03
                          Isotropic Fermi Contact Couplings
        Atom                 a.u.       MegaHertz       Gauss      10(-4) cm-1
     1  Fe(57)             0.39797      14.43049       5.14916       4.81349
     2  N(14)             -0.02995      -2.41899      -0.86316      -0.80689
     3  N(14)             -0.01376      -1.11156      -0.39663      -0.37078
     4  N(14)             -0.03122      -2.52208      -0.89994      -0.84127
     5  N(14)             -0.01605      -1.29640      -0.46259      -0.43243
     6  C(13)              0.00206       0.57961       0.20682       0.19334
     7  C(13)              0.01009       2.83592       1.01193       0.94596
     8  C(13)              0.00350       0.98226       0.35050       0.32765
     9  C(13)              0.01092       3.06784       1.09468       1.02332
    10  C(13)             -0.00089      -0.24947      -0.08902      -0.08321
    11  C(13)             -0.00604      -1.69747      -0.60570      -0.56621
    12  C(13)              0.00439       1.23443       0.44048       0.41176
    13  C(13)             -0.01128      -3.16910      -1.13081      -1.05710
    14  C(13)             -0.00123      -0.34655      -0.12366      -0.11560
    15  C(13)              0.01584       4.45075       1.58814       1.48461
    16  C(13)              0.00343       0.96327       0.34372       0.32131
    17  C(13)              0.00881       2.47571       0.88340       0.82581
    18  C(13)             -0.00174      -0.48801      -0.17414      -0.16278
    19  C(13)             -0.00364      -1.02164      -0.36455      -0.34078
    20  C(13)              0.00251       0.70657       0.25212       0.23569
    21  C(13)             -0.00957      -2.68982      -0.95979      -0.89723
    22  C(13)              0.01702       4.78271       1.70659       1.59534
    23  H(1)              -0.00222      -2.48570      -0.88696      -0.82914
    24  C(13)              0.00261       0.73361       0.26177       0.24471
    25  H(1)              -0.00071      -0.79760      -0.28460      -0.26605
    26  C(13)              0.02252       6.32963       2.25857       2.11134
    27  H(1)              -0.00278      -3.10148      -1.10668      -1.03454
    28  C(13)              0.00509       1.42913       0.50995       0.47671
    29  H(1)              -0.00088      -0.97996      -0.34967      -0.32688
    30  C(13)             -0.00234      -0.65800      -0.23479      -0.21948
    31  H(1)              -0.00012      -0.13529      -0.04827      -0.04513
    32  H(1)               0.00153       1.71139       0.61067       0.57086
    33  H(1)               0.00133       1.48070       0.52835       0.49391
    34  C(13)             -0.00362      -1.01697      -0.36288      -0.33923
    35  H(1)               0.00204       2.28070       0.81381       0.76076
    36  H(1)               0.00204       2.27446       0.81158       0.75868
    37  H(1)              -0.00008      -0.08609      -0.03072      -0.02872
    38  C(13)              0.00063       0.17566       0.06268       0.05859
    39  H(1)              -0.00035      -0.38833      -0.13857      -0.12953
    40  H(1)              -0.00048      -0.53885      -0.19227      -0.17974
    41  H(1)              -0.00014      -0.15919      -0.05680      -0.05310
    42  C(13)             -0.00240      -0.67393      -0.24048      -0.22480
    43  H(1)               0.00039       0.43062       0.15366       0.14364
    44  C(13)              0.00247       0.69556       0.24819       0.23201
    45  H(1)              -0.00030      -0.33165      -0.11834      -0.11063
    46  H(1)              -0.00032      -0.35484      -0.12661      -0.11836
    47  C(13)             -0.00476      -1.33919      -0.47785      -0.44670
    48  H(1)               0.00120       1.33894       0.47777       0.44662
    49  H(1)               0.00374       4.17736       1.49059       1.39342
    50  H(1)               0.00074       0.82994       0.29614       0.27684
    51  C(13)             -0.00593      -1.66581      -0.59440      -0.55565
    52  H(1)               0.00075       0.84273       0.30071       0.28110
    53  C(13)              0.00809       2.27359       0.81127       0.75839
    54  H(1)              -0.00092      -1.02723      -0.36654      -0.34265
    55  H(1)              -0.00098      -1.09859      -0.39200      -0.36645
    56  C(13)              0.00022       0.06183       0.02206       0.02063
    57  H(1)              -0.00015      -0.17245      -0.06153      -0.05752
    58  H(1)              -0.00013      -0.13977      -0.04987      -0.04662
    59  H(1)              -0.00013      -0.14209      -0.05070      -0.04740
    60  C(13)             -0.00093      -0.26091      -0.09310      -0.08703
    61  H(1)              -0.00008      -0.08881      -0.03169      -0.02962
    62  H(1)               0.00040       0.44960       0.16043       0.14997
    63  H(1)               0.00045       0.50233       0.17925       0.16756
    64  O(17)              0.08805     -13.34401      -4.76147      -4.45108
    65  H(1)              -0.00006      -0.07064      -0.02521      -0.02356
    66  H(1)               0.00099       1.11137       0.39656       0.37071
    67  C(13)              0.00073       0.20547       0.07332       0.06854
    68  H(1)               0.00004       0.04970       0.01773       0.01658
    69  H(1)               0.00007       0.07695       0.02746       0.02567
    70  H(1)               0.00004       0.04468       0.01594       0.01490
    71  N(14)              0.00914       0.73828       0.26344       0.24626
    72  H(1)               0.00061       0.68075       0.24291       0.22707
    73  C(13)              0.00398       1.11809       0.39896       0.37295
    74  C(13)              0.00840       2.36191       0.84279       0.78785
    75  H(1)               0.00006       0.06462       0.02306       0.02155
    76  N(14)              0.14594      11.78833       4.20637       3.93216
    77  C(13)              0.00344       0.96796       0.34539       0.32288
    78  H(1)               0.00041       0.45590       0.16268       0.15207
 --------------------------------------------------------
       Center         ----  Spin Dipole Couplings  ----
                      3XX-RR        3YY-RR        3ZZ-RR
 --------------------------------------------------------
     1   Atom       -2.386521     -2.570448      4.956968
     2   Atom        0.039115     -0.008587     -0.030527
     3   Atom       -0.116643     -0.094464      0.211107
     4   Atom        0.029424     -0.009826     -0.019599
     5   Atom       -0.113560     -0.085327      0.198887
     6   Atom       -0.015315     -0.044564      0.059879
     7   Atom       -0.043619     -0.057271      0.100890
     8   Atom       -0.027812     -0.036597      0.064409
     9   Atom       -0.040356     -0.067312      0.107669
    10   Atom       -0.025017      0.001165      0.023852
    11   Atom        0.006875      0.019061     -0.025935
    12   Atom       -0.021096     -0.009390      0.030486
    13   Atom        0.008541      0.020977     -0.029518
    14   Atom       -0.009370     -0.037655      0.047025
    15   Atom       -0.060380     -0.078426      0.138806
    16   Atom       -0.029053     -0.036977      0.066030
    17   Atom       -0.034560     -0.061338      0.095898
    18   Atom       -0.023567      0.004187      0.019380
    19   Atom       -0.000925      0.011869     -0.010944
    20   Atom       -0.017174     -0.005267      0.022440
    21   Atom        0.003573      0.018393     -0.021966
    22   Atom       -0.060148     -0.064720      0.124867
    23   Atom        0.006525     -0.000122     -0.006403
    24   Atom       -0.017254     -0.013005      0.030259
    25   Atom        0.002091      0.004309     -0.006400
    26   Atom       -0.076622     -0.080609      0.157232
    27   Atom        0.006535      0.000480     -0.007016
    28   Atom       -0.024077     -0.021208      0.045285
    29   Atom        0.001838      0.004633     -0.006471
    30   Atom        0.004944     -0.001664     -0.003280
    31   Atom        0.004871     -0.001963     -0.002907
    32   Atom        0.003683     -0.000085     -0.003598
    33   Atom        0.003081     -0.000163     -0.002917
    34   Atom        0.006694     -0.003011     -0.003683
    35   Atom        0.004862     -0.001588     -0.003274
    36   Atom        0.005533     -0.001693     -0.003840
    37   Atom        0.005962     -0.002929     -0.003032
    38   Atom       -0.002155      0.005208     -0.003052
    39   Atom       -0.001953      0.004744     -0.002792
    40   Atom       -0.001869      0.004569     -0.002700
    41   Atom       -0.001788      0.004028     -0.002239
    42   Atom       -0.000298      0.007567     -0.007269
    43   Atom       -0.001560      0.003984     -0.002424
    44   Atom        0.002094      0.000751     -0.002845
    45   Atom       -0.001736      0.003466     -0.001730
    46   Atom       -0.000311      0.002673     -0.002362
    47   Atom        0.006392     -0.003167     -0.003225
    48   Atom        0.004737     -0.000687     -0.004050
    49   Atom        0.006070     -0.002171     -0.003898
    50   Atom        0.005973     -0.002663     -0.003311
    51   Atom        0.016289      0.001043     -0.017332
    52   Atom        0.003831     -0.000455     -0.003376
    53   Atom       -0.015819     -0.007326      0.023145
    54   Atom        0.001713     -0.000075     -0.001637
    55   Atom        0.001787      0.000586     -0.002373
    56   Atom       -0.002258      0.005452     -0.003195
    57   Atom       -0.001925      0.004728     -0.002803
    58   Atom       -0.001946      0.004901     -0.002955
    59   Atom       -0.001944      0.004245     -0.002301
    60   Atom       -0.001743      0.005124     -0.003380
    61   Atom       -0.001875      0.004224     -0.002349
    62   Atom       -0.001192      0.004211     -0.003019
    63   Atom       -0.001177      0.004243     -0.003067
    64   Atom       -0.094381     -0.066347      0.160728
    65   Atom       -0.005507     -0.026567      0.032074
    66   Atom       -0.011760     -0.022463      0.034223
    67   Atom       -0.003430     -0.002970      0.006400
    68   Atom       -0.001935     -0.002268      0.004203
    69   Atom       -0.002186     -0.001836      0.004021
    70   Atom       -0.002251     -0.001503      0.003755
    71   Atom       -0.005579     -0.007994      0.013573
    72   Atom       -0.003716     -0.003946      0.007662
    73   Atom       -0.007951     -0.007658      0.015609
    74   Atom       -0.006402     -0.010946      0.017348
    75   Atom       -0.005424     -0.003248      0.008672
    76   Atom       -0.123710     -0.126549      0.250259
    77   Atom       -0.015643     -0.010139      0.025781
    78   Atom       -0.006917     -0.001564      0.008481
 --------------------------------------------------------
                        XY            XZ            YZ
 --------------------------------------------------------
     1   Atom        0.050823      0.044423     -0.252735
     2   Atom        0.004013     -0.021313     -0.005709
     3   Atom       -0.003266      0.031998     -0.015318
     4   Atom        0.000758      0.022885      0.005871
     5   Atom       -0.002667     -0.011662      0.021917
     6   Atom       -0.006198      0.002570      0.006960
     7   Atom       -0.002931      0.009759      0.006519
     8   Atom        0.005887      0.002261      0.005344
     9   Atom        0.011479      0.011141      0.000068
    10   Atom        0.010444      0.003208     -0.007380
    11   Atom        0.003036     -0.002222      0.001906
    12   Atom       -0.004929      0.006506     -0.007066
    13   Atom       -0.014426      0.005592      0.002384
    14   Atom       -0.004510     -0.008460     -0.010601
    15   Atom       -0.000543     -0.035315     -0.015728
    16   Atom        0.006700     -0.012268     -0.008600
    17   Atom        0.011463     -0.010421     -0.004943
    18   Atom        0.010637      0.000830      0.009867
    19   Atom        0.002699     -0.000366      0.000760
    20   Atom       -0.004641      0.000224      0.006256
    21   Atom       -0.014755     -0.004762      0.002123
    22   Atom       -0.015187      0.003399      0.016963
    23   Atom       -0.015676     -0.000175      0.000606
    24   Atom        0.013362      0.003334     -0.002952
    25   Atom        0.009998     -0.001001     -0.001253
    26   Atom       -0.012583     -0.023234     -0.031276
    27   Atom       -0.017878      0.000548     -0.001553
    28   Atom        0.014278     -0.009978     -0.000141
    29   Atom        0.010912      0.001878      0.002078
    30   Atom        0.004263     -0.000919     -0.000498
    31   Atom        0.002530     -0.000844     -0.000293
    32   Atom        0.004511      0.000797      0.000740
    33   Atom        0.004253     -0.002265     -0.001752
    34   Atom       -0.002756     -0.000846      0.000194
    35   Atom       -0.003534     -0.002614      0.001200
    36   Atom       -0.003617      0.001324     -0.000731
    37   Atom       -0.001082     -0.000711      0.000086
    38   Atom        0.001420     -0.000000      0.000082
    39   Atom        0.001901     -0.000266     -0.001017
    40   Atom        0.001993      0.000314      0.001473
    41   Atom        0.000721     -0.000010      0.000177
    42   Atom       -0.003903     -0.005198     -0.001700
    43   Atom       -0.001776     -0.000159     -0.000019
    44   Atom        0.006124      0.010027      0.009293
    45   Atom       -0.003803     -0.001504      0.002113
    46   Atom       -0.002795     -0.000100      0.001399
    47   Atom       -0.002864      0.001932      0.000190
    48   Atom       -0.004410      0.002680     -0.001278
    49   Atom       -0.003196     -0.001385      0.000675
    50   Atom       -0.000990      0.002389     -0.000565
    51   Atom        0.007002     -0.003737      0.012072
    52   Atom        0.005182      0.002052      0.001705
    53   Atom       -0.011448      0.023054     -0.033669
    54   Atom       -0.000747     -0.000771      0.001591
    55   Atom        0.004584      0.002592      0.000114
    56   Atom        0.001433     -0.000033     -0.000043
    57   Atom        0.001781      0.000287      0.001114
    58   Atom        0.002286     -0.000391     -0.001571
    59   Atom        0.000691     -0.000055     -0.000415
    60   Atom       -0.002624      0.000003     -0.000250
    61   Atom       -0.001635      0.000143     -0.000521
    62   Atom       -0.003299      0.000800     -0.001928
    63   Atom       -0.003003     -0.000416      0.001003
    64   Atom       -0.001940     -0.034661     -0.008815
    65   Atom        0.002442     -0.026119     -0.003760
    66   Atom        0.000534      0.014520      0.000010
    67   Atom        0.000513     -0.001558     -0.002849
    68   Atom        0.000104     -0.001495     -0.000709
    69   Atom       -0.000068      0.000153     -0.001908
    70   Atom        0.000891     -0.001694     -0.002886
    71   Atom       -0.005951      0.001863      0.000822
    72   Atom        0.000647      0.002710      0.002484
    73   Atom        0.001100     -0.000306     -0.002654
    74   Atom        0.000323      0.016012      0.018565
    75   Atom        0.010295      0.012842      0.014656
    76   Atom       -0.005911      0.010850     -0.012536
    77   Atom        0.008680     -0.014805     -0.022055
    78   Atom        0.010462     -0.012095     -0.016304
 --------------------------------------------------------


 ---------------------------------------------------------------------------------
              Anisotropic Spin Dipole Couplings in Principal Axis System
 ---------------------------------------------------------------------------------

       Atom             a.u.   MegaHertz   Gauss  10(-4) cm-1        Axes

              Baa    -2.5922   -44.879   -16.014   -14.970 -0.2466  0.9685  0.0339
     1 Fe(57) Bbb    -2.3735   -41.091   -14.662   -13.707  0.9691  0.2467  0.0026
              Bcc     4.9657    85.970    30.676    28.677  0.0058 -0.0335  0.9994
 
              Baa    -0.0372    -1.435    -0.512    -0.479  0.2582  0.1540  0.9537
     2 N(14)  Bbb    -0.0084    -0.326    -0.116    -0.109 -0.1374  0.9830 -0.1215
              Bcc     0.0457     1.761     0.628     0.587  0.9563  0.0997 -0.2750
 
              Baa    -0.1199    -4.623    -1.650    -1.542  0.9931  0.0718 -0.0927
     3 N(14)  Bbb    -0.0951    -3.669    -1.309    -1.224 -0.0667  0.9962  0.0568
              Bcc     0.2150     8.291     2.959     2.766  0.0964 -0.0502  0.9941
 
              Baa    -0.0300    -1.156    -0.412    -0.385 -0.3453 -0.2507  0.9044
     4 N(14)  Bbb    -0.0087    -0.334    -0.119    -0.111 -0.1466  0.9662  0.2119
              Bcc     0.0386     1.489     0.531     0.497  0.9270  0.0594  0.3704
 
              Baa    -0.1141    -4.401    -1.571    -1.468  0.9972  0.0677  0.0324
     5 N(14)  Bbb    -0.0869    -3.351    -1.196    -1.118 -0.0650  0.9948 -0.0789
              Bcc     0.2010     7.753     2.766     2.586 -0.0376  0.0766  0.9964
 
              Baa    -0.0463    -6.217    -2.218    -2.074  0.2010  0.9772 -0.0689
     6 C(13)  Bbb    -0.0141    -1.888    -0.674    -0.630  0.9792 -0.2025 -0.0150
              Bcc     0.0604     8.105     2.892     2.704  0.0286  0.0644  0.9975
 
              Baa    -0.0583    -7.826    -2.793    -2.611  0.2294  0.9718 -0.0539
     7 C(13)  Bbb    -0.0435    -5.834    -2.082    -1.946  0.9711 -0.2323 -0.0552
              Bcc     0.1018    13.660     4.874     4.556  0.0661  0.0396  0.9970
 
              Baa    -0.0397    -5.326    -1.900    -1.776 -0.4382  0.8981 -0.0366
     8 C(13)  Bbb    -0.0251    -3.365    -1.201    -1.122  0.8984  0.4364 -0.0488
              Bcc     0.0648     8.690     3.101     2.899  0.0278  0.0542  0.9981
 
              Baa    -0.0716    -9.611    -3.429    -3.206 -0.3513  0.9360  0.0215
     9 C(13)  Bbb    -0.0369    -4.950    -1.766    -1.651  0.9332  0.3519 -0.0721
              Bcc     0.1085    14.561     5.196     4.857  0.0750  0.0053  0.9972
 
              Baa    -0.0292    -3.925    -1.400    -1.309  0.9326 -0.3456 -0.1044
    10 C(13)  Bbb     0.0032     0.430     0.153     0.143  0.3610  0.8945  0.2636
              Bcc     0.0260     3.494     1.247     1.166  0.0023 -0.2835  0.9590
 
              Baa    -0.0262    -3.514    -1.254    -1.172  0.0713 -0.0468  0.9964
    11 C(13)  Bbb     0.0064     0.855     0.305     0.285  0.9721 -0.2205 -0.0799
              Bcc     0.0198     2.659     0.949     0.887  0.2235  0.9743  0.0297
 
              Baa    -0.0232    -3.110    -1.110    -1.037  0.9506  0.3011 -0.0756
    12 C(13)  Bbb    -0.0095    -1.276    -0.455    -0.426 -0.2799  0.9366  0.2110
              Bcc     0.0327     4.386     1.565     1.463  0.1343 -0.1794  0.9746
 
              Baa    -0.0307    -4.125    -1.472    -1.376 -0.1740 -0.0937  0.9803
    13 C(13)  Bbb     0.0003     0.034     0.012     0.011  0.8152  0.5448  0.1968
              Bcc     0.0305     4.091     1.460     1.365 -0.5525  0.8333 -0.0184
 
              Baa    -0.0400    -5.365    -1.914    -1.789  0.1812  0.9740  0.1363
    14 C(13)  Bbb    -0.0094    -1.262    -0.450    -0.421  0.9744 -0.1965  0.1092
              Bcc     0.0494     6.627     2.365     2.211 -0.1331 -0.1130  0.9846
 
              Baa    -0.0802   -10.766    -3.841    -3.591  0.2115  0.9719  0.1039
    15 C(13)  Bbb    -0.0657    -8.818    -3.147    -2.941  0.9628 -0.2254  0.1489
              Bcc     0.1459    19.584     6.988     6.532 -0.1681 -0.0685  0.9834
 
              Baa    -0.0408    -5.478    -1.955    -1.827 -0.4829  0.8756  0.0150
    16 C(13)  Bbb    -0.0276    -3.704    -1.322    -1.236  0.8659  0.4749  0.1571
              Bcc     0.0684     9.182     3.276     3.063 -0.1304 -0.0889  0.9875
 
              Baa    -0.0656    -8.800    -3.140    -2.935 -0.3447  0.9387  0.0065
    17 C(13)  Bbb    -0.0314    -4.208    -1.502    -1.404  0.9351  0.3427  0.0899
              Bcc     0.0969    13.009     4.642     4.339 -0.0822 -0.0371  0.9959
 
              Baa    -0.0273    -3.664    -1.307    -1.222  0.9408 -0.3347  0.0540
    18 C(13)  Bbb     0.0024     0.324     0.116     0.108  0.3173  0.8130 -0.4883
              Bcc     0.0249     3.340     1.192     1.114  0.1195  0.4765  0.8710
 
              Baa    -0.0110    -1.475    -0.526    -0.492  0.0467 -0.0387  0.9982
    19 C(13)  Bbb    -0.0014    -0.194    -0.069    -0.065  0.9793 -0.1955 -0.0534
              Bcc     0.0124     1.669     0.595     0.557  0.1972  0.9799  0.0288
 
              Baa    -0.0189    -2.536    -0.905    -0.846  0.9368  0.3453 -0.0573
    20 C(13)  Bbb    -0.0049    -0.658    -0.235    -0.219 -0.3495  0.9140 -0.2062
              Bcc     0.0238     3.194     1.140     1.065 -0.0188  0.2132  0.9768
 
              Baa    -0.0228    -3.064    -1.093    -1.022  0.1861  0.0160  0.9824
    21 C(13)  Bbb    -0.0050    -0.676    -0.241    -0.225  0.8277  0.5363 -0.1656
              Bcc     0.0279     3.740     1.334     1.247 -0.5295  0.8439  0.0865
 
              Baa    -0.0789   -10.590    -3.779    -3.533  0.6354  0.7686 -0.0746
    22 C(13)  Bbb    -0.0475    -6.371    -2.273    -2.125  0.7721 -0.6337  0.0471
              Bcc     0.1264    16.961     6.052     5.658  0.0110  0.0875  0.9961
 
              Baa    -0.0128    -6.852    -2.445    -2.286  0.6278  0.7763 -0.0560
    23 H(1)   Bbb    -0.0064    -3.411    -1.217    -1.138  0.0509  0.0308  0.9982
              Bcc     0.0192    10.263     3.662     3.423  0.7767 -0.6296 -0.0202
 
              Baa    -0.0290    -3.891    -1.388    -1.298  0.7583 -0.6476 -0.0749
    24 C(13)  Bbb    -0.0016    -0.215    -0.077    -0.072  0.6495  0.7603  0.0025
              Bcc     0.0306     4.105     1.465     1.369  0.0554 -0.0505  0.9972
 
              Baa    -0.0069    -3.672    -1.310    -1.225  0.7087 -0.6608 -0.2472
    25 H(1)   Bbb    -0.0065    -3.472    -1.239    -1.158  0.2369 -0.1071  0.9656
              Bcc     0.0134     7.143     2.549     2.383  0.6646  0.7429 -0.0807
 
              Baa    -0.0973   -13.056    -4.659    -4.355  0.6323  0.7599  0.1511
    26 C(13)  Bbb    -0.0659    -8.843    -3.155    -2.950  0.7696 -0.6385 -0.0094
              Bcc     0.1632    21.900     7.814     7.305 -0.0894 -0.1222  0.9885
 
              Baa    -0.0147    -7.852    -2.802    -2.619  0.6384  0.7621  0.1083
    27 H(1)   Bbb    -0.0070    -3.733    -1.332    -1.245 -0.1076 -0.0510  0.9929
              Bcc     0.0217    11.584     4.133     3.864  0.7622 -0.6455  0.0494
 
              Baa    -0.0376    -5.052    -1.803    -1.685  0.7524 -0.6526  0.0894
    28 C(13)  Bbb    -0.0091    -1.223    -0.436    -0.408  0.6424  0.7570  0.1198
              Bcc     0.0468     6.275     2.239     2.093 -0.1459 -0.0327  0.9888
 
              Baa    -0.0078    -4.144    -1.479    -1.382  0.7534 -0.6564 -0.0391
    29 H(1)   Bbb    -0.0068    -3.650    -1.303    -1.218 -0.0573 -0.1248  0.9905
              Bcc     0.0146     7.795     2.781     2.600  0.6551  0.7440  0.1317
 
              Baa    -0.0038    -0.504    -0.180    -0.168 -0.4276  0.8970  0.1119
    30 C(13)  Bbb    -0.0034    -0.454    -0.162    -0.151  0.1385 -0.0573  0.9887
              Bcc     0.0071     0.958     0.342     0.320  0.8933  0.4382 -0.0997
 
              Baa    -0.0030    -1.601    -0.571    -0.534  0.0752  0.0970  0.9924
    31 H(1)   Bbb    -0.0028    -1.492    -0.533    -0.498 -0.3194  0.9452 -0.0682
              Bcc     0.0058     3.093     1.104     1.032  0.9446  0.3118 -0.1020
 
              Baa    -0.0038    -2.003    -0.715    -0.668  0.0572 -0.2644  0.9627
    32 H(1)   Bbb    -0.0030    -1.624    -0.580    -0.542 -0.5595  0.7902  0.2502
              Bcc     0.0068     3.627     1.294     1.210  0.8269  0.5529  0.1028
 
              Baa    -0.0038    -2.021    -0.721    -0.674  0.1046  0.3305  0.9380
    33 H(1)   Bbb    -0.0031    -1.633    -0.583    -0.545 -0.6070  0.7683 -0.2030
              Bcc     0.0068     3.654     1.304     1.219  0.7878  0.5481 -0.2810
 
              Baa    -0.0038    -0.506    -0.181    -0.169  0.2205  0.6020  0.7675
    34 C(13)  Bbb    -0.0037    -0.499    -0.178    -0.166  0.1486  0.7569 -0.6364
              Bcc     0.0075     1.005     0.359     0.335  0.9640 -0.2544 -0.0774
 
              Baa    -0.0041    -2.169    -0.774    -0.723  0.2237 -0.1475  0.9634
    35 H(1)   Bbb    -0.0031    -1.678    -0.599    -0.560  0.4150  0.9088  0.0428
              Bcc     0.0072     3.847     1.373     1.283  0.8819 -0.3903 -0.2645
 
              Baa    -0.0041    -2.175    -0.776    -0.725 -0.0506  0.2221  0.9737
    36 H(1)   Bbb    -0.0032    -1.686    -0.602    -0.562  0.4013  0.8973 -0.1838
              Bcc     0.0072     3.861     1.378     1.288  0.9145 -0.3815  0.1345
 
              Baa    -0.0031    -1.648    -0.588    -0.550  0.0742 -0.0343  0.9967
    37 H(1)   Bbb    -0.0031    -1.632    -0.582    -0.544  0.1210  0.9923  0.0251
              Bcc     0.0061     3.280     1.170     1.094  0.9899 -0.1188 -0.0778
 
              Baa    -0.0031    -0.410    -0.146    -0.137  0.0217 -0.0137  0.9997
    38 C(13)  Bbb    -0.0024    -0.325    -0.116    -0.108  0.9829 -0.1827 -0.0239
              Bcc     0.0055     0.734     0.262     0.245  0.1829  0.9831  0.0095
 
              Baa    -0.0029    -1.562    -0.557    -0.521  0.0267  0.1249  0.9918
    39 H(1)   Bbb    -0.0025    -1.310    -0.467    -0.437  0.9671 -0.2545  0.0060
              Bcc     0.0054     2.871     1.025     0.958  0.2532  0.9590 -0.1275
 
              Baa    -0.0030    -1.599    -0.570    -0.533  0.1183 -0.2197  0.9684
    40 H(1)   Bbb    -0.0024    -1.290    -0.460    -0.430  0.9565 -0.2368 -0.1706
              Bcc     0.0054     2.889     1.031     0.964  0.2668  0.9464  0.1821
 
              Baa    -0.0022    -1.199    -0.428    -0.400  0.0802 -0.0373  0.9961
    41 H(1)   Bbb    -0.0019    -1.000    -0.357    -0.333  0.9894 -0.1183 -0.0841
              Bcc     0.0041     2.198     0.784     0.733  0.1210  0.9923  0.0274
 
              Baa    -0.0107    -1.432    -0.511    -0.478  0.4951  0.1851  0.8489
    42 C(13)  Bbb     0.0015     0.199     0.071     0.066  0.7743  0.3493 -0.5277
              Bcc     0.0092     1.233     0.440     0.411 -0.3942  0.9185  0.0297
 
              Baa    -0.0025    -1.326    -0.473    -0.442  0.3502  0.0989  0.9314
    43 H(1)   Bbb    -0.0020    -1.077    -0.384    -0.359  0.8935  0.2633 -0.3639
              Bcc     0.0045     2.403     0.858     0.802 -0.2812  0.9596  0.0038
 
              Baa    -0.0123    -1.646    -0.587    -0.549 -0.4056 -0.3970  0.8233
    44 C(13)  Bbb    -0.0047    -0.635    -0.227    -0.212 -0.6814  0.7317  0.0171
              Bcc     0.0170     2.281     0.814     0.761  0.6093  0.5540  0.5673
 
              Baa    -0.0038    -2.042    -0.729    -0.681  0.8875  0.3931  0.2404
    45 H(1)   Bbb    -0.0025    -1.317    -0.470    -0.439 -0.0812 -0.3801  0.9214
              Bcc     0.0063     3.360     1.199     1.121 -0.4535  0.8373  0.3054
 
              Baa    -0.0030    -1.590    -0.567    -0.530 -0.3834 -0.3960  0.8344
    46 H(1)   Bbb    -0.0016    -0.852    -0.304    -0.284  0.7822  0.3411  0.5214
              Bcc     0.0046     2.442     0.871     0.815 -0.4911  0.8525  0.1790
 
              Baa    -0.0045    -0.599    -0.214    -0.200  0.3026  0.7519 -0.5857
    47 C(13)  Bbb    -0.0030    -0.406    -0.145    -0.135  0.0224  0.6087  0.7931
              Bcc     0.0075     1.005     0.359     0.335  0.9529 -0.2531  0.1673
 
              Baa    -0.0048    -2.563    -0.915    -0.855 -0.2625  0.0184  0.9648
    48 H(1)   Bbb    -0.0031    -1.671    -0.596    -0.557  0.4579  0.8824  0.1078
              Bcc     0.0079     4.234     1.511     1.412  0.8494 -0.4701  0.2400
 
              Baa    -0.0041    -2.212    -0.789    -0.738  0.0563 -0.2402  0.9691
    49 H(1)   Bbb    -0.0032    -1.721    -0.614    -0.574  0.3455  0.9153  0.2068
              Bcc     0.0074     3.933     1.403     1.312  0.9367 -0.3232 -0.1345
 
              Baa    -0.0040    -2.120    -0.756    -0.707 -0.2017  0.2553  0.9456
    50 H(1)   Bbb    -0.0027    -1.445    -0.515    -0.482  0.1708  0.9598 -0.2227
              Bcc     0.0067     3.564     1.272     1.189  0.9644 -0.1166  0.2372
 
              Baa    -0.0244    -3.269    -1.166    -1.090  0.1595 -0.4593  0.8739
    51 C(13)  Bbb     0.0053     0.713     0.254     0.238 -0.3469  0.8027  0.4851
              Bcc     0.0190     2.556     0.912     0.852  0.9242  0.3805  0.0313
 
              Baa    -0.0042    -2.258    -0.806    -0.753  0.2223 -0.6379  0.7373
    52 H(1)   Bbb    -0.0037    -1.967    -0.702    -0.656 -0.5482  0.5436  0.6356
              Bcc     0.0079     4.225     1.508     1.409  0.8063  0.5455  0.2288
 
              Baa    -0.0304    -4.085    -1.458    -1.363 -0.4316  0.6685  0.6057
    53 C(13)  Bbb    -0.0238    -3.191    -1.139    -1.064  0.8341  0.5514 -0.0142
              Bcc     0.0542     7.276     2.596     2.427  0.3435 -0.4991  0.7956
 
              Baa    -0.0026    -1.411    -0.504    -0.471  0.0639 -0.5118  0.8567
    54 H(1)   Bbb     0.0002     0.110     0.039     0.037  0.5622  0.7278  0.3928
              Bcc     0.0024     1.301     0.464     0.434  0.8245 -0.4565 -0.3342
 
              Baa    -0.0048    -2.538    -0.906    -0.847 -0.5982  0.4998  0.6264
    55 H(1)   Bbb    -0.0015    -0.822    -0.293    -0.274  0.2660 -0.6135  0.7436
              Bcc     0.0063     3.360     1.199     1.121  0.7559  0.6114  0.2340
 
              Baa    -0.0032    -0.429    -0.153    -0.143  0.0370 -0.0011  0.9993
    56 C(13)  Bbb    -0.0025    -0.337    -0.120    -0.113  0.9835 -0.1771 -0.0366
              Bcc     0.0057     0.766     0.273     0.256  0.1770  0.9842 -0.0054
 
              Baa    -0.0030    -1.582    -0.565    -0.528 -0.0452 -0.1329  0.9901
    57 H(1)   Bbb    -0.0024    -1.265    -0.452    -0.422  0.9695 -0.2449  0.0114
              Bcc     0.0053     2.848     1.016     0.950  0.2410  0.9604  0.1399
 
              Baa    -0.0033    -1.740    -0.621    -0.580 -0.0705  0.2076  0.9757
    58 H(1)   Bbb    -0.0026    -1.403    -0.500    -0.468  0.9563 -0.2642  0.1253
              Bcc     0.0059     3.142     1.121     1.048  0.2838  0.9419 -0.1799
 
              Baa    -0.0023    -1.242    -0.443    -0.414  0.0374  0.0590  0.9976
    59 H(1)   Bbb    -0.0020    -1.078    -0.385    -0.360  0.9933 -0.1115 -0.0307
              Bcc     0.0043     2.320     0.828     0.774  0.1094  0.9920 -0.0628
 
              Baa    -0.0034    -0.455    -0.163    -0.152  0.0879  0.0563  0.9945
    60 C(13)  Bbb    -0.0026    -0.352    -0.126    -0.117  0.9433  0.3162 -0.1013
              Bcc     0.0060     0.807     0.288     0.269 -0.3202  0.9470 -0.0253
 
              Baa    -0.0024    -1.276    -0.455    -0.426 -0.1273  0.0466  0.9908
    61 H(1)   Bbb    -0.0023    -1.219    -0.435    -0.406  0.9616  0.2505  0.1117
              Bcc     0.0047     2.495     0.890     0.832 -0.2430  0.9670 -0.0767
 
              Baa    -0.0035    -1.868    -0.667    -0.623  0.0266  0.2531  0.9671
    62 H(1)   Bbb    -0.0027    -1.462    -0.522    -0.488  0.9093  0.3959 -0.1286
              Bcc     0.0062     3.331     1.189     1.111 -0.4154  0.8827 -0.2196
 
              Baa    -0.0032    -1.708    -0.610    -0.570  0.0143 -0.1278  0.9917
    63 H(1)   Bbb    -0.0025    -1.340    -0.478    -0.447  0.9152  0.4012  0.0385
              Bcc     0.0057     3.048     1.088     1.017 -0.4028  0.9070  0.1227
 
              Baa    -0.0993     7.185     2.564     2.397  0.9864  0.0941  0.1347
    64 O(17)  Bbb    -0.0664     4.802     1.714     1.602 -0.0981  0.9949  0.0236
              Bcc     0.1657   -11.987    -4.277    -3.999 -0.1318 -0.0365  0.9906
 
              Baa    -0.0269   -14.336    -5.115    -4.782 -0.0790  0.9965  0.0285
    65 H(1)   Bbb    -0.0189   -10.066    -3.592    -3.358  0.8867  0.0572  0.4589
              Bcc     0.0457    24.402     8.707     8.140 -0.4556 -0.0616  0.8881
 
              Baa    -0.0225   -12.007    -4.284    -4.005 -0.0754  0.9970  0.0191
    66 H(1)   Bbb    -0.0159    -8.495    -3.031    -2.834  0.9576  0.0777 -0.2773
              Bcc     0.0384    20.502     7.315     6.839  0.2779  0.0026  0.9606
 
              Baa    -0.0038    -0.511    -0.182    -0.170 -0.4801  0.8611  0.1670
    67 C(13)  Bbb    -0.0036    -0.488    -0.174    -0.163  0.8644  0.4322  0.2569
              Bcc     0.0074     0.999     0.356     0.333 -0.1490 -0.2677  0.9519
 
              Baa    -0.0024    -1.268    -0.453    -0.423  0.4793  0.8543  0.2010
    68 H(1)   Bbb    -0.0022    -1.198    -0.427    -0.400  0.8489 -0.5094  0.1409
              Bcc     0.0046     2.466     0.880     0.823 -0.2227 -0.1031  0.9694
 
              Baa    -0.0024    -1.283    -0.458    -0.428  0.1015  0.9544  0.2809
    69 H(1)   Bbb    -0.0022    -1.167    -0.417    -0.389  0.9945 -0.0904 -0.0523
              Bcc     0.0046     2.450     0.874     0.817  0.0245 -0.2847  0.9583
 
              Baa    -0.0029    -1.536    -0.548    -0.512 -0.6080  0.7730  0.1810
    70 H(1)   Bbb    -0.0026    -1.398    -0.499    -0.466  0.7571  0.4958  0.4256
              Bcc     0.0055     2.935     1.047     0.979 -0.2392 -0.3958  0.8866
 
              Baa    -0.0130    -0.501    -0.179    -0.167  0.6354  0.7691 -0.0684
    71 N(14)  Bbb    -0.0008    -0.030    -0.011    -0.010  0.7667 -0.6390 -0.0629
              Bcc     0.0138     0.531     0.189     0.177  0.0921  0.0124  0.9957
 
              Baa    -0.0045    -2.402    -0.857    -0.801 -0.4559  0.8865 -0.0794
    72 H(1)   Bbb    -0.0043    -2.289    -0.817    -0.763  0.8631  0.4186 -0.2827
              Bcc     0.0088     4.691     1.674     1.565  0.2174  0.1974  0.9559
 
              Baa    -0.0090    -1.210    -0.432    -0.404  0.7073 -0.7038 -0.0671
    73 C(13)  Bbb    -0.0069    -0.926    -0.330    -0.309  0.7067  0.7014  0.0923
              Bcc     0.0159     2.136     0.762     0.712 -0.0179 -0.1127  0.9935
 
              Baa    -0.0237    -3.178    -1.134    -1.060  0.4575  0.7294 -0.5085
    74 C(13)  Bbb    -0.0084    -1.132    -0.404    -0.378  0.8135 -0.5742 -0.0918
              Bcc     0.0321     4.311     1.538     1.438  0.3590  0.3717  0.8561
 
              Baa    -0.0147    -7.844    -2.799    -2.616  0.7095 -0.7029  0.0509
    75 H(1)   Bbb    -0.0122    -6.495    -2.318    -2.167 -0.5396 -0.4954  0.6807
              Bcc     0.0269    14.339     5.117     4.783  0.4533  0.5104  0.7308
 
              Baa    -0.1312    -5.061    -1.806    -1.688  0.6099  0.7924  0.0087
    76 N(14)  Bbb    -0.1198    -4.619    -1.648    -1.541  0.7919 -0.6090 -0.0439
              Bcc     0.2510     9.681     3.454     3.229  0.0295 -0.0336  0.9990
 
              Baa    -0.0221    -2.968    -1.059    -0.990 -0.6956  0.7097  0.1117
    77 C(13)  Bbb    -0.0193    -2.586    -0.923    -0.863  0.6585  0.5676  0.4942
              Bcc     0.0414     5.554     1.982     1.853 -0.2873 -0.4174  0.8621
 
              Baa    -0.0151    -8.048    -2.872    -2.684  0.7269 -0.6798 -0.0973
    78 H(1)   Bbb    -0.0128    -6.807    -2.429    -2.270  0.5454  0.4855  0.6833
              Bcc     0.0278    14.854     5.300     4.955 -0.4173 -0.5497  0.7237
 

 ---------------------------------------------------------------------------------

 Unable to Open any file for archive entry.
 1\1\GINC-BGN1041\SP\UAPFD\Gen\C34H36Fe1N6O1(5)\BEBJONES\23-Jul-2024\0\
 \# apfd/gen scf=maxcycle=999 geom=check\\1gwt_II_Q\\0,5\Fe,0,3.1371670
 34,32.0201615893,46.8254010204\N,0,1.4914706856,32.1472243092,47.97646
 03617\N,0,4.1640590122,33.0233030765,48.2353040752\N,0,4.8643416041,31
 .5669170882,45.925393742\N,0,2.163555208,30.8284646355,45.5676657914\C
 ,0,0.2588976722,31.6545500492,47.6782598986\C,0,-0.6844220019,31.97004
 38018,48.7265735647\C,0,0.0110009156,32.6561977548,49.6742543853\C,0,1
 .3699547727,32.7523268262,49.1909284103\C,0,3.672605638,33.577679343,4
 9.377288904\C,0,4.668910416,34.3897134014,50.0249225234\C,0,5.79684224
 09,34.3056942806,49.2536380045\C,0,5.4688883414,33.398922092,48.170512
 9151\C,0,6.1060250932,32.019296596,46.2483347605\C,0,7.1094114844,31.4
 10977576,45.4128527046\C,0,6.4384636385,30.5976050044,44.5376645256\C,
 0,5.0331888883,30.7200087741,44.8770428813\C,0,2.6700463689,30.2144537
 039,44.4662890748\C,0,1.6041462272,29.7159650748,43.6239272044\C,0,0.4
 475219097,29.9423689867,44.3027078185\C,0,0.8219531271,30.6115172296,4
 5.5302246111\C,0,-0.0761996678,30.997573282,46.5072476982\H,0,-1.11157
 53453,30.7250122788,46.368805025\C,0,2.3715667099,33.4500800175,49.836
 8064675\H,0,2.1259724731,33.9230993696,50.7756533231\C,0,6.3842875013,
 32.936611418,47.246267836\H,0,7.4089019977,33.2529201461,47.3640155687
 \C,0,4.013052299,30.1360496397,44.1474013307\H,0,4.2846146644,29.57174
 61627,43.267966271\C,0,-0.4597356842,33.2116333431,50.9750866758\H,0,-
 1.5081817496,32.9757347253,51.1400596048\H,0,-0.3456593171,34.29600232
 09,50.9946736501\H,0,0.1191373106,32.797326074,51.8008696627\C,0,-2.12
 24758222,31.5786181278,48.7108598737\H,0,-2.2239874616,30.4938945667,4
 8.6652917157\H,0,-2.6251629158,32.0008583329,47.8404565063\H,0,-2.6303
 925992,31.9332668208,49.6045185961\C,0,4.4525642723,35.1818039777,51.2
 683395613\H,0,4.0819759864,34.5440438134,52.0712047214\H,0,3.718546111
 6,35.9712789379,51.1002149579\H,0,5.3807858137,35.6456184065,51.592846
 9587\C,0,7.0577071658,34.9794770823,49.4845814536\H,0,7.3431222282,35.
 0842383355,50.5262608998\C,0,7.8426102112,35.5002952096,48.5480116722\
 H,0,7.5819002221,35.4728605817,47.5036760234\H,0,8.7670974442,35.99407
 90351,48.7985922709\C,0,8.5779169156,31.6109810137,45.5555008402\H,0,8
 .8530841524,31.7081927933,46.6044886406\H,0,8.8991806902,32.5162918813
 ,45.0375496552\H,0,9.113702804,30.7645420167,45.130290349\C,0,6.958850
 0741,29.7344030658,43.5012469547\H,0,6.3928093493,28.8271335028,43.322
 8246863\C,0,8.0421275735,29.9707830769,42.7677312966\H,0,8.6157988531,
 30.8754789784,42.866976507\H,0,8.3782767055,29.2724643732,42.019105512
 8\C,0,1.8141418988,29.0469261543,42.308888299\H,0,2.3584678527,28.1105
 890912,42.4375280729\H,0,2.3942505356,29.6846721476,41.6419558825\H,0,
 0.8627952537,28.8248184211,41.8314660627\C,0,-0.9536073173,29.60978029
 4,43.9189016927\H,0,-0.9907364171,29.1896184478,42.9166807457\H,0,-1.5
 80182757,30.501396522,43.9426545616\H,0,-1.3769835614,28.8807488337,44
 .6108397936\O,0,3.483,30.151,48.107\H,0,2.727,30.13,48.694\H,0,4.148,2
 9.561,48.085\C,0,2.3073499833,35.7070929626,42.7494803425\H,0,3.010375
 4671,36.5364375978,42.6713116991\H,0,1.3011055348,36.0986033711,42.602
 3288646\H,0,2.523224734,34.9940513745,41.9602530302\N,0,2.1253707564,3
 5.6751986698,45.2459233013\H,0,1.8107663936,36.6272356895,45.335687523
 6\C,0,2.4239447035,35.0382127464,44.0700663803\C,0,2.3327329582,34.795
 2583357,46.2528819661\H,0,2.1791842554,35.0169526107,47.2888998484\N,0
 ,2.7446140988,33.6410702218,45.7850744472\C,0,2.8074698214,33.77755275
 02,44.4286528475\H,0,3.1213756482,32.9628694703,43.8089151595\\Version
 =ES64L-G16RevC.02\State=5-A\HF=-2983.3490328\S2=6.063299\S2-1=0.\S2A=6
 .000973\RMSD=5.804e-09\Dipole=-1.307758,1.7503323,-0.5217265\Quadrupol
 e=-11.5080054,10.6241407,0.8838647,-3.1263858,4.7410955,-6.3343008\PG=
 C01 [X(C34H36Fe1N6O1)]\\@
 The archive entry for this job was punched.


 LAW OF COMPENSATION:
      NO CALCULATION IS EVER A COMPLETE FAILURE; IT 
      CAN ALWAYS SERVE AS A BAD EXAMPLE.

                                           -- ANON
 Job cpu time:       0 days  6 hours  0 minutes 16.1 seconds.
 Elapsed time:       0 days  0 hours  6 minutes  6.6 seconds.
 File lengths (MBytes):  RWF=    430 Int=      0 D2E=      0 Chk=    155 Scr=      1
 Normal termination of Gaussian 16 at Tue Jul 23 07:39:39 2024.
