 Entering Gaussian System, Link 0=g16
 Input=1h5g01.com
 Output=1h5g01.log
 Initial command:
 /sw/chem/gaussian/g16_C02/a100/g16/l1.exe "/local/bebjones_7946870/Gau-1223452.inp" -scrdir="/local/bebjones_7946870/"
 Entering Link 1 = /sw/chem/gaussian/g16_C02/a100/g16/l1.exe PID=   1223454.
  
 Copyright (c) 1988-2021, Gaussian, Inc.  All Rights Reserved.
  
 This is part of the Gaussian(R) 16 program.  It is based on
 the Gaussian(R) 09 system (copyright 2009, Gaussian, Inc.),
 the Gaussian(R) 03 system (copyright 2003, Gaussian, Inc.),
 the Gaussian(R) 98 system (copyright 1998, Gaussian, Inc.),
 the Gaussian(R) 94 system (copyright 1995, Gaussian, Inc.),
 the Gaussian 92(TM) system (copyright 1992, Gaussian, Inc.),
 the Gaussian 90(TM) system (copyright 1990, Gaussian, Inc.),
 the Gaussian 88(TM) system (copyright 1988, Gaussian, Inc.),
 the Gaussian 86(TM) system (copyright 1986, Carnegie Mellon
 University), and the Gaussian 82(TM) system (copyright 1983,
 Carnegie Mellon University). Gaussian is a federally registered
 trademark of Gaussian, Inc.
  
 This software contains proprietary and confidential information,
 including trade secrets, belonging to Gaussian, Inc.
  
 This software is provided under written license and may be
 used, copied, transmitted, or stored only in accord with that
 written license.
  
 The following legend is applicable only to US Government
 contracts under FAR:
  
                    RESTRICTED RIGHTS LEGEND
  
 Use, reproduction and disclosure by the US Government is
 subject to restrictions as set forth in subparagraphs (a)
 and (c) of the Commercial Computer Software - Restricted
 Rights clause in FAR 52.227-19.
  
 Gaussian, Inc.
 340 Quinnipiac St., Bldg. 40, Wallingford CT 06492
  
  
 ---------------------------------------------------------------
 Warning -- This program may not be used in any manner that
 competes with the business of Gaussian, Inc. or will provide
 assistance to any competitor of Gaussian, Inc.  The licensee
 of this program is prohibited from giving any competitor of
 Gaussian, Inc. access to this program.  By using this program,
 the user acknowledges that Gaussian, Inc. is engaged in the
 business of creating and licensing software in the field of
 computational chemistry and represents and warrants to the
 licensee that it is not a competitor of Gaussian, Inc. and that
 it will not use this program in any manner prohibited above.
 ---------------------------------------------------------------
  

 Cite this work as:
 Gaussian 16, Revision C.02,
 M. J. Frisch, G. W. Trucks, H. B. Schlegel, G. E. Scuseria, 
 M. A. Robb, J. R. Cheeseman, G. Scalmani, V. Barone, 
 G. A. Petersson, H. Nakatsuji, X. Li, M. Caricato, A. V. Marenich, 
 J. Bloino, B. G. Janesko, R. Gomperts, B. Mennucci, H. P. Hratchian, 
 J. V. Ortiz, A. F. Izmaylov, J. L. Sonnenberg, D. Williams-Young, 
 F. Ding, F. Lipparini, F. Egidi, J. Goings, B. Peng, A. Petrone, 
 T. Henderson, D. Ranasinghe, V. G. Zakrzewski, J. Gao, N. Rega, 
 G. Zheng, W. Liang, M. Hada, M. Ehara, K. Toyota, R. Fukuda, 
 J. Hasegawa, M. Ishida, T. Nakajima, Y. Honda, O. Kitao, H. Nakai, 
 T. Vreven, K. Throssell, J. A. Montgomery, Jr., J. E. Peralta, 
 F. Ogliaro, M. J. Bearpark, J. J. Heyd, E. N. Brothers, K. N. Kudin, 
 V. N. Staroverov, T. A. Keith, R. Kobayashi, J. Normand, 
 K. Raghavachari, A. P. Rendell, J. C. Burant, S. S. Iyengar, 
 J. Tomasi, M. Cossi, J. M. Millam, M. Klene, C. Adamo, R. Cammi, 
 J. W. Ochterski, R. L. Martin, K. Morokuma, O. Farkas, 
 J. B. Foresman, and D. J. Fox, Gaussian, Inc., Wallingford CT, 2019.
 
 ******************************************
 Gaussian 16:  ES64L-G16RevC.02  7-Dec-2021
                22-Jul-2024 
 ******************************************
 %mem=16GB
 %CPU=0-71
 SetSPE:  set environment variable "OMP_PROC_BIND" = "true"
 SetSPE:  set environment variable "OMP_PLACES" = "{0},{1},{2},{3},{4},{5},{6},{7},{8},{9},{10},{11},{12},{13},{14},{15},{16},{17},{18},{19},{20},{21},{22},{23},{24},{25},{26},{27},{28},{29},{30},{31},{32},{33},{34},{35},{36},{37},{38},{39},{40},{41},{42},{43},{44},{45},{46},{47},{48},{49},{50},{51},{52},{53},{54},{55},{56},{57},{58},{59},{60},{61},{62},{63},{64},{65},{66},{67},{68},{69},{70},{71}"
 Will use up to   72 processors via shared memory.
 %gpucpu=0,1,2,3=0,1,2,3
 Will use    4 GPUs:
 Thread  CPU   GPU
      0    0     0
      1    1     1
      2    2     2
      3    3     3
      4    4    -1
      5    5    -1
      6    6    -1
      7    7    -1
      8    8    -1
      9    9    -1
     10   10    -1
     11   11    -1
     12   12    -1
     13   13    -1
     14   14    -1
     15   15    -1
     16   16    -1
     17   17    -1
     18   18    -1
     19   19    -1
     20   20    -1
     21   21    -1
     22   22    -1
     23   23    -1
     24   24    -1
     25   25    -1
     26   26    -1
     27   27    -1
     28   28    -1
     29   29    -1
     30   30    -1
     31   31    -1
     32   32    -1
     33   33    -1
     34   34    -1
     35   35    -1
     36   36    -1
     37   37    -1
     38   38    -1
     39   39    -1
     40   40    -1
     41   41    -1
     42   42    -1
     43   43    -1
     44   44    -1
     45   45    -1
     46   46    -1
     47   47    -1
     48   48    -1
     49   49    -1
     50   50    -1
     51   51    -1
     52   52    -1
     53   53    -1
     54   54    -1
     55   55    -1
     56   56    -1
     57   57    -1
     58   58    -1
     59   59    -1
     60   60    -1
     61   61    -1
     62   62    -1
     63   63    -1
     64   64    -1
     65   65    -1
     66   66    -1
     67   67    -1
     68   68    -1
     69   69    -1
     70   70    -1
     71   71    -1
 SetGPE:  set environment variable "OMP_PROC_BIND" = "true"
 SetGPE:  set environment variable "OMP_PLACES" = "{0},{1},{2},{3},{4},{5},{6},{7},{8},{9},{10},{11},{12},{13},{14},{15},{16},{17},{18},{19},{20},{21},{22},{23},{24},{25},{26},{27},{28},{29},{30},{31},{32},{33},{34},{35},{36},{37},{38},{39},{40},{41},{42},{43},{44},{45},{46},{47},{48},{49},{50},{51},{52},{53},{54},{55},{56},{57},{58},{59},{60},{61},{62},{63},{64},{65},{66},{67},{68},{69},{70},{71}"
 %chk=1h5g_II_O.chk
 Properties for Device   0
 Minimum vector length:                              32
 Maximum vector length:                            1024
 Number of SMPs:                                    108
 Maximum number of threads per SMP:                2048
 Number of ASync Engines:                             5
 Memory:                                           9207742464
 Properties for Device   1
 Minimum vector length:                              32
 Maximum vector length:                            1024
 Number of SMPs:                                    108
 Maximum number of threads per SMP:                2048
 Number of ASync Engines:                             5
 Memory:                                           9207742464
 Properties for Device   2
 Minimum vector length:                              32
 Maximum vector length:                            1024
 Number of SMPs:                                    108
 Maximum number of threads per SMP:                2048
 Number of ASync Engines:                             5
 Memory:                                           9207742464
 Properties for Device   3
 Minimum vector length:                              32
 Maximum vector length:                            1024
 Number of SMPs:                                    108
 Maximum number of threads per SMP:                2048
 Number of ASync Engines:                             5
 Memory:                                           9207742464
   8286968217 words of memory will be used on each GPU.
 ------------------------------------------
 # polar def2tzvp apfd int=(grid=ultrafine)
 ------------------------------------------
 1/38=1,172=1/1;
 2/12=2,17=6,18=5,40=1/2;
 3/5=44,7=101,11=2,25=1,30=1,74=-44,75=-5/1,2,3;
 4//1;
 5/5=2,38=5,98=1/2;
 8/6=4,10=90,11=11/1;
 10/6=1,13=10/2;
 6/7=2,8=2,9=2,10=2,28=1/1;
 99/5=1,9=1/99;
 ---------
 1h5g_II_S
 ---------
 Symbolic Z-matrix:
 Charge =  0 Multiplicity = 1
 Fe                    3.26323   1.97244   11.68446 
 N                     1.628     1.87246   10.55284 
 N                     2.26326   3.15128   12.9728 
 N                     4.93544   2.38493   12.67817 
 N                     4.28019   0.92781   10.34873 
 C                     1.4936    1.1798    9.38344 
 C                     0.13387   1.25092   8.89737 
 C                    -0.54585   2.03017   9.77997 
 C                     0.40033   2.40212   10.80818 
 C                     0.9264    3.40995   12.9728 
 C                     0.53013   4.08165   14.19022 
 C                     1.66435   4.24344   14.92258 
 C                     2.74042   3.70297   14.12327 
 C                     5.10263   3.21362   13.74327 
 C                     6.50195   3.32271   14.10169 
 C                     7.17433   2.48394   13.25305 
 C                     6.17918   1.89378   12.39475 
 C                     5.57459   0.51926   10.4568 
 C                     5.91465  -0.38501   9.3771 
 C                     4.80232  -0.45761   8.58114 
 C                     3.79644   0.35372   9.21171 
 C                     2.49541   0.4711    8.75184 
 H                     2.24566  -0.03553   7.83187 
 C                     0.05431   3.09938   11.94888 
 H                    -0.97213   3.41637   12.05053 
 C                     4.07469   3.78312   14.47008 
 H                     4.33067   4.32568   15.36731 
 C                     6.47485   0.99009   11.39094 
 H                     7.49684   0.65609   11.30426 
 C                    -0.3488    0.59392   7.64976 
 H                    -0.19997  -0.48508   7.70011 
 H                     0.19647   0.96999   6.7839 
 H                    -1.40785   0.78593   7.49702 
 C                    -1.97545   2.44986   9.76348 
 H                    -2.05359   3.53646   9.79117 
 H                    -2.50381   2.05059   10.6299 
 H                    -2.47302   2.09334   8.86496 
 C                     4.60555  -1.24449   7.33156 
 H                     5.53954  -1.70327   7.01725 
 H                     4.24369  -0.60275   6.52825 
 H                     3.87212  -2.03733   7.48567 
 C                     7.17382  -1.07127   9.17525 
 H                     7.48468  -1.17578   8.14125 
 C                     7.92779  -1.6018    10.1315 
 H                     7.639    -1.57387   11.16856 
 H                     8.85309  -2.10523   9.90502 
 C                     8.64145   2.25679   13.14445 
 H                     8.94126   2.16784   12.10161 
 H                     8.93227   1.33944   13.65909 
 H                     9.18114   3.0883    13.59295 
 C                     7.01251   4.18736   15.14246 
 H                     6.46315   5.11011   15.28995 
 C                     8.06909   3.93524   15.9083 
 H                     8.6225    3.01522   15.83688 
 H                     8.40261   4.63584   16.65574 
 C                     1.84703   4.87936   16.25765 
 H                     2.42542   5.79952   16.16767 
 H                     2.38076   4.20983   16.9319 
 H                     0.88616   5.12365   16.7039 
 C                    -0.86874   4.47974   14.51376 
 H                    -1.23309   5.21218   13.79304 
 H                    -0.92531   4.92082   15.50582 
 H                    -1.53167   3.61507   14.48178 
 C                     2.52665  -1.79938   15.74237 
 H                     3.14908  -2.69381   15.73005 
 H                     1.50672  -2.09726   15.98481 
 H                     2.88876  -1.13374   16.51937 
 N                     2.18834  -1.7085    13.2632 
 H                     1.84566  -2.65101   13.17366 
 C                     2.57523  -1.10549   14.43078 
 C                     2.35387  -0.81339   12.26367 
 H                     2.12929  -1.0132    11.23531 
 N                     2.8226    0.32306   12.72636 
 C                     2.96514   0.15396   14.07547 
 H                     3.33611   0.94557   14.69434 
 
 Stoichiometry    C34H34FeN6
 Framework group  C1[X(C34H34FeN6)]
 Deg. of freedom   219
 Full point group                 C1      NOp   1
 Largest Abelian subgroup         C1      NOp   1
 Largest concise Abelian subgroup C1      NOp   1
                         Standard orientation:                         
 ---------------------------------------------------------------------
 Center     Atomic      Atomic             Coordinates (Angstroms)
 Number     Number       Type             X           Y           Z
 ---------------------------------------------------------------------
      1         26           0        0.210799   -0.023424   -0.465260
      2          7           0        2.190317    0.072852   -0.657046
      3          7           0        0.330024   -2.030337   -0.551970
      4          7           0       -1.765950   -0.181546   -0.611427
      5          7           0        0.086050    1.949211   -0.517616
      6          6           0        2.947244    1.209433   -0.680801
      7          6           0        4.356051    0.887823   -0.725733
      8          6           0        4.436035   -0.468808   -0.762875
      9          6           0        3.076573   -0.958850   -0.712242
     10          6           0        1.463179   -2.783412   -0.497800
     11          6           0        1.145458   -4.183265   -0.325221
     12          6           0       -0.211540   -4.265163   -0.296219
     13          6           0       -0.700529   -2.919058   -0.490691
     14          6           0       -2.514622   -1.306733   -0.761622
     15          6           0       -3.914262   -0.979078   -0.940779
     16          6           0       -3.998250    0.383858   -0.835129
     17          6           0       -2.656457    0.855469   -0.606063
     18          6           0       -1.047385    2.691598   -0.382501
     19          6           0       -0.723899    4.100075   -0.279197
     20          6           0        0.635842    4.186299   -0.419785
     21          6           0        1.118088    2.838105   -0.551997
     22          6           0        2.458453    2.499233   -0.632841
     23          1           0        3.174927    3.306449   -0.654270
     24          6           0        2.749936   -2.296853   -0.611504
     25          1           0        3.558316   -3.011634   -0.613406
     26          6           0       -2.035102   -2.596820   -0.639181
     27          1           0       -2.749631   -3.405471   -0.660648
     28          6           0       -2.331440    2.190746   -0.454065
     29          1           0       -3.141484    2.902609   -0.429319
     30          6           0        5.449509    1.900193   -0.750787
     31          1           0        5.407188    2.535047    0.134709
     32          1           0        5.358861    2.539390   -1.629229
     33          1           0        6.422822    1.416784   -0.778349
     34          6           0        5.641064   -1.342511   -0.831507
     35          1           0        5.583299   -2.003557   -1.695942
     36          1           0        5.719156   -1.961456    0.062957
     37          1           0        6.546627   -0.746782   -0.915629
     38          6           0        1.495614    5.402686   -0.396074
     39          1           0        0.885525    6.302021   -0.371861
     40          1           0        2.134145    5.437184   -1.278774
     41          1           0        2.138735    5.404139    0.485205
     42          6           0       -1.647350    5.196376   -0.072936
     43          1           0       -1.403261    6.113621   -0.598092
     44          6           0       -2.711954    5.172270    0.721043
     45          1           0       -2.968778    4.305668    1.306467
     46          1           0       -3.352621    6.031619    0.830398
     47          6           0       -5.194848    1.254007   -0.998969
     48          1           0       -4.938462    2.163680   -1.539420
     49          1           0       -5.602886    1.541210   -0.028408
     50          1           0       -5.967018    0.724667   -1.553360
     51          6           0       -4.952707   -1.951093   -1.202135
     52          1           0       -4.643026   -2.818413   -1.773856
     53          6           0       -6.215938   -1.860644   -0.799006
     54          1           0       -6.566426   -1.045774   -0.189946
     55          1           0       -6.941168   -2.618234   -1.045652
     56          6           0       -1.085100   -5.463050   -0.147418
     57          1           0       -1.638041   -5.650636   -1.068493
     58          1           0       -1.807092   -5.314247    0.655288
     59          1           0       -0.493747   -6.346497    0.080427
     60          6           0        2.160637   -5.266832   -0.201644
     61          1           0        2.751802   -5.341368   -1.114678
     62          1           0        1.681612   -6.226972   -0.026738
     63          1           0        2.840535   -5.064087    0.625870
     64          6           0       -0.735133   -1.069754    4.942722
     65          1           0       -1.176899   -0.278746    5.548295
     66          1           0        0.062521   -1.536202    5.520588
     67          1           0       -1.495951   -1.815338    4.734844
     68          7           0        0.755040    0.445525    3.618987
     69          1           0        1.193124    0.877467    4.416023
     70          6           0       -0.210809   -0.524809    3.665139
     71          6           0        1.005339    0.714949    2.318046
     72          1           0        1.721066    1.437640    1.981373
     73          7           0        0.256372   -0.026689    1.534260
     74          6           0       -0.506161   -0.803441    2.361435
     75          1           0       -1.210725   -1.505555    1.964090
 ---------------------------------------------------------------------
 Rotational constants (GHZ):           0.0974203           0.0934487           0.0604877
 Standard basis: def2TZVP (5D, 7F)
 There are  1696 symmetry adapted cartesian basis functions of A   symmetry.
 There are  1489 symmetry adapted basis functions of A   symmetry.
  1489 basis functions,  2414 primitive gaussians,  1696 cartesian basis functions
   153 alpha electrons      153 beta electrons
       nuclear repulsion energy      5596.5104254072 Hartrees.
 NAtoms=   75 NActive=   75 NUniq=   75 SFac= 1.00D+00 NAtFMM=   60 NAOKFM=T Big=T
 Integral buffers will be    131072 words long.
 Raffenetti 2 integral format.
 Two-electron integral symmetry is turned on.
 R6APFD:  NTU= -4 IXU= 1 FactS= 1.050
 Nuclear repulsion after empirical dispersion term =     5596.3759337048 Hartrees.
 One-electron integrals computed using PRISM.
   1 Symmetry operations used in ECPInt.
 ECPInt:  NShTT=  174936 NPrTT=  542361 LenC2=  138207 LenP2D=  283912.
 LDataN:  DoStor=T MaxTD1= 6 Len=  172
 Number of processors reduced to  23 by ecpmxn.
 NBasis=  1489 RedAO= T EigKep=  3.36D-06  NBF=  1489
 NBsUse=  1489 1.00D-06 EigRej= -1.00D+00 NBFU=  1489
 ExpMin= 4.20D-02 ExpMax= 3.01D+05 ExpMxC= 2.91D+03 IAcc=3 IRadAn=         5 AccDes= 0.00D+00
 Harris functional with IExCor= 3731 and IRadAn=       5 diagonalized for initial guess.
 HarFok:  IExCor= 3731 AccDes= 0.00D+00 IRadAn=         5 IDoV= 1 UseB2=F ITyADJ=14
 ICtDFT=  3500011 ScaDFX=  1.000000  1.000000  1.000000  1.000000
 FoFCou: FMM=F IPFlag=           0 FMFlag=      100000 FMFlg1=        2001
         NFxFlg=           0 DoJE=T BraDBF=F KetDBF=T FulRan=T
         wScrn=  0.000000 ICntrl=       500 IOpCl=  0 I1Cent=   200000004 NGrid=           0
         NMat0=    1 NMatS0=      1 NMatT0=    0 NMatD0=    1 NMtDS0=    0 NMtDT0=    0
 Petite list used in FoFCou.
 Requested convergence on RMS density matrix=1.00D-08 within 128 cycles.
 Requested convergence on MAX density matrix=1.00D-06.
 Requested convergence on             energy=1.00D-06.
 No special actions if energy rises.
 EnCoef did     3 forward-backward iterations
 EnCoef did   100 forward-backward iterations
 EnCoef did   100 forward-backward iterations
 EnCoef did   100 forward-backward iterations
 EnCoef did    15 forward-backward iterations
 EnCoef did     5 forward-backward iterations
 Restarting incremental Fock formation.
 SCF Done:  E(RAPFD) =  -2907.60400240     A.U. after   28 cycles
            NFock= 28  Conv=0.33D-08     -V/T= 2.0034
 DoSCS=F DFT=T ScalE2(SS,OS)=  1.000000  1.000000
 Range of M.O.s used for correlation:     1  1489
 NBasis=  1489 NAE=   153 NBE=   153 NFC=     0 NFV=     0
 NROrb=   1489 NOA=   153 NOB=   153 NVA=  1336 NVB=  1336

 **** Warning!!: The largest alpha MO coefficient is  0.46106468D+02

          Differentiating once with respect to electric field.
                with respect to dipole field.
          Electric field/nuclear overlap derivatives assumed to be zero.
          There are     3 degrees of freedom in the 1st order CPHF.  IDoFFX=0 NUNeed=     3.
      3 vectors produced by pass  0 Test12= 6.81D-12 3.33D-08 XBig12= 1.85D+03 2.45D+01.
 AX will form     3 AO Fock derivatives at one time.
      3 vectors produced by pass  1 Test12= 6.81D-12 3.33D-08 XBig12= 1.13D+03 7.49D+00.
      3 vectors produced by pass  2 Test12= 6.81D-12 3.33D-08 XBig12= 4.59D+02 5.42D+00.
      3 vectors produced by pass  3 Test12= 6.81D-12 3.33D-08 XBig12= 3.11D+02 3.74D+00.
      3 vectors produced by pass  4 Test12= 6.81D-12 3.33D-08 XBig12= 1.80D+02 3.18D+00.
      3 vectors produced by pass  5 Test12= 6.81D-12 3.33D-08 XBig12= 7.09D+01 1.83D+00.
      3 vectors produced by pass  6 Test12= 6.81D-12 3.33D-08 XBig12= 5.54D+01 2.23D+00.
      3 vectors produced by pass  7 Test12= 6.81D-12 3.33D-08 XBig12= 2.80D+01 1.82D+00.
      3 vectors produced by pass  8 Test12= 6.81D-12 3.33D-08 XBig12= 1.58D+01 1.37D+00.
      3 vectors produced by pass  9 Test12= 6.81D-12 3.33D-08 XBig12= 5.30D+00 6.72D-01.
      3 vectors produced by pass 10 Test12= 6.81D-12 3.33D-08 XBig12= 3.47D+00 4.30D-01.
      3 vectors produced by pass 11 Test12= 6.81D-12 3.33D-08 XBig12= 1.37D+00 2.34D-01.
      3 vectors produced by pass 12 Test12= 6.81D-12 3.33D-08 XBig12= 6.00D-01 1.73D-01.
      3 vectors produced by pass 13 Test12= 6.81D-12 3.33D-08 XBig12= 2.11D-01 7.44D-02.
      3 vectors produced by pass 14 Test12= 6.81D-12 3.33D-08 XBig12= 9.70D-02 5.98D-02.
      3 vectors produced by pass 15 Test12= 6.81D-12 3.33D-08 XBig12= 3.90D-02 4.21D-02.
      3 vectors produced by pass 16 Test12= 6.81D-12 3.33D-08 XBig12= 2.07D-02 2.59D-02.
      3 vectors produced by pass 17 Test12= 6.81D-12 3.33D-08 XBig12= 5.39D-03 1.05D-02.
      3 vectors produced by pass 18 Test12= 6.81D-12 3.33D-08 XBig12= 9.20D-04 3.49D-03.
      3 vectors produced by pass 19 Test12= 6.81D-12 3.33D-08 XBig12= 2.25D-04 2.41D-03.
      3 vectors produced by pass 20 Test12= 6.81D-12 3.33D-08 XBig12= 4.57D-05 1.45D-03.
      3 vectors produced by pass 21 Test12= 6.81D-12 3.33D-08 XBig12= 1.09D-05 1.21D-03.
      3 vectors produced by pass 22 Test12= 6.81D-12 3.33D-08 XBig12= 3.38D-06 5.76D-04.
      3 vectors produced by pass 23 Test12= 6.81D-12 3.33D-08 XBig12= 1.10D-06 3.54D-04.
      3 vectors produced by pass 24 Test12= 6.81D-12 3.33D-08 XBig12= 2.36D-07 1.29D-04.
      3 vectors produced by pass 25 Test12= 6.81D-12 3.33D-08 XBig12= 3.29D-08 3.30D-05.
      3 vectors produced by pass 26 Test12= 6.81D-12 3.33D-08 XBig12= 6.30D-09 1.05D-05.
      3 vectors produced by pass 27 Test12= 6.81D-12 3.33D-08 XBig12= 6.40D-10 3.20D-06.
      3 vectors produced by pass 28 Test12= 6.81D-12 3.33D-08 XBig12= 7.30D-11 1.48D-06.
      3 vectors produced by pass 29 Test12= 6.81D-12 3.33D-08 XBig12= 2.06D-11 8.09D-07.
      3 vectors produced by pass 30 Test12= 6.81D-12 3.33D-08 XBig12= 2.99D-12 3.46D-07.
      1 vectors produced by pass 31 Test12= 6.81D-12 3.33D-08 XBig12= 2.29D-13 1.00D-07.
 InvSVY:  IOpt=1 It=  1 EMax= 7.39D-15
 Solved reduced A of dimension    94 with     3 vectors.
 Isotropic polarizability for W=    0.000000      562.93 Bohr**3.
 End of Minotr F.D. properties file   721 does not exist.
 End of Minotr F.D. properties file   722 does not exist.
 End of Minotr F.D. properties file   788 does not exist.

 **********************************************************************

            Population analysis using the SCF Density.

 **********************************************************************

 Orbital symmetries:
       Occupied  (A) (A) (A) (A) (A) (A) (A) (A) (A) (A) (A) (A)
                 (A) (A) (A) (A) (A) (A) (A) (A) (A) (A) (A) (A)
                 (A) (A) (A) (A) (A) (A) (A) (A) (A) (A) (A) (A)
                 (A) (A) (A) (A) (A) (A) (A) (A) (A) (A) (A) (A)
                 (A) (A) (A) (A) (A) (A) (A) (A) (A) (A) (A) (A)
                 (A) (A) (A) (A) (A) (A) (A) (A) (A) (A) (A) (A)
                 (A) (A) (A) (A) (A) (A) (A) (A) (A) (A) (A) (A)
                 (A) (A) (A) (A) (A) (A) (A) (A) (A) (A) (A) (A)
                 (A) (A) (A) (A) (A) (A) (A) (A) (A) (A) (A) (A)
                 (A) (A) (A) (A) (A) (A) (A) (A) (A) (A) (A) (A)
                 (A) (A) (A) (A) (A) (A) (A) (A) (A) (A) (A) (A)
                 (A) (A) (A) (A) (A) (A) (A) (A) (A) (A) (A) (A)
                 (A) (A) (A) (A) (A) (A) (A) (A) (A)
       Virtual   (A) (A) (A) (A) (A) (A) (A) (A) (A) (A) (A) (A)
                 (A) (A) (A) (A) (A) (A) (A) (A) (A) (A) (A) (A)
                 (A) (A) (A) (A) (A) (A) (A) (A) (A) (A) (A) (A)
                 (A) (A) (A) (A) (A) (A) (A) (A) (A) (A) (A) (A)
                 (A) (A) (A) (A) (A) (A) (A) (A) (A) (A) (A) (A)
                 (A) (A) (A) (A) (A) (A) (A) (A) (A) (A) (A) (A)
                 (A) (A) (A) (A) (A) (A) (A) (A) (A) (A) (A) (A)
                 (A) (A) (A) (A) (A) (A) (A) (A) (A) (A) (A) (A)
                 (A) (A) (A) (A) (A) (A) (A) (A) (A) (A) (A) (A)
                 (A) (A) (A) (A) (A) (A) (A) (A) (A) (A) (A) (A)
                 (A) (A) (A) (A) (A) (A) (A) (A) (A) (A) (A) (A)
                 (A) (A) (A) (A) (A) (A) (A) (A) (A) (A) (A) (A)
                 (A) (A) (A) (A) (A) (A) (A) (A) (A) (A) (A) (A)
                 (A) (A) (A) (A) (A) (A) (A) (A) (A) (A) (A) (A)
                 (A) (A) (A) (A) (A) (A) (A) (A) (A) (A) (A) (A)
                 (A) (A) (A) (A) (A) (A) (A) (A) (A) (A) (A) (A)
                 (A) (A) (A) (A) (A) (A) (A) (A) (A) (A) (A) (A)
                 (A) (A) (A) (A) (A) (A) (A) (A) (A) (A) (A) (A)
                 (A) (A) (A) (A) (A) (A) (A) (A) (A) (A) (A) (A)
                 (A) (A) (A) (A) (A) (A) (A) (A) (A) (A) (A) (A)
                 (A) (A) (A) (A) (A) (A) (A) (A) (A) (A) (A) (A)
                 (A) (A) (A) (A) (A) (A) (A) (A) (A) (A) (A) (A)
                 (A) (A) (A) (A) (A) (A) (A) (A) (A) (A) (A) (A)
                 (A) (A) (A) (A) (A) (A) (A) (A) (A) (A) (A) (A)
                 (A) (A) (A) (A) (A) (A) (A) (A) (A) (A) (A) (A)
                 (A) (A) (A) (A) (A) (A) (A) (A) (A) (A) (A) (A)
                 (A) (A) (A) (A) (A) (A) (A) (A) (A) (A) (A) (A)
                 (A) (A) (A) (A) (A) (A) (A) (A) (A) (A) (A) (A)
                 (A) (A) (A) (A) (A) (A) (A) (A) (A) (A) (A) (A)
                 (A) (A) (A) (A) (A) (A) (A) (A) (A) (A) (A) (A)
                 (A) (A) (A) (A) (A) (A) (A) (A) (A) (A) (A) (A)
                 (A) (A) (A) (A) (A) (A) (A) (A) (A) (A) (A) (A)
                 (A) (A) (A) (A) (A) (A) (A) (A) (A) (A) (A) (A)
                 (A) (A) (A) (A) (A) (A) (A) (A) (A) (A) (A) (A)
                 (A) (A) (A) (A) (A) (A) (A) (A) (A) (A) (A) (A)
                 (A) (A) (A) (A) (A) (A) (A) (A) (A) (A) (A) (A)
                 (A) (A) (A) (A) (A) (A) (A) (A) (A) (A) (A) (A)
                 (A) (A) (A) (A) (A) (A) (A) (A) (A) (A) (A) (A)
                 (A) (A) (A) (A) (A) (A) (A) (A) (A) (A) (A) (A)
                 (A) (A) (A) (A) (A) (A) (A) (A) (A) (A) (A) (A)
                 (A) (A) (A) (A) (A) (A) (A) (A) (A) (A) (A) (A)
                 (A) (A) (A) (A) (A) (A) (A) (A) (A) (A) (A) (A)
                 (A) (A) (A) (A) (A) (A) (A) (A) (A) (A) (A) (A)
                 (A) (A) (A) (A) (A) (A) (A) (A) (A) (A) (A) (A)
                 (A) (A) (A) (A) (A) (A) (A) (A) (A) (A) (A) (A)
                 (A) (A) (A) (A) (A) (A) (A) (A) (A) (A) (A) (A)
                 (A) (A) (A) (A) (A) (A) (A) (A) (A) (A) (A) (A)
                 (A) (A) (A) (A) (A) (A) (A) (A) (A) (A) (A) (A)
                 (A) (A) (A) (A) (A) (A) (A) (A) (A) (A) (A) (A)
                 (A) (A) (A) (A) (A) (A) (A) (A) (A) (A) (A) (A)
                 (A) (A) (A) (A) (A) (A) (A) (A) (A) (A) (A) (A)
                 (A) (A) (A) (A) (A) (A) (A) (A) (A) (A) (A) (A)
                 (A) (A) (A) (A) (A) (A) (A) (A) (A) (A) (A) (A)
                 (A) (A) (A) (A) (A) (A) (A) (A) (A) (A) (A) (A)
                 (A) (A) (A) (A) (A) (A) (A) (A) (A) (A) (A) (A)
                 (A) (A) (A) (A) (A) (A) (A) (A) (A) (A) (A) (A)
                 (A) (A) (A) (A) (A) (A) (A) (A) (A) (A) (A) (A)
                 (A) (A) (A) (A) (A) (A) (A) (A) (A) (A) (A) (A)
                 (A) (A) (A) (A) (A) (A) (A) (A) (A) (A) (A) (A)
                 (A) (A) (A) (A) (A) (A) (A) (A) (A) (A) (A) (A)
                 (A) (A) (A) (A) (A) (A) (A) (A) (A) (A) (A) (A)
                 (A) (A) (A) (A) (A) (A) (A) (A) (A) (A) (A) (A)
                 (A) (A) (A) (A) (A) (A) (A) (A) (A) (A) (A) (A)
                 (A) (A) (A) (A) (A) (A) (A) (A) (A) (A) (A) (A)
                 (A) (A) (A) (A) (A) (A) (A) (A) (A) (A) (A) (A)
                 (A) (A) (A) (A) (A) (A) (A) (A) (A) (A) (A) (A)
                 (A) (A) (A) (A) (A) (A) (A) (A) (A) (A) (A) (A)
                 (A) (A) (A) (A) (A) (A) (A) (A) (A) (A) (A) (A)
                 (A) (A) (A) (A) (A) (A) (A) (A) (A) (A) (A) (A)
                 (A) (A) (A) (A) (A) (A) (A) (A) (A) (A) (A) (A)
                 (A) (A) (A) (A) (A) (A) (A) (A) (A) (A) (A) (A)
                 (A) (A) (A) (A) (A) (A) (A) (A) (A) (A) (A) (A)
                 (A) (A) (A) (A) (A) (A) (A) (A) (A) (A) (A) (A)
                 (A) (A) (A) (A) (A) (A) (A) (A) (A) (A) (A) (A)
                 (A) (A) (A) (A) (A) (A) (A) (A) (A) (A) (A) (A)
                 (A) (A) (A) (A) (A) (A) (A) (A) (A) (A) (A) (A)
                 (A) (A) (A) (A) (A) (A) (A) (A) (A) (A) (A) (A)
                 (A) (A) (A) (A) (A) (A) (A) (A) (A) (A) (A) (A)
                 (A) (A) (A) (A) (A) (A) (A) (A) (A) (A) (A) (A)
                 (A) (A) (A) (A) (A) (A) (A) (A) (A) (A) (A) (A)
                 (A) (A) (A) (A) (A) (A) (A) (A) (A) (A) (A) (A)
                 (A) (A) (A) (A) (A) (A) (A) (A) (A) (A) (A) (A)
                 (A) (A) (A) (A) (A) (A) (A) (A) (A) (A) (A) (A)
                 (A) (A) (A) (A) (A) (A) (A) (A) (A) (A) (A) (A)
                 (A) (A) (A) (A) (A) (A) (A) (A) (A) (A) (A) (A)
                 (A) (A) (A) (A) (A) (A) (A) (A) (A) (A) (A) (A)
                 (A) (A) (A) (A) (A) (A) (A) (A) (A) (A) (A) (A)
                 (A) (A) (A) (A) (A) (A) (A) (A) (A) (A) (A) (A)
                 (A) (A) (A) (A) (A) (A) (A) (A) (A) (A) (A) (A)
                 (A) (A) (A) (A) (A) (A) (A) (A) (A) (A) (A) (A)
                 (A) (A) (A) (A) (A) (A) (A) (A) (A) (A) (A) (A)
                 (A) (A) (A) (A) (A) (A) (A) (A) (A) (A) (A) (A)
                 (A) (A) (A) (A) (A) (A) (A) (A) (A) (A) (A) (A)
                 (A) (A) (A) (A) (A) (A) (A) (A) (A) (A) (A) (A)
                 (A) (A) (A) (A) (A) (A) (A) (A) (A) (A) (A) (A)
                 (A) (A) (A) (A) (A) (A) (A) (A) (A) (A) (A) (A)
                 (A) (A) (A) (A) (A) (A) (A) (A) (A) (A) (A) (A)
                 (A) (A) (A) (A) (A) (A) (A) (A) (A) (A) (A) (A)
                 (A) (A) (A) (A) (A) (A) (A) (A) (A) (A) (A) (A)
                 (A) (A) (A) (A) (A) (A) (A) (A) (A) (A) (A) (A)
                 (A) (A) (A) (A) (A) (A) (A) (A) (A) (A) (A) (A)
                 (A) (A) (A) (A) (A) (A) (A) (A) (A) (A) (A) (A)
                 (A) (A) (A) (A) (A) (A) (A) (A) (A) (A) (A) (A)
                 (A) (A) (A) (A) (A) (A) (A) (A) (A) (A) (A) (A)
                 (A) (A) (A) (A) (A) (A) (A) (A) (A) (A) (A) (A)
                 (A) (A) (A) (A) (A) (A) (A) (A) (A) (A) (A) (A)
                 (A) (A) (A) (A) (A) (A) (A) (A) (A) (A) (A) (A)
                 (A) (A) (A) (A) (A) (A) (A) (A) (A) (A) (A) (A)
                 (A) (A) (A) (A) (A) (A) (A) (A) (A) (A) (A) (A)
                 (A) (A) (A) (A) (A) (A) (A) (A) (A) (A) (A) (A)
                 (A) (A) (A) (A) (A) (A) (A) (A) (A) (A) (A) (A)
                 (A) (A) (A) (A)
 The electronic state is 1-A.
 Alpha  occ. eigenvalues -- -256.18259 -30.03191 -25.87390 -25.86964 -25.86903
 Alpha  occ. eigenvalues --  -14.42340 -14.37362 -14.33838 -14.33775 -14.33682
 Alpha  occ. eigenvalues --  -14.33417 -10.26165 -10.24287 -10.21520 -10.21443
 Alpha  occ. eigenvalues --  -10.21160 -10.21109 -10.21050 -10.21026 -10.20934
 Alpha  occ. eigenvalues --  -10.20843 -10.20834 -10.20817 -10.19823 -10.19538
 Alpha  occ. eigenvalues --  -10.19125 -10.19000 -10.18907 -10.18869 -10.18814
 Alpha  occ. eigenvalues --  -10.18805 -10.18761 -10.18732 -10.18696 -10.18695
 Alpha  occ. eigenvalues --  -10.18670 -10.18658 -10.18605 -10.18479 -10.18456
 Alpha  occ. eigenvalues --  -10.18355 -10.18338 -10.18330 -10.18192 -10.18170
 Alpha  occ. eigenvalues --   -3.40954  -2.17760  -2.16783  -2.16676  -1.05906
 Alpha  occ. eigenvalues --   -0.97057  -0.96095  -0.96031  -0.95061  -0.91499
 Alpha  occ. eigenvalues --   -0.82419  -0.81929  -0.81615  -0.80839  -0.80790
 Alpha  occ. eigenvalues --   -0.80502  -0.79777  -0.79649  -0.77025  -0.75835
 Alpha  occ. eigenvalues --   -0.74393  -0.74068  -0.73241  -0.72331  -0.70908
 Alpha  occ. eigenvalues --   -0.70183  -0.68362  -0.68030  -0.67915  -0.65128
 Alpha  occ. eigenvalues --   -0.64431  -0.64066  -0.61879  -0.60802  -0.60311
 Alpha  occ. eigenvalues --   -0.57735  -0.56771  -0.56423  -0.54515  -0.54272
 Alpha  occ. eigenvalues --   -0.53513  -0.52194  -0.51320  -0.50765  -0.50473
 Alpha  occ. eigenvalues --   -0.48599  -0.48321  -0.48171  -0.47973  -0.47372
 Alpha  occ. eigenvalues --   -0.46239  -0.44933  -0.44686  -0.44592  -0.44244
 Alpha  occ. eigenvalues --   -0.43847  -0.43757  -0.43502  -0.43350  -0.43239
 Alpha  occ. eigenvalues --   -0.42988  -0.42944  -0.42682  -0.42208  -0.42133
 Alpha  occ. eigenvalues --   -0.41636  -0.41561  -0.41401  -0.40389  -0.40233
 Alpha  occ. eigenvalues --   -0.40144  -0.39953  -0.39594  -0.39291  -0.39248
 Alpha  occ. eigenvalues --   -0.38812  -0.38564  -0.37870  -0.37802  -0.37295
 Alpha  occ. eigenvalues --   -0.36973  -0.36884  -0.36331  -0.36063  -0.35358
 Alpha  occ. eigenvalues --   -0.34637  -0.34397  -0.34122  -0.33805  -0.32426
 Alpha  occ. eigenvalues --   -0.31884  -0.31648  -0.30470  -0.29981  -0.29326
 Alpha  occ. eigenvalues --   -0.29093  -0.26905  -0.26699  -0.24880  -0.24288
 Alpha  occ. eigenvalues --   -0.23833  -0.23034  -0.22221  -0.19848  -0.18892
 Alpha  occ. eigenvalues --   -0.18517  -0.18296  -0.17925
 Alpha virt. eigenvalues --   -0.06671  -0.06508  -0.02067  -0.01728   0.00391
 Alpha virt. eigenvalues --    0.00905   0.02078   0.02396   0.03933   0.04354
 Alpha virt. eigenvalues --    0.04525   0.04778   0.05606   0.05959   0.06094
 Alpha virt. eigenvalues --    0.06198   0.07001   0.07377   0.07885   0.07974
 Alpha virt. eigenvalues --    0.08227   0.08873   0.09204   0.09322   0.09678
 Alpha virt. eigenvalues --    0.10114   0.10317   0.10823   0.10929   0.11402
 Alpha virt. eigenvalues --    0.11449   0.11788   0.12082   0.12132   0.12349
 Alpha virt. eigenvalues --    0.12522   0.12880   0.13133   0.13406   0.13477
 Alpha virt. eigenvalues --    0.13746   0.14106   0.14181   0.14500   0.14760
 Alpha virt. eigenvalues --    0.15121   0.15306   0.15389   0.15723   0.15804
 Alpha virt. eigenvalues --    0.15952   0.15990   0.16244   0.16420   0.17008
 Alpha virt. eigenvalues --    0.17189   0.17372   0.17679   0.17710   0.17986
 Alpha virt. eigenvalues --    0.18498   0.18542   0.18990   0.19433   0.19714
 Alpha virt. eigenvalues --    0.19979   0.20154   0.20289   0.20455   0.20924
 Alpha virt. eigenvalues --    0.21066   0.21463   0.21847   0.21899   0.22465
 Alpha virt. eigenvalues --    0.22636   0.22957   0.23138   0.23379   0.23518
 Alpha virt. eigenvalues --    0.23933   0.24564   0.24847   0.25340   0.25425
 Alpha virt. eigenvalues --    0.25826   0.26006   0.26233   0.26414   0.27012
 Alpha virt. eigenvalues --    0.27329   0.27492   0.27768   0.27959   0.28323
 Alpha virt. eigenvalues --    0.28699   0.28759   0.28875   0.29299   0.29522
 Alpha virt. eigenvalues --    0.29589   0.29745   0.30216   0.30503   0.30656
 Alpha virt. eigenvalues --    0.30901   0.31328   0.31745   0.31946   0.32068
 Alpha virt. eigenvalues --    0.32552   0.32871   0.33260   0.33417   0.33460
 Alpha virt. eigenvalues --    0.33982   0.34290   0.34718   0.34786   0.35010
 Alpha virt. eigenvalues --    0.35640   0.35896   0.36141   0.36367   0.36495
 Alpha virt. eigenvalues --    0.36861   0.37078   0.37408   0.37702   0.37766
 Alpha virt. eigenvalues --    0.38244   0.38425   0.38934   0.39203   0.39315
 Alpha virt. eigenvalues --    0.39602   0.39841   0.39923   0.40115   0.40524
 Alpha virt. eigenvalues --    0.40556   0.40792   0.41051   0.41201   0.41420
 Alpha virt. eigenvalues --    0.41840   0.42013   0.42112   0.42527   0.42750
 Alpha virt. eigenvalues --    0.43000   0.43102   0.43153   0.43629   0.43859
 Alpha virt. eigenvalues --    0.43921   0.44094   0.44295   0.44440   0.45086
 Alpha virt. eigenvalues --    0.45182   0.45423   0.45662   0.45951   0.46166
 Alpha virt. eigenvalues --    0.46353   0.46531   0.46791   0.46922   0.47091
 Alpha virt. eigenvalues --    0.47229   0.47442   0.47629   0.47734   0.47978
 Alpha virt. eigenvalues --    0.48367   0.48432   0.48528   0.48962   0.49088
 Alpha virt. eigenvalues --    0.49266   0.49470   0.49706   0.49774   0.50302
 Alpha virt. eigenvalues --    0.50399   0.50803   0.50911   0.51132   0.51251
 Alpha virt. eigenvalues --    0.51384   0.51726   0.52119   0.52212   0.52440
 Alpha virt. eigenvalues --    0.52579   0.52971   0.53203   0.53545   0.53775
 Alpha virt. eigenvalues --    0.53965   0.54106   0.54450   0.54696   0.54918
 Alpha virt. eigenvalues --    0.55282   0.55462   0.56000   0.56437   0.56666
 Alpha virt. eigenvalues --    0.56892   0.57458   0.57657   0.57859   0.58094
 Alpha virt. eigenvalues --    0.58201   0.58574   0.58661   0.58888   0.59387
 Alpha virt. eigenvalues --    0.59875   0.60286   0.60536   0.60889   0.61147
 Alpha virt. eigenvalues --    0.61394   0.61926   0.61985   0.62635   0.62851
 Alpha virt. eigenvalues --    0.63104   0.63816   0.64145   0.64399   0.64532
 Alpha virt. eigenvalues --    0.64775   0.64899   0.65166   0.65681   0.65767
 Alpha virt. eigenvalues --    0.65995   0.66369   0.66574   0.67042   0.67316
 Alpha virt. eigenvalues --    0.67888   0.68160   0.68710   0.68940   0.69227
 Alpha virt. eigenvalues --    0.70045   0.70077   0.70304   0.70509   0.70895
 Alpha virt. eigenvalues --    0.71155   0.71462   0.71880   0.71964   0.72221
 Alpha virt. eigenvalues --    0.72640   0.72818   0.73260   0.73567   0.73953
 Alpha virt. eigenvalues --    0.74243   0.74466   0.74792   0.75127   0.75621
 Alpha virt. eigenvalues --    0.75777   0.76305   0.76498   0.76756   0.76880
 Alpha virt. eigenvalues --    0.77247   0.77899   0.78030   0.78306   0.78752
 Alpha virt. eigenvalues --    0.79100   0.79229   0.79964   0.80132   0.80462
 Alpha virt. eigenvalues --    0.80835   0.81066   0.81617   0.82316   0.82536
 Alpha virt. eigenvalues --    0.82973   0.83184   0.83420   0.84076   0.84424
 Alpha virt. eigenvalues --    0.84528   0.85283   0.85703   0.85989   0.86436
 Alpha virt. eigenvalues --    0.86690   0.87148   0.87363   0.88105   0.88157
 Alpha virt. eigenvalues --    0.88442   0.88815   0.89141   0.89864   0.90545
 Alpha virt. eigenvalues --    0.90649   0.91128   0.91300   0.91957   0.92531
 Alpha virt. eigenvalues --    0.93051   0.93231   0.93531   0.93787   0.94281
 Alpha virt. eigenvalues --    0.94320   0.94724   0.94918   0.95619   0.95799
 Alpha virt. eigenvalues --    0.96346   0.96385   0.96976   0.97344   0.97394
 Alpha virt. eigenvalues --    0.98069   0.98555   0.98823   0.99442   0.99716
 Alpha virt. eigenvalues --    1.00089   1.00225   1.00702   1.01143   1.01473
 Alpha virt. eigenvalues --    1.01837   1.02193   1.02361   1.02747   1.02927
 Alpha virt. eigenvalues --    1.03197   1.03625   1.03791   1.04108   1.04450
 Alpha virt. eigenvalues --    1.04575   1.04914   1.05220   1.05610   1.06044
 Alpha virt. eigenvalues --    1.06387   1.07026   1.07387   1.07927   1.08472
 Alpha virt. eigenvalues --    1.08705   1.09102   1.09419   1.09746   1.09946
 Alpha virt. eigenvalues --    1.10502   1.10814   1.11269   1.11564   1.12534
 Alpha virt. eigenvalues --    1.12660   1.13540   1.13735   1.13818   1.14386
 Alpha virt. eigenvalues --    1.14606   1.15110   1.15602   1.16312   1.16720
 Alpha virt. eigenvalues --    1.17018   1.17326   1.18081   1.18530   1.18732
 Alpha virt. eigenvalues --    1.18940   1.19338   1.19936   1.20192   1.20544
 Alpha virt. eigenvalues --    1.20977   1.21923   1.22172   1.22762   1.23024
 Alpha virt. eigenvalues --    1.23628   1.24018   1.24269   1.24549   1.24727
 Alpha virt. eigenvalues --    1.25965   1.26166   1.26864   1.27411   1.27709
 Alpha virt. eigenvalues --    1.27958   1.28286   1.28523   1.29000   1.29230
 Alpha virt. eigenvalues --    1.29664   1.29773   1.30160   1.30255   1.30869
 Alpha virt. eigenvalues --    1.31238   1.31569   1.32332   1.32386   1.32895
 Alpha virt. eigenvalues --    1.33431   1.33856   1.34506   1.35001   1.36168
 Alpha virt. eigenvalues --    1.37088   1.37398   1.38030   1.38412   1.39179
 Alpha virt. eigenvalues --    1.39739   1.40222   1.40359   1.40890   1.41654
 Alpha virt. eigenvalues --    1.41795   1.42230   1.43063   1.43352   1.44315
 Alpha virt. eigenvalues --    1.44676   1.45005   1.45168   1.46134   1.46496
 Alpha virt. eigenvalues --    1.46831   1.47482   1.47742   1.47867   1.48122
 Alpha virt. eigenvalues --    1.48880   1.49270   1.49533   1.49613   1.50048
 Alpha virt. eigenvalues --    1.50936   1.50975   1.51236   1.51447   1.51891
 Alpha virt. eigenvalues --    1.52002   1.52320   1.52447   1.52584   1.53045
 Alpha virt. eigenvalues --    1.53250   1.53705   1.53993   1.54202   1.54346
 Alpha virt. eigenvalues --    1.54498   1.54738   1.55124   1.55144   1.55617
 Alpha virt. eigenvalues --    1.55876   1.55948   1.56144   1.56478   1.56897
 Alpha virt. eigenvalues --    1.57037   1.57257   1.57503   1.57742   1.58233
 Alpha virt. eigenvalues --    1.58563   1.58825   1.58869   1.59505   1.59921
 Alpha virt. eigenvalues --    1.60249   1.60586   1.61047   1.61754   1.61936
 Alpha virt. eigenvalues --    1.61966   1.62253   1.62454   1.62866   1.63081
 Alpha virt. eigenvalues --    1.63636   1.63758   1.64037   1.64418   1.64463
 Alpha virt. eigenvalues --    1.64812   1.65017   1.65506   1.66025   1.66655
 Alpha virt. eigenvalues --    1.67047   1.67388   1.67592   1.67943   1.68337
 Alpha virt. eigenvalues --    1.68352   1.68792   1.69433   1.69941   1.70210
 Alpha virt. eigenvalues --    1.70490   1.70686   1.71025   1.71148   1.71441
 Alpha virt. eigenvalues --    1.71920   1.72548   1.73100   1.73523   1.73863
 Alpha virt. eigenvalues --    1.74540   1.74700   1.75236   1.76013   1.76639
 Alpha virt. eigenvalues --    1.77371   1.77895   1.78448   1.79143   1.79213
 Alpha virt. eigenvalues --    1.79533   1.80305   1.80784   1.81503   1.82165
 Alpha virt. eigenvalues --    1.82466   1.83418   1.83562   1.83795   1.83837
 Alpha virt. eigenvalues --    1.84827   1.85333   1.86125   1.86234   1.86714
 Alpha virt. eigenvalues --    1.87048   1.87500   1.87614   1.88444   1.88971
 Alpha virt. eigenvalues --    1.89501   1.89996   1.90764   1.91245   1.91952
 Alpha virt. eigenvalues --    1.92565   1.92852   1.93212   1.93549   1.94111
 Alpha virt. eigenvalues --    1.94463   1.95140   1.95511   1.95812   1.96160
 Alpha virt. eigenvalues --    1.96558   1.97130   1.97718   1.98375   1.98803
 Alpha virt. eigenvalues --    1.99418   1.99750   2.00262   2.00476   2.00510
 Alpha virt. eigenvalues --    2.01049   2.01775   2.02329   2.02788   2.02979
 Alpha virt. eigenvalues --    2.03176   2.04053   2.05077   2.05192   2.05943
 Alpha virt. eigenvalues --    2.06285   2.06897   2.07393   2.07579   2.08012
 Alpha virt. eigenvalues --    2.09028   2.09314   2.09383   2.09890   2.10345
 Alpha virt. eigenvalues --    2.10941   2.11110   2.11812   2.12166   2.12412
 Alpha virt. eigenvalues --    2.13069   2.13530   2.14081   2.14945   2.15188
 Alpha virt. eigenvalues --    2.15610   2.15974   2.16427   2.16552   2.16911
 Alpha virt. eigenvalues --    2.17990   2.18492   2.18744   2.19177   2.19529
 Alpha virt. eigenvalues --    2.20224   2.20452   2.20835   2.21143   2.21858
 Alpha virt. eigenvalues --    2.22216   2.22598   2.23670   2.24242   2.24575
 Alpha virt. eigenvalues --    2.25640   2.26055   2.26314   2.26735   2.26966
 Alpha virt. eigenvalues --    2.27830   2.28234   2.28622   2.28808   2.29320
 Alpha virt. eigenvalues --    2.29510   2.30241   2.30525   2.30959   2.31299
 Alpha virt. eigenvalues --    2.31796   2.32003   2.32844   2.33748   2.33956
 Alpha virt. eigenvalues --    2.34344   2.34663   2.35255   2.35590   2.36062
 Alpha virt. eigenvalues --    2.36511   2.36600   2.36743   2.37213   2.37780
 Alpha virt. eigenvalues --    2.38357   2.38824   2.38977   2.39741   2.40102
 Alpha virt. eigenvalues --    2.40302   2.40957   2.41499   2.42017   2.42915
 Alpha virt. eigenvalues --    2.43121   2.43448   2.44113   2.44247   2.44403
 Alpha virt. eigenvalues --    2.45204   2.45508   2.45930   2.46405   2.46873
 Alpha virt. eigenvalues --    2.47084   2.47505   2.47939   2.48229   2.49109
 Alpha virt. eigenvalues --    2.49353   2.49594   2.50098   2.50619   2.51249
 Alpha virt. eigenvalues --    2.51592   2.52223   2.52498   2.52927   2.53197
 Alpha virt. eigenvalues --    2.53382   2.53916   2.54311   2.54846   2.55456
 Alpha virt. eigenvalues --    2.56156   2.56481   2.56714   2.57048   2.57304
 Alpha virt. eigenvalues --    2.57960   2.58141   2.58672   2.58850   2.59499
 Alpha virt. eigenvalues --    2.59851   2.60203   2.60381   2.60728   2.61170
 Alpha virt. eigenvalues --    2.61658   2.61960   2.62140   2.62722   2.63360
 Alpha virt. eigenvalues --    2.64092   2.64351   2.64694   2.65352   2.65748
 Alpha virt. eigenvalues --    2.65900   2.66225   2.66958   2.67295   2.67544
 Alpha virt. eigenvalues --    2.67733   2.68216   2.68878   2.69290   2.69588
 Alpha virt. eigenvalues --    2.70076   2.70590   2.71403   2.71686   2.71870
 Alpha virt. eigenvalues --    2.72209   2.72997   2.73248   2.74311   2.74756
 Alpha virt. eigenvalues --    2.74909   2.75660   2.75766   2.76077   2.76415
 Alpha virt. eigenvalues --    2.77327   2.77522   2.77962   2.78345   2.78852
 Alpha virt. eigenvalues --    2.79572   2.79822   2.80377   2.80835   2.81436
 Alpha virt. eigenvalues --    2.81719   2.82213   2.82421   2.82721   2.83714
 Alpha virt. eigenvalues --    2.83806   2.83955   2.84612   2.84638   2.85077
 Alpha virt. eigenvalues --    2.85473   2.85996   2.86834   2.87089   2.87375
 Alpha virt. eigenvalues --    2.87585   2.88267   2.88434   2.89041   2.89720
 Alpha virt. eigenvalues --    2.89814   2.90231   2.90551   2.91184   2.91432
 Alpha virt. eigenvalues --    2.91607   2.92195   2.92316   2.92874   2.93114
 Alpha virt. eigenvalues --    2.93450   2.93869   2.94070   2.94476   2.94523
 Alpha virt. eigenvalues --    2.94939   2.95201   2.95652   2.96023   2.96906
 Alpha virt. eigenvalues --    2.97346   2.97811   2.98179   2.98592   2.98747
 Alpha virt. eigenvalues --    2.99034   2.99385   3.00326   3.00397   3.00715
 Alpha virt. eigenvalues --    3.01588   3.02077   3.02198   3.02593   3.02750
 Alpha virt. eigenvalues --    3.03199   3.03687   3.04205   3.04856   3.05145
 Alpha virt. eigenvalues --    3.05439   3.05655   3.05988   3.06430   3.06482
 Alpha virt. eigenvalues --    3.07213   3.07242   3.07781   3.07862   3.08564
 Alpha virt. eigenvalues --    3.08906   3.09024   3.09311   3.09663   3.10109
 Alpha virt. eigenvalues --    3.10289   3.10944   3.11131   3.11329   3.12036
 Alpha virt. eigenvalues --    3.12139   3.12583   3.12850   3.13463   3.13511
 Alpha virt. eigenvalues --    3.14028   3.14234   3.14406   3.14661   3.14932
 Alpha virt. eigenvalues --    3.15314   3.15502   3.16312   3.16468   3.16890
 Alpha virt. eigenvalues --    3.17186   3.17408   3.17860   3.18093   3.18356
 Alpha virt. eigenvalues --    3.18845   3.19237   3.19479   3.19986   3.20426
 Alpha virt. eigenvalues --    3.20583   3.20910   3.21154   3.21482   3.21733
 Alpha virt. eigenvalues --    3.21973   3.22593   3.22958   3.23247   3.23813
 Alpha virt. eigenvalues --    3.24305   3.24412   3.24659   3.24847   3.25213
 Alpha virt. eigenvalues --    3.25514   3.25863   3.25908   3.26182   3.26229
 Alpha virt. eigenvalues --    3.26612   3.26909   3.27222   3.27323   3.27792
 Alpha virt. eigenvalues --    3.28032   3.28366   3.28606   3.29040   3.29211
 Alpha virt. eigenvalues --    3.29959   3.30004   3.30136   3.30549   3.30706
 Alpha virt. eigenvalues --    3.31045   3.31367   3.31444   3.32010   3.32286
 Alpha virt. eigenvalues --    3.32536   3.32927   3.32941   3.33046   3.33435
 Alpha virt. eigenvalues --    3.33554   3.34031   3.34168   3.34593   3.35147
 Alpha virt. eigenvalues --    3.35312   3.35530   3.36023   3.36132   3.36325
 Alpha virt. eigenvalues --    3.36693   3.37020   3.37087   3.37450   3.37646
 Alpha virt. eigenvalues --    3.38187   3.38319   3.38657   3.38868   3.39231
 Alpha virt. eigenvalues --    3.39379   3.39855   3.40151   3.40493   3.41137
 Alpha virt. eigenvalues --    3.41345   3.41843   3.42293   3.42573   3.42721
 Alpha virt. eigenvalues --    3.42962   3.43544   3.44159   3.44499   3.44571
 Alpha virt. eigenvalues --    3.45381   3.45843   3.46392   3.46548   3.46834
 Alpha virt. eigenvalues --    3.47520   3.47778   3.47999   3.48534   3.49154
 Alpha virt. eigenvalues --    3.49378   3.50196   3.50764   3.51328   3.51740
 Alpha virt. eigenvalues --    3.52264   3.53050   3.53252   3.53344   3.54366
 Alpha virt. eigenvalues --    3.54740   3.55068   3.55385   3.55599   3.56090
 Alpha virt. eigenvalues --    3.57017   3.57348   3.57962   3.58369   3.58822
 Alpha virt. eigenvalues --    3.59535   3.59595   3.60406   3.60926   3.61335
 Alpha virt. eigenvalues --    3.61859   3.62419   3.62829   3.63195   3.63771
 Alpha virt. eigenvalues --    3.64500   3.64980   3.65137   3.65541   3.65633
 Alpha virt. eigenvalues --    3.66672   3.66937   3.67546   3.67892   3.68523
 Alpha virt. eigenvalues --    3.68805   3.69068   3.69261   3.70059   3.70645
 Alpha virt. eigenvalues --    3.70741   3.71122   3.71580   3.72045   3.72324
 Alpha virt. eigenvalues --    3.73002   3.73572   3.74043   3.74425   3.74810
 Alpha virt. eigenvalues --    3.74979   3.75132   3.75637   3.76185   3.76713
 Alpha virt. eigenvalues --    3.76873   3.77422   3.78314   3.79148   3.79641
 Alpha virt. eigenvalues --    3.80295   3.80648   3.81752   3.81990   3.82210
 Alpha virt. eigenvalues --    3.82789   3.83015   3.84194   3.84562   3.84747
 Alpha virt. eigenvalues --    3.86371   3.86594   3.87225   3.87568   3.88651
 Alpha virt. eigenvalues --    3.89072   3.89387   3.89819   3.90110   3.90721
 Alpha virt. eigenvalues --    3.91299   3.91733   3.92056   3.92628   3.93926
 Alpha virt. eigenvalues --    3.94022   3.94687   3.94845   3.96421   3.96873
 Alpha virt. eigenvalues --    3.97407   3.97934   3.98811   3.99487   3.99922
 Alpha virt. eigenvalues --    4.00273   4.01000   4.01480   4.02251   4.02902
 Alpha virt. eigenvalues --    4.03286   4.03736   4.04284   4.04519   4.05482
 Alpha virt. eigenvalues --    4.05768   4.05990   4.07060   4.07423   4.08579
 Alpha virt. eigenvalues --    4.09288   4.10798   4.11519   4.12017   4.12483
 Alpha virt. eigenvalues --    4.13923   4.14370   4.15218   4.15858   4.16236
 Alpha virt. eigenvalues --    4.16647   4.17474   4.17898   4.18709   4.18921
 Alpha virt. eigenvalues --    4.19444   4.19724   4.20070   4.20350   4.20873
 Alpha virt. eigenvalues --    4.20912   4.21235   4.23052   4.23252   4.24016
 Alpha virt. eigenvalues --    4.24964   4.25342   4.26079   4.26527   4.26632
 Alpha virt. eigenvalues --    4.27755   4.28592   4.28995   4.29424   4.30518
 Alpha virt. eigenvalues --    4.31152   4.31264   4.31667   4.31955   4.32935
 Alpha virt. eigenvalues --    4.33417   4.33612   4.34344   4.34722   4.35740
 Alpha virt. eigenvalues --    4.37099   4.37754   4.38478   4.38793   4.38964
 Alpha virt. eigenvalues --    4.39669   4.40032   4.40856   4.41103   4.41379
 Alpha virt. eigenvalues --    4.41890   4.42467   4.42872   4.43389   4.43892
 Alpha virt. eigenvalues --    4.44215   4.44585   4.45131   4.45327   4.45603
 Alpha virt. eigenvalues --    4.46216   4.46783   4.47700   4.48135   4.48385
 Alpha virt. eigenvalues --    4.49121   4.50502   4.52273   4.53210   4.53645
 Alpha virt. eigenvalues --    4.54577   4.55354   4.56597   4.57139   4.57920
 Alpha virt. eigenvalues --    4.58118   4.59349   4.60986   4.62624   4.63157
 Alpha virt. eigenvalues --    4.63671   4.65145   4.65580   4.66896   4.67272
 Alpha virt. eigenvalues --    4.67956   4.69013   4.69472   4.69658   4.70772
 Alpha virt. eigenvalues --    4.71728   4.72603   4.72980   4.73704   4.74037
 Alpha virt. eigenvalues --    4.75039   4.75298   4.75861   4.77927   4.78917
 Alpha virt. eigenvalues --    4.80074   4.80556   4.81019   4.82806   4.83490
 Alpha virt. eigenvalues --    4.83553   4.83782   4.84283   4.85032   4.85117
 Alpha virt. eigenvalues --    4.86210   4.87173   4.87301   4.88761   4.89669
 Alpha virt. eigenvalues --    4.90238   4.91920   4.93382   4.93690   4.94142
 Alpha virt. eigenvalues --    4.94376   4.95028   4.95948   4.96081   4.96824
 Alpha virt. eigenvalues --    4.97606   4.98606   4.99418   5.01411   5.02056
 Alpha virt. eigenvalues --    5.02502   5.02992   5.04468   5.04593   5.06478
 Alpha virt. eigenvalues --    5.07014   5.07932   5.08136   5.09134   5.09298
 Alpha virt. eigenvalues --    5.09631   5.10760   5.11492   5.13751   5.16172
 Alpha virt. eigenvalues --    5.17997   5.19032   5.20467   5.20669   5.21480
 Alpha virt. eigenvalues --    5.21629   5.22824   5.23972   5.24302   5.25755
 Alpha virt. eigenvalues --    5.26748   5.29228   5.29740   5.30487   5.33738
 Alpha virt. eigenvalues --    5.35452   5.36038   5.37378   5.37398   5.38424
 Alpha virt. eigenvalues --    5.39263   5.39709   5.40131   5.42001   5.42662
 Alpha virt. eigenvalues --    5.43566   5.46957   5.48678   5.49042   5.50372
 Alpha virt. eigenvalues --    5.50928   5.51397   5.52024   5.55052   5.55431
 Alpha virt. eigenvalues --    5.58264   5.60830   5.61316   5.62388   5.62563
 Alpha virt. eigenvalues --    5.63317   5.64891   5.66477   5.67912   5.67994
 Alpha virt. eigenvalues --    5.68385   5.71187   5.74724   5.75346   5.76594
 Alpha virt. eigenvalues --    5.78168   5.79232   5.80275   5.88008   5.90799
 Alpha virt. eigenvalues --    5.93472   5.95850   6.00975   6.01763   6.02828
 Alpha virt. eigenvalues --    6.07343   6.10132   6.13025   6.13395   6.13854
 Alpha virt. eigenvalues --    6.16499   6.17844   6.27382   6.33782   6.34552
 Alpha virt. eigenvalues --    6.40955  22.34871  22.36362  22.43670  22.46068
 Alpha virt. eigenvalues --   22.46557  22.53648  22.54569  22.62511  22.62861
 Alpha virt. eigenvalues --   22.75270  22.83621  22.87202  22.89299  22.92529
 Alpha virt. eigenvalues --   22.94123  22.95741  22.96451  23.03328  23.04334
 Alpha virt. eigenvalues --   23.07200  23.14732  23.26003  23.27811  23.29944
 Alpha virt. eigenvalues --   23.31193  23.37576  23.42547  23.50943  23.52230
 Alpha virt. eigenvalues --   23.57068  23.75126  23.78979  23.79708  23.88816
 Alpha virt. eigenvalues --   32.39590  32.69042  32.85760  32.92453  32.95418
 Alpha virt. eigenvalues --   33.06735
          Condensed to atoms (all electrons):
 Mulliken charges:
               1
     1  Fe  -0.236741
     2  N   -0.065328
     3  N   -0.072581
     4  N   -0.066386
     5  N   -0.044349
     6  C    0.233387
     7  C   -0.047668
     8  C   -0.045239
     9  C    0.240399
    10  C    0.268842
    11  C   -0.043414
    12  C   -0.038577
    13  C    0.201547
    14  C    0.213841
    15  C    0.062002
    16  C   -0.050145
    17  C    0.281896
    18  C    0.247535
    19  C    0.117179
    20  C   -0.105730
    21  C    0.234469
    22  C   -0.487597
    23  H    0.136927
    24  C   -0.430953
    25  H    0.140241
    26  C   -0.432002
    27  H    0.129214
    28  C   -0.498070
    29  H    0.172828
    30  C   -0.408592
    31  H    0.129368
    32  H    0.138461
    33  H    0.120378
    34  C   -0.416098
    35  H    0.137874
    36  H    0.133804
    37  H    0.119957
    38  C   -0.389390
    39  H    0.123126
    40  H    0.137643
    41  H    0.131955
    42  C   -0.241979
    43  H    0.114688
    44  C   -0.310782
    45  H    0.145914
    46  H    0.123010
    47  C   -0.445568
    48  H    0.135667
    49  H    0.138332
    50  H    0.155912
    51  C   -0.220663
    52  H    0.117350
    53  C   -0.287607
    54  H    0.139148
    55  H    0.122498
    56  C   -0.415299
    57  H    0.137365
    58  H    0.135310
    59  H    0.120315
    60  C   -0.413883
    61  H    0.137420
    62  H    0.119636
    63  H    0.133421
    64  C   -0.391383
    65  H    0.136444
    66  H    0.136291
    67  H    0.147681
    68  N   -0.230335
    69  H    0.237139
    70  C    0.178841
    71  C    0.007466
    72  H    0.177670
    73  N    0.049510
    74  C   -0.225682
    75  H    0.162139
 Sum of Mulliken charges =  -0.00000
 Mulliken charges with hydrogens summed into heavy atoms:
               1
     1  Fe  -0.236741
     2  N   -0.065328
     3  N   -0.072581
     4  N   -0.066386
     5  N   -0.044349
     6  C    0.233387
     7  C   -0.047668
     8  C   -0.045239
     9  C    0.240399
    10  C    0.268842
    11  C   -0.043414
    12  C   -0.038577
    13  C    0.201547
    14  C    0.213841
    15  C    0.062002
    16  C   -0.050145
    17  C    0.281896
    18  C    0.247535
    19  C    0.117179
    20  C   -0.105730
    21  C    0.234469
    22  C   -0.350669
    24  C   -0.290712
    26  C   -0.302788
    28  C   -0.325242
    30  C   -0.020385
    34  C   -0.024464
    38  C    0.003334
    42  C   -0.127291
    44  C   -0.041858
    47  C   -0.015657
    51  C   -0.103313
    53  C   -0.025960
    56  C   -0.022309
    60  C   -0.023406
    64  C    0.029033
    68  N    0.006804
    70  C    0.178841
    71  C    0.185136
    73  N    0.049510
    74  C   -0.063543
 Electronic spatial extent (au):  <R**2>=          19440.2419
 Charge=              0.0000 electrons
 Dipole moment (field-independent basis, Debye):
    X=              2.0369    Y=              0.1056    Z=              5.9677  Tot=              6.3066
 Quadrupole moment (field-independent basis, Debye-Ang):
   XX=           -232.7179   YY=           -230.9857   ZZ=           -226.3253
   XY=              3.5312   XZ=              2.0589   YZ=              1.8606
 Traceless Quadrupole moment (field-independent basis, Debye-Ang):
   XX=             -2.7083   YY=             -0.9761   ZZ=              3.6843
   XY=              3.5312   XZ=              2.0589   YZ=              1.8606
 Octapole moment (field-independent basis, Debye-Ang**2):
  XXX=             48.1907  YYY=            -18.2307  ZZZ=            145.7420  XYY=             14.4463
  XXY=              6.5959  XXZ=              7.5683  XZZ=             27.8285  YZZ=              4.5791
  YYZ=             -9.6086  XYZ=              3.0345
 Hexadecapole moment (field-independent basis, Debye-Ang**3):
 XXXX=         -11828.4863 YYYY=         -11098.0344 ZZZZ=          -2691.3883 XXXY=            -15.0611
 XXXZ=            -81.4654 YYYX=             10.3037 YYYZ=            -58.1737 ZZZX=             66.2637
 ZZZY=             34.0166 XXYY=          -3809.0872 XXZZ=          -2611.0419 YYZZ=          -2507.1366
 XXYZ=             59.0750 YYXZ=              7.4059 ZZXY=             54.7795
 N-N= 5.596375933705D+03 E-N=-1.802499017306D+04  KE= 2.897608650460D+03
  Exact polarizability:     714.053       3.957     672.478     -10.288       7.971     302.266
 Approx polarizability:    1320.716      20.771    1257.551     -27.022      19.281     488.317

 ----------------------------------------------------------------------

 Electric dipole moment (input orientation):
 (Debye = 10**-18 statcoulomb cm , SI units = C m)
                  (au)            (Debye)         (10**-30 SI)
   Tot        0.248121D+01      0.630660D+01      0.210365D+02
   x         -0.114556D+01     -0.291172D+01     -0.971246D+01
   y         -0.203919D+01     -0.518311D+01     -0.172890D+02
   z          0.828117D+00      0.210486D+01      0.702106D+01

 Dipole polarizability, Alpha (input orientation).
 (esu units = cm**3 , SI units = C**2 m**2 J**-1)
 Alpha(0;0):
               (au)            (10**-24 esu)      (10**-40 SI)
   iso        0.562932D+03      0.834180D+02      0.928150D+02
   aniso      0.393360D+03      0.582899D+02      0.648563D+02
   xx         0.680840D+03      0.100890D+03      0.112255D+03
   yx        -0.651371D+02     -0.965233D+01     -0.107397D+02
   yy         0.427924D+03      0.634118D+02      0.705552D+02
   zx         0.651144D+02      0.964896D+01      0.107359D+02
   zy         0.163963D+03      0.242967D+02      0.270338D+02
   zz         0.580033D+03      0.859520D+02      0.956345D+02

 First dipole hyperpolarizability, Beta (input orientation).
 ||, _|_  parallel and perpendicular components, (z) with respect to z axis,
 vector components x,y,z.  Values do not include the 1/n! factor of 1/2.
 (esu units = statvolt**-1 cm**4 , SI units = C**3 m**3 J**-2)
 Beta(0;0,0):
               (au)            (10**-30 esu)      (10**-50 SI)
   || (z)     0.188925D+03      0.163216D+01      0.605762D+00
   _|_(z)     0.629750D+02      0.544055D+00      0.201921D+00
   x          0.416955D+04      0.360216D+02      0.133691D+02
   y         -0.796850D+03     -0.688417D+01     -0.255499D+01
   z          0.944625D+03      0.816082D+01      0.302881D+01
   ||         0.869768D+03      0.751412D+01      0.278879D+01
   xxx        0.562366D+03      0.485841D+01      0.180315D+01
   xxy        0.160319D+03      0.138503D+01      0.514040D+00
   yxy        0.475040D+03      0.410397D+01      0.152315D+01
   yyy       -0.416586D+03     -0.359898D+01     -0.133572D+01
   xxz        0.271763D+03      0.234782D+01      0.871369D+00
   yxz        0.521123D+03      0.450209D+01      0.167091D+01
   yyz       -0.409125D+02     -0.353452D+00     -0.131180D+00
   zxz        0.352443D+03      0.304483D+01      0.113006D+01
   zyz       -0.934963D+01     -0.807735D-01     -0.299783D-01
   zzz        0.840249D+02      0.725909D+00      0.269414D+00

 ----------------------------------------------------------------------

 Dipole orientation:
    26         14.31505517         18.23228031          1.45900790
     7         10.78522153         17.26066092          2.32726768
     7         13.21767276         21.87031305          1.31320286
     7         17.61527084         19.26133009         -0.01383712
     7         15.32590069         14.63671650          1.35168453
     6          9.92395166         14.87069413          2.78273846
     6          7.30277776         14.91313286          3.55205005
     6          6.57467570         17.37612537          3.49151318
     6          8.77407166         18.81126696          2.73682362
     6         10.95606679         22.83030183          2.07783028
     6         11.02795044         25.56060332          2.14821143
     6         13.38075451         26.23914524          1.36926307
     6         14.68241817         23.91512940          0.76567292
     6         18.36447785         21.59856882         -0.77496181
     6         20.84024713         21.50468174         -1.93919809
     6         21.61830484         19.04285737         -1.75839955
     6         19.60672952         17.69439218         -0.51492625
     6         17.69496506         13.72759844          0.92502033
     6         17.77902574         11.02446498          1.35175862
     6         15.35754687         10.31857783          1.93298140
     6         13.87447006         12.59542429          1.94822195
     6         11.34447593         12.69014779          2.61099911
     1         10.41767717         10.92308230          3.03551503
     6          8.84506317         21.41923924          2.67525471
     1          7.13364311         22.42459990          3.14260894
     6         17.06034168         23.81118457         -0.30418317
     1         17.95789156         25.57310600         -0.80426136
     6         19.68621414         15.13354860         -0.00249843
     1         21.41276926         14.13795708         -0.43011155
     6          5.80113537         12.62217194          4.20666207
     1          6.66146059         11.61394703          5.78434551
     1          5.70924836         11.33505248          2.60076227
     1          3.88318573         13.13341200          4.73611843
     6          4.06487427         18.51054988          4.07659882
     1          3.38080473         19.60905976          2.47466211
     1          4.19658047         19.76781718          5.70412627
     1          2.68261340         17.05005051          4.49772119
     6         14.37793561          7.74971578          2.53862597
     1         15.83325606          6.33152999          2.23803103
     1         12.75753311          7.29523502          1.35101175
     1         13.77416813          7.64387810          4.50706653
     6         19.97104574          9.39394436          1.19167749
     1         19.61865134          7.52346466          0.43061374
     6         22.28767503          9.97888414          1.96092548
     1         22.71893829         11.77084273          2.82358782
     1         23.82982222          8.66013821          1.79265169
     6         23.97504166         17.87357742         -2.75415196
     1         23.58900441         16.00980185         -3.53529963
     1         25.37896815         17.66085881         -1.25856934
     1         24.77617050         19.05554308         -4.23353239
     6         22.09405557         23.65307368         -3.07110503
     1         20.85443612         25.03815187         -3.93188584
     6         24.57532369         24.03930148         -3.11836694
     1         25.88628761         22.77272613         -2.21738395
     1         25.38032294         25.67429464         -4.02601933
     6         14.49373098         28.80754488          1.06427201
     1         14.83884254         29.21509521         -0.92618325
     1         16.28935045         28.94327970          2.06370419
     1         13.22615393         30.24504299          1.80465633
     6          8.87522484         27.18644793          2.95448612
     1          7.27415460         26.94616124          1.68027039
     1          9.41381839         29.16901117          2.94449588
     1          8.25964190         26.68669015          4.85560284
     6         18.71379055         21.41247030         10.51896432
     1         20.17214915         20.22446296         11.35724581
     1         17.46611966         22.05950941         12.02435725
     1         19.60877964         23.04541416          9.65929519
     7         15.96479468         17.82877299          9.10935539
     1         15.84930032         16.99483767         10.81564013
     6         17.27354773         19.99656556          8.57168444
     6         14.87431247         17.02233251          6.94434122
     1         13.72793523         15.35957036          6.80201419
     7         15.41121457         18.54891579          5.06220518
     6         16.90551801         20.40983814          6.05135591
     1         17.60887528         21.90990716          4.88859589

 Electric dipole moment (dipole orientation):
 (Debye = 10**-18 statcoulomb cm , SI units = C m)
                  (au)            (Debye)         (10**-30 SI)
   Tot        0.248121D+01      0.630660D+01      0.210365D+02
   x          0.000000D+00      0.000000D+00      0.000000D+00
   y          0.000000D+00      0.000000D+00      0.000000D+00
   z          0.248121D+01      0.630660D+01      0.210365D+02

 Dipole polarizability, Alpha (dipole orientation).
 (esu units = cm**3 , SI units = C**2 m**2 J**-1)
 Alpha(0;0):
               (au)            (10**-24 esu)      (10**-40 SI)
   iso        0.562932D+03      0.834180D+02      0.928150D+02
   aniso      0.393360D+03      0.582899D+02      0.648563D+02
   xx         0.677464D+03      0.100390D+03      0.111699D+03
   yx         0.415979D+00      0.616417D-01      0.685856D-01
   yy         0.672001D+03      0.995803D+02      0.110798D+03
   zx        -0.111651D+03     -0.165450D+02     -0.184088D+02
   zy        -0.400706D+02     -0.593785D+01     -0.660675D+01
   zz         0.339331D+03      0.502837D+02      0.559482D+02

 First dipole hyperpolarizability, Beta (dipole orientation).
 ||, _|_  parallel and perpendicular components, (z) with respect to z axis,
 vector components x,y,z.  Values do not include the 1/n! factor of 1/2.
 (esu units = statvolt**-1 cm**4 , SI units = C**3 m**3 J**-2)
 Beta(0;0,0):
               (au)            (10**-30 esu)      (10**-50 SI)
   || (z)    -0.190977D+03     -0.164990D+01     -0.612343D+00
   _|_(z)    -0.636591D+02     -0.549965D+00     -0.204114D+00
   x          0.416600D+04      0.359910D+02      0.133577D+02
   y         -0.803174D+03     -0.693880D+01     -0.257527D+01
   z         -0.954887D+03     -0.824948D+01     -0.306171D+01
   ||         0.869768D+03      0.751412D+01      0.278879D+01
   xxx        0.458844D+03      0.396405D+01      0.147122D+01
   xxy        0.178174D+03      0.153928D+01      0.571290D+00
   yxy        0.574394D+03      0.496232D+01      0.184171D+01
   yyy       -0.639665D+03     -0.552621D+01     -0.205100D+01
   xxz       -0.374765D+03     -0.323767D+01     -0.120163D+01
   yxz       -0.378274D+03     -0.326799D+01     -0.121288D+01
   yyz        0.316163D+02      0.273141D+00      0.101373D+00
   zxz        0.355427D+03      0.307061D+01      0.113963D+01
   zyz        0.193767D+03      0.167400D+01      0.621287D+00
   zzz        0.248526D+02      0.214707D+00      0.796865D-01

 ----------------------------------------------------------------------
 Unable to Open any file for archive entry.
 1\1\GINC-BGN1020\SP\RAPFD\def2TZVP\C34H34Fe1N6\BEBJONES\23-Jul-2024\0\
 \# polar def2tzvp apfd int=(grid=ultrafine)\\1h5g_II_S\\0,1\Fe,0,3.263
 2342609,1.9724420401,11.6844561462\N,0,1.6280005607,1.8724622669,10.55
 28382235\N,0,2.2632586108,3.1512773426,12.9727998575\N,0,4.9354440558,
 2.3849288131,12.6781717992\N,0,4.2801855359,0.927814406,10.3487334602\
 C,0,1.493601394,1.1798035655,9.3834446406\C,0,0.1338717767,1.250921342
 8,8.8973738391\C,0,-0.545853183,2.0301706652,9.7799660186\C,0,0.400333
 3625,2.4021195528,10.808181204\C,0,0.9264034622,3.4099543289,12.972799
 5801\C,0,0.5301267179,4.0816485836,14.1902194902\C,0,1.664350431,4.243
 436814,14.9225801429\C,0,2.7404186644,3.7029716591,14.1232660388\C,0,5
 .1026345414,3.2136173405,13.743271276\C,0,6.5019494194,3.3227076415,14
 .1016919088\C,0,7.1743268822,2.4839400755,13.2530529438\C,0,6.17917842
 15,1.8937787018,12.3947488484\C,0,5.5745880729,0.5192641272,10.4568014
 481\C,0,5.9146528749,-0.385011898,9.3770962889\C,0,4.8023207968,-0.457
 6113452,8.5811430419\C,0,3.7964413166,0.3537223529,9.2117084934\C,0,2.
 4954074996,0.4711019921,8.7518379024\H,0,2.2456603053,-0.0355338628,7.
 8318713865\C,0,0.0543141651,3.0993830343,11.9488768573\H,0,-0.97212767
 01,3.4163675145,12.0505263694\C,0,4.074686326,3.7831188607,14.47007602
 14\H,0,4.3306650167,4.3256770542,15.3673138249\C,0,6.4748517456,0.9900
 892155,11.3909426542\H,0,7.4968424852,0.6560940898,11.3042584923\C,0,-
 0.3487983607,0.5939207299,7.6497554701\H,0,-0.1999650698,-0.4850823633
 ,7.7001083847\H,0,0.1964718605,0.9699892755,6.7839013463\H,0,-1.407847
 8884,0.7859301595,7.497017813\C,0,-1.9754525839,2.4498576557,9.7634804
 779\H,0,-2.0535886369,3.5364552147,9.791172067\H,0,-2.5038088962,2.050
 5913416,10.6299000233\H,0,-2.4730237202,2.0933383107,8.8649646832\C,0,
 4.6055487288,-1.2444911416,7.3315567952\H,0,5.5395353338,-1.7032706291
 ,7.0172493292\H,0,4.2436884662,-0.6027468428,6.5282548055\H,0,3.872119
 3596,-2.0373273096,7.4856736541\C,0,7.1738153678,-1.0712699451,9.17524
 89546\H,0,7.4846779097,-1.1757750402,8.1412521601\C,0,7.9277948024,-1.
 601804851,10.1314992072\H,0,7.6389964605,-1.5738680957,11.1685596377\H
 ,0,8.8530859924,-2.1052306797,9.9050221773\C,0,8.6414539306,2.25679458
 96,13.1444529087\H,0,8.9412563067,2.1678400379,12.1016050887\H,0,8.932
 2713303,1.3394373929,13.659088351\H,0,9.1811358635,3.0882958637,13.592
 9462595\C,0,7.0125069053,4.1873605028,15.1424578808\H,0,6.4631512042,5
 .1101096584,15.2899489568\C,0,8.0690892277,3.9352439391,15.9083026015\
 H,0,8.6225024789,3.0152214849,15.8368803166\H,0,8.4026061063,4.6358399
 698,16.6557425743\C,0,1.8470316886,4.8793617012,16.2576489919\H,0,2.42
 54180529,5.7995164179,16.1676665742\H,0,2.3807568809,4.2098275087,16.9
 318989189\H,0,0.886160559,5.1236535442,16.7038983921\C,0,-0.8687381704
 ,4.4797355721,14.513761535\H,0,-1.2330913789,5.2121782306,13.793042054
 \H,0,-0.9253073451,4.9208205126,15.5058157297\H,0,-1.5316684714,3.6150
 701013,14.4817826329\C,0,2.5266461468,-1.7993844693,15.7423651817\H,0,
 3.1490824936,-2.6938064455,15.7300497868\H,0,1.5067218197,-2.097256391
 2,15.9848145566\H,0,2.8887581838,-1.1337397281,16.5193746529\N,0,2.188
 3432658,-1.7085035567,13.2632016797\H,0,1.8456649381,-2.6510061167,13.
 1736569521\C,0,2.5752259875,-1.1054925927,14.4307805589\C,0,2.35387087
 25,-0.8133877337,12.2636748155\H,0,2.1292856208,-1.0131996828,11.23531
 01107\N,0,2.8225956489,0.3230639382,12.7263563554\C,0,2.9651432227,0.1
 539641671,14.0754694431\H,0,3.3361096559,0.9455695192,14.6943409549\\V
 ersion=ES64L-G16RevC.02\State=1-A\HF=-2907.6040024\RMSD=3.291e-09\Dipo
 le=-1.1455592,-2.0391922,0.8281165\Polar=680.8402849,-65.1371327,427.9
 243127,65.1143967,163.9625308,580.0326402\HyperPolar=562.3663733,160.3
 18707,475.0397245,-416.5858934,271.7625882,521.1227315,-40.9124542,352
 .4430236,-9.3496307,84.024875\Quadrupole=-3.3519794,3.4433675,-0.09138
 81,2.3632026,0.0573523,0.2305314\PG=C01 [X(C34H34Fe1N6)]\\@
 The archive entry for this job was punched.


 KNOWLEDGE IS CHIMERA - FOR BEYOND IT LIES OTHER KNOWLEDGE,
 AND THE INCOMPLETENESS OF WHAT IS KNOWN RENDERS THE KNOWING FALSE.
     -- THE THOMAS COVENANT CHRONICLES
 Job cpu time:       2 days  0 hours 53 minutes 40.7 seconds.
 Elapsed time:       0 days  0 hours 42 minutes 25.6 seconds.
 File lengths (MBytes):  RWF=   1142 Int=      0 D2E=      0 Chk=    146 Scr=      1
 Normal termination of Gaussian 16 at Tue Jul 23 00:09:01 2024.
 Initial command:
 /sw/chem/gaussian/g16_C02/a100/g16/l1.exe "/local/bebjones_7946870/Gau-1223452.inp" -scrdir="/local/bebjones_7946870/"
 Entering Link 1 = /sw/chem/gaussian/g16_C02/a100/g16/l1.exe PID=   1225154.
  
 Copyright (c) 1988-2021, Gaussian, Inc.  All Rights Reserved.
  
 This is part of the Gaussian(R) 16 program.  It is based on
 the Gaussian(R) 09 system (copyright 2009, Gaussian, Inc.),
 the Gaussian(R) 03 system (copyright 2003, Gaussian, Inc.),
 the Gaussian(R) 98 system (copyright 1998, Gaussian, Inc.),
 the Gaussian(R) 94 system (copyright 1995, Gaussian, Inc.),
 the Gaussian 92(TM) system (copyright 1992, Gaussian, Inc.),
 the Gaussian 90(TM) system (copyright 1990, Gaussian, Inc.),
 the Gaussian 88(TM) system (copyright 1988, Gaussian, Inc.),
 the Gaussian 86(TM) system (copyright 1986, Carnegie Mellon
 University), and the Gaussian 82(TM) system (copyright 1983,
 Carnegie Mellon University). Gaussian is a federally registered
 trademark of Gaussian, Inc.
  
 This software contains proprietary and confidential information,
 including trade secrets, belonging to Gaussian, Inc.
  
 This software is provided under written license and may be
 used, copied, transmitted, or stored only in accord with that
 written license.
  
 The following legend is applicable only to US Government
 contracts under FAR:
  
                    RESTRICTED RIGHTS LEGEND
  
 Use, reproduction and disclosure by the US Government is
 subject to restrictions as set forth in subparagraphs (a)
 and (c) of the Commercial Computer Software - Restricted
 Rights clause in FAR 52.227-19.
  
 Gaussian, Inc.
 340 Quinnipiac St., Bldg. 40, Wallingford CT 06492
  
  
 ---------------------------------------------------------------
 Warning -- This program may not be used in any manner that
 competes with the business of Gaussian, Inc. or will provide
 assistance to any competitor of Gaussian, Inc.  The licensee
 of this program is prohibited from giving any competitor of
 Gaussian, Inc. access to this program.  By using this program,
 the user acknowledges that Gaussian, Inc. is engaged in the
 business of creating and licensing software in the field of
 computational chemistry and represents and warrants to the
 licensee that it is not a competitor of Gaussian, Inc. and that
 it will not use this program in any manner prohibited above.
 ---------------------------------------------------------------
  

 Cite this work as:
 Gaussian 16, Revision C.02,
 M. J. Frisch, G. W. Trucks, H. B. Schlegel, G. E. Scuseria, 
 M. A. Robb, J. R. Cheeseman, G. Scalmani, V. Barone, 
 G. A. Petersson, H. Nakatsuji, X. Li, M. Caricato, A. V. Marenich, 
 J. Bloino, B. G. Janesko, R. Gomperts, B. Mennucci, H. P. Hratchian, 
 J. V. Ortiz, A. F. Izmaylov, J. L. Sonnenberg, D. Williams-Young, 
 F. Ding, F. Lipparini, F. Egidi, J. Goings, B. Peng, A. Petrone, 
 T. Henderson, D. Ranasinghe, V. G. Zakrzewski, J. Gao, N. Rega, 
 G. Zheng, W. Liang, M. Hada, M. Ehara, K. Toyota, R. Fukuda, 
 J. Hasegawa, M. Ishida, T. Nakajima, Y. Honda, O. Kitao, H. Nakai, 
 T. Vreven, K. Throssell, J. A. Montgomery, Jr., J. E. Peralta, 
 F. Ogliaro, M. J. Bearpark, J. J. Heyd, E. N. Brothers, K. N. Kudin, 
 V. N. Staroverov, T. A. Keith, R. Kobayashi, J. Normand, 
 K. Raghavachari, A. P. Rendell, J. C. Burant, S. S. Iyengar, 
 J. Tomasi, M. Cossi, J. M. Millam, M. Klene, C. Adamo, R. Cammi, 
 J. W. Ochterski, R. L. Martin, K. Morokuma, O. Farkas, 
 J. B. Foresman, and D. J. Fox, Gaussian, Inc., Wallingford CT, 2019.
 
 ******************************************
 Gaussian 16:  ES64L-G16RevC.02  7-Dec-2021
                23-Jul-2024 
 ******************************************
 %mem=16GB
 %CPU=0-71
 SetSPE:  set environment variable "OMP_PROC_BIND" = "true"
 SetSPE:  set environment variable "OMP_PLACES" = "{0},{1},{2},{3},{4},{5},{6},{7},{8},{9},{10},{11},{12},{13},{14},{15},{16},{17},{18},{19},{20},{21},{22},{23},{24},{25},{26},{27},{28},{29},{30},{31},{32},{33},{34},{35},{36},{37},{38},{39},{40},{41},{42},{43},{44},{45},{46},{47},{48},{49},{50},{51},{52},{53},{54},{55},{56},{57},{58},{59},{60},{61},{62},{63},{64},{65},{66},{67},{68},{69},{70},{71}"
 Will use up to   72 processors via shared memory.
 %gpucpu=0,1,2,3=0,1,2,3
 Will use    4 GPUs:
 Thread  CPU   GPU
      0    0     0
      1    1     1
      2    2     2
      3    3     3
      4    4    -1
      5    5    -1
      6    6    -1
      7    7    -1
      8    8    -1
      9    9    -1
     10   10    -1
     11   11    -1
     12   12    -1
     13   13    -1
     14   14    -1
     15   15    -1
[...]
                                                    166(r)
    93. BD (   1) C  74 - H  75          1.98195    -0.54517  1486(v),1481(v),1283(v)
                                                    1340(v),1483(g),148(r)
                                                    151(r),147(r),167(r),166(r)
                                                    154(r)
   137. CR (   1) C  64                  1.99940   -10.06396  1483(v),1283(v),1481(v)
   138. CR (   1) N  68                  1.99938   -14.22764  1311(v),1285(v),1279(v)
                                                    1479(v),1286(v)
   139. CR (   1) C  70                  1.99915   -10.09523  1368(v),1483(g),1489(v)
                                                    1213(v),1256(v)
   140. CR (   1) C  71                  1.99938   -10.12971  1340(v),1480(v),1336(v)
                                                    1488(v),148(r),147(r)
   141. CR (   1) N  73                  1.99931   -14.16662  148(r),147(r),151(r),1309(v)
                                                    1366(v),1368(v),1485(v)
                                                    164(r),166(r),170(r)
   142. CR (   1) C  74                  1.99900   -10.06646  1479(v),1283(v),1483(g)
                                                    1342(v),1286(v),148(r)
                                                    147(r)
   158. LP (   1) N  68                  1.57716    -0.29044  1487(v),1484(v),1312(v)
                                                    1284(v),1278(v)
   159. LP (   1) N  73                  1.61922    -0.38565  147(r),148(r),151(r),1482(v)
                                                    1483(v),1309(v),1485(v)
                                                    1489(v),1366(v),154(r)
                                                    1486(g),1343(g),1488(g)
                                                    165(r),186(r),189(r),241(r)
                                                    242(r),190(r),267(r),268(r)
                                                    1406(r),216(r),1407(r)
                                                    215(r),1402(r),185(r)
                                                    1401(r),1397(r),1405(r)
                                                    1398(r),1400(r),1404(r)
                                                    246(r),221(r)
  1211. RY*(   1) C  64                  0.00120     1.14144   
  1212. RY*(   2) C  64                  0.00077     1.99390   
  1213. RY*(   3) C  64                  0.00052     1.31014   
  1214. RY*(   4) C  64                  0.00012     1.26207   
  1215. RY*(   5) C  64                  0.00007     1.08516   
  1216. RY*(   6) C  64                  0.00008     2.38624   
  1217. RY*(   7) C  64                  0.00001     1.97279   
  1218. RY*(   8) C  64                  0.00001     1.88609   
  1219. RY*(   9) C  64                  0.00001     1.40975   
  1220. RY*(  10) C  64                  0.00000     3.16501   
  1221. RY*(  11) C  64                  0.00000     2.47004   
  1222. RY*(  12) C  64                  0.00001     1.38954   
  1223. RY*(  13) C  64                  0.00000     2.51298   
  1224. RY*(  14) C  64                  0.00001     2.95043   
  1225. RY*(  15) C  64                  0.00000     2.47787   
  1226. RY*(  16) C  64                  0.00000     2.36673   
  1227. RY*(  17) C  64                  0.00001     2.58480   
  1228. RY*(  18) C  64                  0.00000    21.59896   
  1229. RY*(  19) C  64                  0.00000     2.67455   
  1230. RY*(  20) C  64                  0.00000     3.68100   
  1231. RY*(  21) C  64                  0.00001     3.39660   
  1232. RY*(  22) C  64                  0.00001     3.41377   
  1233. RY*(  23) C  64                  0.00000     3.35071   
  1234. RY*(  24) C  64                  0.00000     3.72131   
  1235. RY*(  25) C  64                  0.00000     3.30972   
  1236. RY*(  26) C  64                  0.00000     3.31904   
  1237. RY*(   1) H  65                  0.00073     0.99787   
  1238. RY*(   2) H  65                  0.00014     1.69679   
  1239. RY*(   3) H  65                  0.00008     1.95615   
  1240. RY*(   4) H  65                  0.00006     2.00574   
  1241. RY*(   5) H  65                  0.00000     2.86985   
  1242. RY*(   1) H  66                  0.00073     1.00833   
  1243. RY*(   2) H  66                  0.00014     1.68794   
  1244. RY*(   3) H  66                  0.00008     1.95377   
  1245. RY*(   4) H  66                  0.00006     2.00596   
  1246. RY*(   5) H  66                  0.00000     2.86991   
  1247. RY*(   1) H  67                  0.00024     1.31809   
  1248. RY*(   2) H  67                  0.00013     1.63786   
  1249. RY*(   3) H  67                  0.00008     2.05330   
  1250. RY*(   4) H  67                  0.00003     1.70600   
  1251. RY*(   5) H  67                  0.00001     2.88950   
  1252. RY*(   1) N  68                  0.00281     0.66091   
  1253. RY*(   2) N  68                  0.00233     1.74640   
  1254. RY*(   3) N  68                  0.00102     2.06038   
  1255. RY*(   4) N  68                  0.00075     2.19628   
  1256. RY*(   5) N  68                  0.00052     1.11463   
  1257. RY*(   6) N  68                  0.00025     2.05941   
  1258. RY*(   7) N  68                  0.00020     1.66998   
  1259. RY*(   8) N  68                  0.00006     2.93347   
  1260. RY*(   9) N  68                  0.00007     2.53495   
  1261. RY*(  10) N  68                  0.00007     2.22690   
  1262. RY*(  11) N  68                  0.00005     3.52111   
  1263. RY*(  12) N  68                  0.00001     3.95161   
  1264. RY*(  13) N  68                  0.00001     3.51977   
  1265. RY*(  14) N  68                  0.00000     2.53693   
  1266. RY*(  15) N  68                  0.00001     3.89960   
  1267. RY*(  16) N  68                  0.00000     2.34508   
  1268. RY*(  17) N  68                  0.00000     4.08788   
  1269. RY*(  18) N  68                  0.00000     4.56677   
  1270. RY*(  19) N  68                  0.00000    30.77568   
  1271. RY*(  20) N  68                  0.00000     4.63072   
  1272. RY*(  21) N  68                  0.00000     4.53912   
  1273. RY*(  22) N  68                  0.00000     4.47967   
  1274. RY*(  23) N  68                  0.00000     4.27442   
  1275. RY*(  24) N  68                  0.00000     4.45425   
  1276. RY*(  25) N  68                  0.00000     4.35827   
  1277. RY*(  26) N  68                  0.00000     4.41882   
  1278. RY*(   1) H  69                  0.00057     2.14367   
  1279. RY*(   2) H  69                  0.00039     2.14603   
  1280. RY*(   3) H  69                  0.00029     1.09085   
  1281. RY*(   4) H  69                  0.00021     2.44829   
  1282. RY*(   5) H  69                  0.00001     3.05758   
  1283. RY*(   1) C  70                  0.00416     1.67213   
  1284. RY*(   2) C  70                  0.00258     0.98188   
  1285. RY*(   3) C  70                  0.00190     1.45098   
  1286. RY*(   4) C  70                  0.00164     2.01923   
  1287. RY*(   5) C  70                  0.00119     1.73515   
  1288. RY*(   6) C  70                  0.00109     1.68437   
  1289. RY*(   7) C  70                  0.00038     2.85170   
  1290. RY*(   8) C  70                  0.00018     2.82789   
  1291. RY*(   9) C  70                  0.00016     2.27223   
  1292. RY*(  10) C  70                  0.00008     3.51385   
  1293. RY*(  11) C  70                  0.00003     2.66198   
  1294. RY*(  12) C  70                  0.00001     1.67384   
  1295. RY*(  13) C  70                  0.00002     2.42335   
  1296. RY*(  14) C  70                  0.00001     1.78065   
  1297. RY*(  15) C  70                  0.00000     3.10210   
  1298. RY*(  16) C  70                  0.00000     1.08934   
  1299. RY*(  17) C  70                  0.00001     2.25839   
  1300. RY*(  18) C  70                  0.00000    20.64185   
  1301. RY*(  19) C  70                  0.00001     2.80646   
  1302. RY*(  20) C  70                  0.00000     4.02976   
  1303. RY*(  21) C  70                  0.00000     3.67861   
  1304. RY*(  22) C  70                  0.00000     3.59524   
  1305. RY*(  23) C  70                  0.00000     3.23924   
  1306. RY*(  24) C  70                  0.00000     3.81787   
  1307. RY*(  25) C  70                  0.00000     3.48489   
  1308. RY*(  26) C  70                  0.00000     3.45757   
  1309. RY*(   1) C  71                  0.00407     1.59505   
  1310. RY*(   2) C  71                  0.00322     0.69835   
  1311. RY*(   3) C  71                  0.00207     1.31070   
  1312. RY*(   4) C  71                  0.00129     2.48003   
  1313. RY*(   5) C  71                  0.00078     1.63814   
  1314. RY*(   6) C  71                  0.00038     1.59835   
  1315. RY*(   7) C  71                  0.00032     1.75904   
  1316. RY*(   8) C  71                  0.00012     2.78140   
  1317. RY*(   9) C  71                  0.00005     2.18252   
  1318. RY*(  10) C  71                  0.00004     2.03310   
  1319. RY*(  11) C  71                  0.00005     3.62281   
  1320. RY*(  12) C  71                  0.00004     1.61424   
  1321. RY*(  13) C  71                  0.00001     3.60332   
  1322. RY*(  14) C  71                  0.00001     2.79179   
  1323. RY*(  15) C  71                  0.00001     2.24321   
  1324. RY*(  16) C  71                  0.00002     2.84818   
  1325. RY*(  17) C  71                  0.00001     2.66791   
  1326. RY*(  18) C  71                  0.00000    21.47962   
  1327. RY*(  19) C  71                  0.00001     2.96268   
  1328. RY*(  20) C  71                  0.00001     3.82905   
  1329. RY*(  21) C  71                  0.00000     3.82500   
  1330. RY*(  22) C  71                  0.00000     3.84052   
  1331. RY*(  23) C  71                  0.00000     3.53861   
  1332. RY*(  24) C  71                  0.00000     3.84724   
  1333. RY*(  25) C  71                  0.00000     3.47346   
  1334. RY*(  26) C  71                  0.00000     3.45184   
  1335. RY*(   1) H  72                  0.00059     0.74585   
  1336. RY*(   2) H  72                  0.00029     2.39864   
  1337. RY*(   3) H  72                  0.00021     2.08702   
  1338. RY*(   4) H  72                  0.00011     2.39682   
  1339. RY*(   5) H  72                  0.00002     3.14196   
  1340. RY*(   1) N  73                  0.00625     1.42202   
  1341. RY*(   2) N  73                  0.00548     0.88187   
  1342. RY*(   3) N  73                  0.00534     1.50718   
  1343. RY*(   4) N  73                  0.00113     1.40763   
  1344. RY*(   5) N  73                  0.00072     1.66493   
  1345. RY*(   6) N  73                  0.00044     2.17700   
  1346. RY*(   7) N  73                  0.00036     3.47154   
  1347. RY*(   8) N  73                  0.00037     2.95207   
  1348. RY*(   9) N  73                  0.00011     3.05944   
  1349. RY*(  10) N  73                  0.00011     2.32891   
  1350. RY*(  11) N  73                  0.00008     3.18929   
  1351. RY*(  12) N  73                  0.00008     3.03190   
  1352. RY*(  13) N  73                  0.00006     3.38157   
  1353. RY*(  14) N  73                  0.00002     3.91598   
  1354. RY*(  15) N  73                  0.00001     4.44038   
  1355. RY*(  16) N  73                  0.00001     4.24003   
  1356. RY*(  17) N  73                  0.00001     4.38902   
  1357. RY*(  18) N  73                  0.00001     4.62384   
  1358. RY*(  19) N  73                  0.00001     3.74341   
  1359. RY*(  20) N  73                  0.00000     4.41933   
  1360. RY*(  21) N  73                  0.00001     4.54207   
  1361. RY*(  22) N  73                  0.00000    31.71879   
  1362. RY*(  23) N  73                  0.00000     4.64312   
  1363. RY*(  24) N  73                  0.00000     4.61868   
  1364. RY*(  25) N  73                  0.00000     4.63671   
  1365. RY*(  26) N  73                  0.00000     4.59840   
  1366. RY*(   1) C  74                  0.00365     1.62316   
  1367. RY*(   2) C  74                  0.00259     0.72522   
  1368. RY*(   3) C  74                  0.00172     1.75257   
  1369. RY*(   4) C  74                  0.00066     2.02451   
  1370. RY*(   5) C  74                  0.00057     1.67550   
  1371. RY*(   6) C  74                  0.00047     1.74576   
  1372. RY*(   7) C  74                  0.00045     1.92574   
  1373. RY*(   8) C  74                  0.00020     1.75473   
  1374. RY*(   9) C  74                  0.00015     1.86029   
  1375. RY*(  10) C  74                  0.00012     1.66837   
  1376. RY*(  11) C  74                  0.00007     2.10438   
  1377. RY*(  12) C  74                  0.00008     1.73001   
  1378. RY*(  13) C  74                  0.00005     2.72619   
  1379. RY*(  14) C  74                  0.00004     2.95836   
  1380. RY*(  15) C  74                  0.00003     2.30098   
  1381. RY*(  16) C  74                  0.00002     4.63397   
  1382. RY*(  17) C  74                  0.00000     3.21136   
  1383. RY*(  18) C  74                  0.00001     3.72210   
  1384. RY*(  19) C  74                  0.00000    18.84752   
  1385. RY*(  20) C  74                  0.00001     3.26923   
  1386. RY*(  21) C  74                  0.00001     3.80748   
  1387. RY*(  22) C  74                  0.00001     3.78043   
  1388. RY*(  23) C  74                  0.00000     3.31777   
  1389. RY*(  24) C  74                  0.00000     3.60989   
  1390. RY*(  25) C  74                  0.00000     3.52310   
  1391. RY*(  26) C  74                  0.00000     3.52252   
  1392. RY*(   1) H  75                  0.00060     0.94882   
  1393. RY*(   2) H  75                  0.00025     2.27487   
  1394. RY*(   3) H  75                  0.00023     2.19494   
  1395. RY*(   4) H  75                  0.00007     2.66401   
  1396. RY*(   5) H  75                  0.00001     3.09397   
  1476. BD*(   1) C  64 - H  65          0.01162     0.35503   
  1477. BD*(   1) C  64 - H  66          0.01179     0.35483   
  1478. BD*(   1) C  64 - H  67          0.00341     0.36843   
  1479. BD*(   1) C  64 - C  70          0.01353     0.38387   
  1480. BD*(   1) N  68 - H  69          0.01406     0.36057   
  1481. BD*(   1) N  68 - C  70          0.02729     0.42394   
  1482. BD*(   1) N  68 - C  71          0.02227     0.44006   
  1483. BD*(   1) C  70 - C  74          0.02104     0.55912   
  1484. BD*(   2) C  70 - C  74          0.29710     0.02858  1487(v),1477(v),1476(v)
                                                    1372(g),1287(g),1426(r)
  1485. BD*(   1) C  71 - H  72          0.01791     0.38255   
  1486. BD*(   1) C  71 - N  73          0.01538     0.52946   
  1487. BD*(   2) C  71 - N  73          0.42282    -0.01412  1484(v),1310(g),1341(g)
                                                    1367(v),150(r),1403(r)
                                                    154(r)
  1488. BD*(   1) N  73 - C  74          0.01571     0.47366   
  1489. BD*(   1) C  74 - H  75          0.01422     0.42454   
       -------------------------------
              Total Lewis   42.70156  ( 97.7497%)
        Valence non-Lewis    0.90816  (  2.0789%)
        Rydberg non-Lewis    0.07486  (  0.1714%)
       -------------------------------
            Total unit  3   43.68458  (100.0000%)
           Charge unit  3    0.31542
 Unable to Open any file for archive entry.
 1\1\GINC-BGN1020\SP\RAPFD\def2TZVP\C34H34Fe1N6\BEBJONES\23-Jul-2024\0\
 \# apfd/def2TZVP int=(grid=ultrafine) geom=check guess=read pop=nbo sc
 f=qc\\1h5g_II_S_nbo\\0,1\Fe,0,3.2632342609,1.9724420401,11.6844561462\
 N,0,1.6280005607,1.8724622669,10.5528382235\N,0,2.2632586108,3.1512773
 426,12.9727998575\N,0,4.9354440558,2.3849288131,12.6781717992\N,0,4.28
 01855359,0.927814406,10.3487334602\C,0,1.493601394,1.1798035655,9.3834
 446406\C,0,0.1338717767,1.2509213428,8.8973738391\C,0,-0.545853183,2.0
 301706652,9.7799660186\C,0,0.4003333625,2.4021195528,10.808181204\C,0,
 0.9264034622,3.4099543289,12.9727995801\C,0,0.5301267179,4.0816485836,
 14.1902194902\C,0,1.664350431,4.243436814,14.9225801429\C,0,2.74041866
 44,3.7029716591,14.1232660388\C,0,5.1026345414,3.2136173405,13.7432712
 76\C,0,6.5019494194,3.3227076415,14.1016919088\C,0,7.1743268822,2.4839
 400755,13.2530529438\C,0,6.1791784215,1.8937787018,12.3947488484\C,0,5
 .5745880729,0.5192641272,10.4568014481\C,0,5.9146528749,-0.385011898,9
 .3770962889\C,0,4.8023207968,-0.4576113452,8.5811430419\C,0,3.79644131
 66,0.3537223529,9.2117084934\C,0,2.4954074996,0.4711019921,8.751837902
 4\H,0,2.2456603053,-0.0355338628,7.8318713865\C,0,0.0543141651,3.09938
 30343,11.9488768573\H,0,-0.9721276701,3.4163675145,12.0505263694\C,0,4
 .074686326,3.7831188607,14.4700760214\H,0,4.3306650167,4.3256770542,15
 .3673138249\C,0,6.4748517456,0.9900892155,11.3909426542\H,0,7.49684248
 52,0.6560940898,11.3042584923\C,0,-0.3487983607,0.5939207299,7.6497554
 701\H,0,-0.1999650698,-0.4850823633,7.7001083847\H,0,0.1964718605,0.96
 99892755,6.7839013463\H,0,-1.4078478884,0.7859301595,7.497017813\C,0,-
 1.9754525839,2.4498576557,9.7634804779\H,0,-2.0535886369,3.5364552147,
 9.791172067\H,0,-2.5038088962,2.0505913416,10.6299000233\H,0,-2.473023
 7202,2.0933383107,8.8649646832\C,0,4.6055487288,-1.2444911416,7.331556
 7952\H,0,5.5395353338,-1.7032706291,7.0172493292\H,0,4.2436884662,-0.6
 027468428,6.5282548055\H,0,3.8721193596,-2.0373273096,7.4856736541\C,0
 ,7.1738153678,-1.0712699451,9.1752489546\H,0,7.4846779097,-1.175775040
 2,8.1412521601\C,0,7.9277948024,-1.601804851,10.1314992072\H,0,7.63899
 64605,-1.5738680957,11.1685596377\H,0,8.8530859924,-2.1052306797,9.905
 0221773\C,0,8.6414539306,2.2567945896,13.1444529087\H,0,8.9412563067,2
 .1678400379,12.1016050887\H,0,8.9322713303,1.3394373929,13.659088351\H
 ,0,9.1811358635,3.0882958637,13.5929462595\C,0,7.0125069053,4.18736050
 28,15.1424578808\H,0,6.4631512042,5.1101096584,15.2899489568\C,0,8.069
 0892277,3.9352439391,15.9083026015\H,0,8.6225024789,3.0152214849,15.83
 68803166\H,0,8.4026061063,4.6358399698,16.6557425743\C,0,1.8470316886,
 4.8793617012,16.2576489919\H,0,2.4254180529,5.7995164179,16.1676665742
 \H,0,2.3807568809,4.2098275087,16.9318989189\H,0,0.886160559,5.1236535
 442,16.7038983921\C,0,-0.8687381704,4.4797355721,14.513761535\H,0,-1.2
 330913789,5.2121782306,13.793042054\H,0,-0.9253073451,4.9208205126,15.
 5058157297\H,0,-1.5316684714,3.6150701013,14.4817826329\C,0,2.52664614
 68,-1.7993844693,15.7423651817\H,0,3.1490824936,-2.6938064455,15.73004
 97868\H,0,1.5067218197,-2.0972563912,15.9848145566\H,0,2.8887581838,-1
 .1337397281,16.5193746529\N,0,2.1883432658,-1.7085035567,13.2632016797
 \H,0,1.8456649381,-2.6510061167,13.1736569521\C,0,2.5752259875,-1.1054
 925927,14.4307805589\C,0,2.3538708725,-0.8133877337,12.2636748155\H,0,
 2.1292856208,-1.0131996828,11.2353101107\N,0,2.8225956489,0.3230639382
 ,12.7263563554\C,0,2.9651432227,0.1539641671,14.0754694431\H,0,3.33610
 96559,0.9455695192,14.6943409549\\Version=ES64L-G16RevC.02\State=1-A\H
 F=-2907.6040024\RMSD=1.318e-09\Dipole=-1.1455592,-2.0391922,0.8281165\
 Quadrupole=-3.3519794,3.4433675,-0.0913881,2.3632026,0.0573523,0.23053
 14\PG=C01 [X(C34H34Fe1N6)]\\@
 The archive entry for this job was punched.


 FESTINA LENTE!
     - IMPERATOR AUGUSTUS 
 Job cpu time:       0 days  0 hours 41 minutes 30.9 seconds.
 Elapsed time:       0 days  0 hours  0 minutes 51.1 seconds.
 File lengths (MBytes):  RWF=    749 Int=      0 D2E=      0 Chk=    150 Scr=      1
 Normal termination of Gaussian 16 at Tue Jul 23 00:09:55 2024.
