 Entering Gaussian System, Link 0=g16
 Input=1h5i12re.com
 Output=1h5i12re.log
 Initial command:
 /sw/chem/gaussian/g16_C02/a100/g16/l1.exe "/local/bebjones_7947509/Gau-1272271.inp" -scrdir="/local/bebjones_7947509/"
 Entering Link 1 = /sw/chem/gaussian/g16_C02/a100/g16/l1.exe PID=   1272272.
  
 Copyright (c) 1988-2021, Gaussian, Inc.  All Rights Reserved.
  
 This is part of the Gaussian(R) 16 program.  It is based on
 the Gaussian(R) 09 system (copyright 2009, Gaussian, Inc.),
 the Gaussian(R) 03 system (copyright 2003, Gaussian, Inc.),
 the Gaussian(R) 98 system (copyright 1998, Gaussian, Inc.),
 the Gaussian(R) 94 system (copyright 1995, Gaussian, Inc.),
 the Gaussian 92(TM) system (copyright 1992, Gaussian, Inc.),
 the Gaussian 90(TM) system (copyright 1990, Gaussian, Inc.),
 the Gaussian 88(TM) system (copyright 1988, Gaussian, Inc.),
 the Gaussian 86(TM) system (copyright 1986, Carnegie Mellon
 University), and the Gaussian 82(TM) system (copyright 1983,
 Carnegie Mellon University). Gaussian is a federally registered
 trademark of Gaussian, Inc.
  
 This software contains proprietary and confidential information,
 including trade secrets, belonging to Gaussian, Inc.
  
 This software is provided under written license and may be
 used, copied, transmitted, or stored only in accord with that
 written license.
  
 The following legend is applicable only to US Government
 contracts under FAR:
  
                    RESTRICTED RIGHTS LEGEND
  
 Use, reproduction and disclosure by the US Government is
 subject to restrictions as set forth in subparagraphs (a)
 and (c) of the Commercial Computer Software - Restricted
 Rights clause in FAR 52.227-19.
  
 Gaussian, Inc.
 340 Quinnipiac St., Bldg. 40, Wallingford CT 06492
  
  
 ---------------------------------------------------------------
 Warning -- This program may not be used in any manner that
 competes with the business of Gaussian, Inc. or will provide
 assistance to any competitor of Gaussian, Inc.  The licensee
 of this program is prohibited from giving any competitor of
 Gaussian, Inc. access to this program.  By using this program,
 the user acknowledges that Gaussian, Inc. is engaged in the
 business of creating and licensing software in the field of
 computational chemistry and represents and warrants to the
 licensee that it is not a competitor of Gaussian, Inc. and that
 it will not use this program in any manner prohibited above.
 ---------------------------------------------------------------
  

 Cite this work as:
 Gaussian 16, Revision C.02,
 M. J. Frisch, G. W. Trucks, H. B. Schlegel, G. E. Scuseria, 
 M. A. Robb, J. R. Cheeseman, G. Scalmani, V. Barone, 
 G. A. Petersson, H. Nakatsuji, X. Li, M. Caricato, A. V. Marenich, 
 J. Bloino, B. G. Janesko, R. Gomperts, B. Mennucci, H. P. Hratchian, 
 J. V. Ortiz, A. F. Izmaylov, J. L. Sonnenberg, D. Williams-Young, 
 F. Ding, F. Lipparini, F. Egidi, J. Goings, B. Peng, A. Petrone, 
 T. Henderson, D. Ranasinghe, V. G. Zakrzewski, J. Gao, N. Rega, 
 G. Zheng, W. Liang, M. Hada, M. Ehara, K. Toyota, R. Fukuda, 
 J. Hasegawa, M. Ishida, T. Nakajima, Y. Honda, O. Kitao, H. Nakai, 
 T. Vreven, K. Throssell, J. A. Montgomery, Jr., J. E. Peralta, 
 F. Ogliaro, M. J. Bearpark, J. J. Heyd, E. N. Brothers, K. N. Kudin, 
 V. N. Staroverov, T. A. Keith, R. Kobayashi, J. Normand, 
 K. Raghavachari, A. P. Rendell, J. C. Burant, S. S. Iyengar, 
 J. Tomasi, M. Cossi, J. M. Millam, M. Klene, C. Adamo, R. Cammi, 
 J. W. Ochterski, R. L. Martin, K. Morokuma, O. Farkas, 
 J. B. Foresman, and D. J. Fox, Gaussian, Inc., Wallingford CT, 2019.
 
 ******************************************
 Gaussian 16:  ES64L-G16RevC.02  7-Dec-2021
                23-Jul-2024 
 ******************************************
 %mem=16GB
 %CPU=0-71
 SetSPE:  set environment variable "OMP_PROC_BIND" = "true"
 SetSPE:  set environment variable "OMP_PLACES" = "{0},{1},{2},{3},{4},{5},{6},{7},{8},{9},{10},{11},{12},{13},{14},{15},{16},{17},{18},{19},{20},{21},{22},{23},{24},{25},{26},{27},{28},{29},{30},{31},{32},{33},{34},{35},{36},{37},{38},{39},{40},{41},{42},{43},{44},{45},{46},{47},{48},{49},{50},{51},{52},{53},{54},{55},{56},{57},{58},{59},{60},{61},{62},{63},{64},{65},{66},{67},{68},{69},{70},{71}"
 Will use up to   72 processors via shared memory.
 %gpucpu=0,1,2,3=0,1,2,3
 Will use    4 GPUs:
 Thread  CPU   GPU
      0    0     0
      1    1     1
      2    2     2
      3    3     3
      4    4    -1
      5    5    -1
      6    6    -1
      7    7    -1
      8    8    -1
      9    9    -1
     10   10    -1
     11   11    -1
     12   12    -1
     13   13    -1
     14   14    -1
     15   15    -1
     16   16    -1
     17   17    -1
     18   18    -1
     19   19    -1
     20   20    -1
     21   21    -1
     22   22    -1
     23   23    -1
     24   24    -1
     25   25    -1
     26   26    -1
     27   27    -1
     28   28    -1
     29   29    -1
     30   30    -1
     31   31    -1
     32   32    -1
     33   33    -1
     34   34    -1
     35   35    -1
     36   36    -1
     37   37    -1
     38   38    -1
     39   39    -1
     40   40    -1
     41   41    -1
     42   42    -1
     43   43    -1
     44   44    -1
     45   45    -1
     46   46    -1
     47   47    -1
     48   48    -1
     49   49    -1
     50   50    -1
     51   51    -1
     52   52    -1
     53   53    -1
     54   54    -1
     55   55    -1
     56   56    -1
     57   57    -1
     58   58    -1
     59   59    -1
     60   60    -1
     61   61    -1
     62   62    -1
     63   63    -1
     64   64    -1
     65   65    -1
     66   66    -1
     67   67    -1
     68   68    -1
     69   69    -1
     70   70    -1
     71   71    -1
 SetGPE:  set environment variable "OMP_PROC_BIND" = "true"
 SetGPE:  set environment variable "OMP_PLACES" = "{0},{1},{2},{3},{4},{5},{6},{7},{8},{9},{10},{11},{12},{13},{14},{15},{16},{17},{18},{19},{20},{21},{22},{23},{24},{25},{26},{27},{28},{29},{30},{31},{32},{33},{34},{35},{36},{37},{38},{39},{40},{41},{42},{43},{44},{45},{46},{47},{48},{49},{50},{51},{52},{53},{54},{55},{56},{57},{58},{59},{60},{61},{62},{63},{64},{65},{66},{67},{68},{69},{70},{71}"
 %oldchk=1h5i_II_S.chk
 %chk=1h5i_II_Sre.chk
 Properties for Device   0
 Minimum vector length:                              32
 Maximum vector length:                            1024
 Number of SMPs:                                    108
 Maximum number of threads per SMP:                2048
 Number of ASync Engines:                             5
 Memory:                                           9207742464
 Properties for Device   1
 Minimum vector length:                              32
 Maximum vector length:                            1024
 Number of SMPs:                                    108
 Maximum number of threads per SMP:                2048
 Number of ASync Engines:                             5
 Memory:                                           9207742464
 Properties for Device   2
 Minimum vector length:                              32
 Maximum vector length:                            1024
 Number of SMPs:                                    108
 Maximum number of threads per SMP:                2048
 Number of ASync Engines:                             5
 Memory:                                           9207742464
 Properties for Device   3
 Minimum vector length:                              32
 Maximum vector length:                            1024
 Number of SMPs:                                    108
 Maximum number of threads per SMP:                2048
 Number of ASync Engines:                             5
 Memory:                                           9207742464
   8286968217 words of memory will be used on each GPU.
 Copying data from "1h5i_II_S.chk" to current chk file "1h5i_II_Sre.chk"
 IOpt=  2 FromEx=T IUOpen= 4 IOptOp= 5 NList=   0 IFRang= 0 IUIn= 4 IUOut= 2.
 --------------------------------------
 # apfd/gen scf=maxcycle=999 geom=check
 --------------------------------------
 1/29=2,38=1,172=1/1;
 2/12=2,40=1/2;
 3/5=7,11=2,14=-4,25=1,30=1,74=-44/1,2,3;
 4//1;
 5/5=2,7=999,38=5/2;
 6/7=2,8=2,9=2,10=2,28=1/1;
 99/5=1,9=1/99;
 ----------
 1h5i_III_D
 ----------
 Structure from the checkpoint file:  "1h5i_II_Sre.chk"
 Charge =  1 Multiplicity = 2
 Z-Matrix found in chk file.
 Fe,0,3.2812694467,1.9798027769,11.6935910367
 N,0,1.6661347587,1.8947542846,10.5252341164
 N,0,2.2934962023,3.1627803497,12.9595424416
 N,0,4.9640801973,2.3690875975,12.6747956376
 N,0,4.2944561856,0.8913178656,10.3695923187
 C,0,1.5228873804,1.1772506954,9.3728963785
 C,0,0.1565874003,1.2248289631,8.9031096994
 C,0,-0.5177326258,2.0225005373,9.7734167666
 C,0,0.4377322838,2.4248245613,10.7815425145
 C,0,0.9612756588,3.4410941781,12.9457169678
 C,0,0.5595630113,4.0939925167,14.1717401427
 C,0,1.6892766673,4.2378362216,14.915338292
 C,0,2.7669440733,3.6915140367,14.1222014655
 C,0,5.1306979522,3.2005773503,13.7391380749
 C,0,6.5286866288,3.3002095803,14.1051283422
 C,0,7.1997958806,2.4548480693,13.2618381153
 C,0,6.2053436585,1.8696344718,12.3995597211
 C,0,5.5911499657,0.4876168653,10.4722575925
 C,0,5.9286551255,-0.4261272979,9.399882238
 C,0,4.8128479586,-0.5089862111,8.6105822827
 C,0,3.810285101,0.310421706,9.2359503526
 C,0,2.519671737,0.4506192984,8.7547647958
 H,0,2.2703905312,-0.0656656271,7.8401487095
 C,0,0.0938748102,3.1333465118,11.9165101683
 H,0,-0.9316523631,3.4549456417,12.0135698956
 C,0,4.1018495903,3.7663998638,14.4691424746
 H,0,4.3586436845,4.301125097,15.370998837
 C,0,6.4980805893,0.9658325007,11.3956453393
 H,0,7.5195464672,0.6317775531,11.3043422088
 C,0,-0.3363272402,0.5326910038,7.6787010639
 H,0,-0.1826353847,-0.5440466627,7.7561397577
 H,0,0.1983971779,0.8875028903,6.7974463149
 H,0,-1.3977075303,0.7165014428,7.5320246882
 C,0,-1.9512658369,2.4288906357,9.7648419212
 H,0,-2.0389242385,3.5150224429,9.7756554116
 H,0,-2.4674685553,2.039112847,10.6428679469
 H,0,-2.4545180859,2.0533666194,8.8772816151
 C,0,4.6124286748,-1.3068978188,7.3685629776
 H,0,4.3195886728,-0.6597908145,6.5412879867
 H,0,3.8265101204,-2.0499590775,7.508555677
 H,0,5.5274262813,-1.8266551676,7.0965345358
 C,0,7.1893074891,-1.1102545583,9.1980548878
 H,0,7.4967908407,-1.2195235844,8.1636151331
 C,0,7.9487495483,-1.6319247865,10.1547966427
 H,0,7.6641809538,-1.5979983967,11.1928547384
 H,0,8.8751569597,-2.1331515592,9.9279412877
 C,0,8.6655254116,2.2149523496,13.1630606504
 H,0,8.9709991408,2.118608222,12.1225218027
 H,0,8.9452592751,1.2974123885,13.6835398343
 H,0,9.2096558416,3.043790907,13.6110985604
 C,0,7.0402083782,4.162586924,15.1473028401
 H,0,6.4965915831,5.089321053,15.2909118155
 C,0,8.0913644791,3.9036444135,15.918362301
 H,0,8.6380738413,2.9793486973,15.8504720721
 H,0,8.426868723,4.6023260803,16.666704613
 C,0,1.8655483479,4.8531434486,16.2608886757
 H,0,2.4456388306,5.7737251739,16.1874449018
 H,0,2.3950533621,4.1730705039,16.9278150156
 H,0,0.9027630724,5.0924142757,16.7056850322
 C,0,-0.8374773435,4.5049587846,14.48684526
 H,0,-1.1811729989,5.260862359,13.780243663
 H,0,-0.9010121793,4.9214249946,15.4890485213
 H,0,-1.5125891802,3.6515412895,14.4239358862
 C,0,2.5082640132,-1.7742574345,15.7599032767
 H,0,3.1133614868,-2.6803000212,15.7367118659
 H,0,1.4866149563,-2.0531552313,16.0170853389
 H,0,2.8946597941,-1.1171675147,16.5324941803
 N,0,2.1342507793,-1.6720235987,13.2863125719
 H,0,1.7711039878,-2.6072057106,13.2006487785
 C,0,2.5509098381,-1.0790697363,14.448795193
 C,0,2.3047009636,-0.7794079631,12.2854082146
 H,0,2.061197279,-0.9727281161,11.2601281068
 N,0,2.8044046252,0.3461215353,12.7424109238
 C,0,2.9625197738,0.1722010243,14.0892534205
 H,0,3.359186113,0.9548154881,14.703627171
 Recover connectivity data from disk.
 Stoichiometry    C34H34FeN6(1+,2)
 Framework group  C1[X(C34H34FeN6)]
 Deg. of freedom   219
 Full point group                 C1      NOp   1
 Largest Abelian subgroup         C1      NOp   1
 Largest concise Abelian subgroup C1      NOp   1
                         Standard orientation:                         
 ---------------------------------------------------------------------
 Center     Atomic      Atomic             Coordinates (Angstroms)
 Number     Number       Type             X           Y           Z
 ---------------------------------------------------------------------
      1         26           0        0.206123   -0.034612   -0.478159
      2          7           0        2.183419    0.105033   -0.705644
      3          7           0        0.343441   -2.022023   -0.573577
      4          7           0       -1.770005   -0.184972   -0.614060
      5          7           0        0.065299    1.951377   -0.496451
      6          6           0        2.931880    1.246529   -0.702987
      7          6           0        4.343791    0.936593   -0.716635
      8          6           0        4.435580   -0.418806   -0.770390
      9          6           0        3.079229   -0.919992   -0.755545
     10          6           0        1.484094   -2.763810   -0.540056
     11          6           0        1.181563   -4.163555   -0.340132
     12          6           0       -0.174353   -4.257465   -0.289579
     13          6           0       -0.679344   -2.917070   -0.482520
     14          6           0       -2.507711   -1.318931   -0.762009
     15          6           0       -3.911776   -1.005441   -0.931049
     16          6           0       -4.009081    0.356555   -0.823066
     17          6           0       -2.670926    0.841741   -0.602002
     18          6           0       -1.074804    2.686025   -0.372411
     19          6           0       -0.764613    4.096937   -0.263163
     20          6           0        0.595172    4.194548   -0.390998
     21          6           0        1.088591    2.850791   -0.527022
     22          6           0        2.430954    2.530476   -0.638096
     23          1           0        3.137993    3.346019   -0.652247
     24          6           0        2.764568   -2.261840   -0.661608
     25          1           0        3.580406   -2.968195   -0.666426
     26          6           0       -2.016855   -2.604570   -0.628661
     27          1           0       -2.726116   -3.418254   -0.637981
     28          6           0       -2.355567    2.179435   -0.455305
     29          1           0       -3.169414    2.886978   -0.436367
     30          6           0        5.429172    1.957841   -0.702582
     31          1           0        5.363244    2.578326    0.191641
     32          1           0        5.351686    2.610172   -1.572577
     33          1           0        6.406797    1.482588   -0.717187
     34          6           0        5.649502   -1.281534   -0.818724
     35          1           0        5.614566   -1.939226   -1.686885
     36          1           0        5.715812   -1.903677    0.074507
     37          1           0        6.551160   -0.677403   -0.882630
     38          6           0        1.444399    5.418153   -0.358660
     39          1           0        2.033756    5.498981   -1.272450
     40          1           0        2.134815    5.387860    0.485031
     41          1           0        0.828307    6.308379   -0.262246
     42          6           0       -1.699645    5.185122   -0.064217
     43          1           0       -1.460128    6.103657   -0.589075
     44          6           0       -2.770152    5.151979    0.721380
     45          1           0       -3.024017    4.283543    1.305389
     46          1           0       -3.419697    6.005444    0.824396
     47          6           0       -5.215776    1.214690   -0.975252
     48          1           0       -4.972842    2.129301   -1.513571
     49          1           0       -5.619922    1.493620   -0.000627
     50          1           0       -5.986261    0.679612   -1.526464
     51          6           0       -4.942484   -1.987352   -1.185934
     52          1           0       -4.628195   -2.851357   -1.760127
     53          6           0       -6.203752   -1.908849   -0.774164
     54          1           0       -6.557344   -1.097521   -0.162165
     55          1           0       -6.923908   -2.672810   -1.015977
     56          6           0       -1.034413   -5.461162   -0.111840
     57          1           0       -1.594735   -5.668944   -1.024110
     58          1           0       -1.749817   -5.306201    0.695532
     59          1           0       -0.432238   -6.335144    0.123932
     60          6           0        2.207763   -5.237783   -0.226758
     61          1           0        2.772854   -5.324834   -1.155142
     62          1           0        1.741073   -6.197786   -0.020636
     63          1           0        2.909837   -5.015337    0.576775
     64          6           0       -0.706300   -1.097201    4.931443
     65          1           0       -1.134039   -0.301174    5.540519
     66          1           0        0.087937   -1.575415    5.504323
     67          1           0       -1.478398   -1.831913    4.726433
     68          7           0        0.797802    0.399436    3.602254
     69          1           0        1.246875    0.823006    4.397679
     70          6           0       -0.181675   -0.556973    3.651978
     71          6           0        1.042740    0.669818    2.300515
     72          1           0        1.766332    1.383251    1.960964
     73          7           0        0.277678   -0.058244    1.519504
     74          6           0       -0.490045   -0.826948    2.349521
     75          1           0       -1.207370   -1.517603    1.954898
 ---------------------------------------------------------------------
 Rotational constants (GHZ):           0.0976651           0.0934971           0.0604860
 General basis read from cards:  (5D, 7F)
 There are   704 symmetry adapted cartesian basis functions of A   symmetry.
 There are   661 symmetry adapted basis functions of A   symmetry.
   661 basis functions,  1342 primitive gaussians,   704 cartesian basis functions
   153 alpha electrons      152 beta electrons
       nuclear repulsion energy      5598.3071885245 Hartrees.
 NAtoms=   75 NActive=   75 NUniq=   75 SFac= 1.00D+00 NAtFMM=   60 NAOKFM=T Big=T
 Integral buffers will be    131072 words long.
 Raffenetti 2 integral format.
 Two-electron integral symmetry is turned on.
 R6APFD:  NTU= -4 IXU= 1 FactS= 1.050
 Nuclear repulsion after empirical dispersion term =     5598.1725251816 Hartrees.
 One-electron integrals computed using PRISM.
 NBasis=   661 RedAO= T EigKep=  2.65D-04  NBF=   661
 NBsUse=   661 1.00D-06 EigRej= -1.00D+00 NBFU=   661
 ExpMin= 4.20D-02 ExpMax= 3.01D+05 ExpMxC= 2.91D+03 IAcc=3 IRadAn=         5 AccDes= 0.00D+00
 Harris functional with IExCor= 3731 and IRadAn=       5 diagonalized for initial guess.
 HarFok:  IExCor= 3731 AccDes= 0.00D+00 IRadAn=         5 IDoV= 1 UseB2=F ITyADJ=14
 ICtDFT=  3500011 ScaDFX=  1.000000  1.000000  1.000000  1.000000
 FoFCou: FMM=F IPFlag=           0 FMFlag=      100000 FMFlg1=        2001
         NFxFlg=           0 DoJE=T BraDBF=F KetDBF=T FulRan=T
         wScrn=  0.000000 ICntrl=       500 IOpCl=  0 I1Cent=   200000004 NGrid=           0
         NMat0=    1 NMatS0=      1 NMatT0=    0 NMatD0=    1 NMtDS0=    0 NMtDT0=    0
 Petite list used in FoFCou.
 Initial guess <Sx>= 0.0000 <Sy>= 0.0000 <Sz>= 0.5000 <S**2>= 0.7500 S= 0.5000
 Requested convergence on RMS density matrix=1.00D-08 within 999 cycles.
 Requested convergence on MAX density matrix=1.00D-06.
 Requested convergence on             energy=1.00D-06.
 No special actions if energy rises.
 EnCoef did   100 forward-backward iterations
 EnCoef did   100 forward-backward iterations
 EnCoef did   100 forward-backward iterations
 EnCoef did   100 forward-backward iterations
 EnCoef did     2 forward-backward iterations
 EnCoef did     7 forward-backward iterations
 EnCoef did     6 forward-backward iterations
 Restarting incremental Fock formation.
 Rare condition: small coef for last iteration:  0.000D+00
 Rare condition: small coef for last iteration:  0.000D+00
 Rare condition: small coef for last iteration:  0.000D+00
 Rare condition: small coef for last iteration:  0.000D+00
 Restarting incremental Fock formation.
 Restarting incremental Fock formation.
 Restarting incremental Fock formation.
 Restarting incremental Fock formation.
 SCF Done:  E(UAPFD) =  -2906.83004475     A.U. after  113 cycles
            NFock=113  Conv=0.48D-08     -V/T= 2.0038
 <Sx>= 0.0000 <Sy>= 0.0000 <Sz>= 0.5000 <S**2>= 0.9408 S= 0.5913
 <L.S>=  0.00000000000    
 Annihilation of the first spin contaminant:
 S**2 before annihilation     0.9408,   after     0.7574

 **********************************************************************

            Population analysis using the SCF Density.

 **********************************************************************

 Orbital symmetries:
 Alpha Orbitals:
       Occupied  (A) (A) (A) (A) (A) (A) (A) (A) (A) (A) (A) (A)
                 (A) (A) (A) (A) (A) (A) (A) (A) (A) (A) (A) (A)
                 (A) (A) (A) (A) (A) (A) (A) (A) (A) (A) (A) (A)
                 (A) (A) (A) (A) (A) (A) (A) (A) (A) (A) (A) (A)
                 (A) (A) (A) (A) (A) (A) (A) (A) (A) (A) (A) (A)
                 (A) (A) (A) (A) (A) (A) (A) (A) (A) (A) (A) (A)
                 (A) (A) (A) (A) (A) (A) (A) (A) (A) (A) (A) (A)
                 (A) (A) (A) (A) (A) (A) (A) (A) (A) (A) (A) (A)
                 (A) (A) (A) (A) (A) (A) (A) (A) (A) (A) (A) (A)
                 (A) (A) (A) (A) (A) (A) (A) (A) (A) (A) (A) (A)
                 (A) (A) (A) (A) (A) (A) (A) (A) (A) (A) (A) (A)
                 (A) (A) (A) (A) (A) (A) (A) (A) (A) (A) (A) (A)
                 (A) (A) (A) (A) (A) (A) (A) (A) (A)
       Virtual   (A) (A) (A) (A) (A) (A) (A) (A) (A) (A) (A) (A)
                 (A) (A) (A) (A) (A) (A) (A) (A) (A) (A) (A) (A)
                 (A) (A) (A) (A) (A) (A) (A) (A) (A) (A) (A) (A)
                 (A) (A) (A) (A) (A) (A) (A) (A) (A) (A) (A) (A)
                 (A) (A) (A) (A) (A) (A) (A) (A) (A) (A) (A) (A)
                 (A) (A) (A) (A) (A) (A) (A) (A) (A) (A) (A) (A)
                 (A) (A) (A) (A) (A) (A) (A) (A) (A) (A) (A) (A)
                 (A) (A) (A) (A) (A) (A) (A) (A) (A) (A) (A) (A)
                 (A) (A) (A) (A) (A) (A) (A) (A) (A) (A) (A) (A)
                 (A) (A) (A) (A) (A) (A) (A) (A) (A) (A) (A) (A)
                 (A) (A) (A) (A) (A) (A) (A) (A) (A) (A) (A) (A)
                 (A) (A) (A) (A) (A) (A) (A) (A) (A) (A) (A) (A)
                 (A) (A) (A) (A) (A) (A) (A) (A) (A) (A) (A) (A)
                 (A) (A) (A) (A) (A) (A) (A) (A) (A) (A) (A) (A)
                 (A) (A) (A) (A) (A) (A) (A) (A) (A) (A) (A) (A)
                 (A) (A) (A) (A) (A) (A) (A) (A) (A) (A) (A) (A)
                 (A) (A) (A) (A) (A) (A) (A) (A) (A) (A) (A) (A)
                 (A) (A) (A) (A) (A) (A) (A) (A) (A) (A) (A) (A)
                 (A) (A) (A) (A) (A) (A) (A) (A) (A) (A) (A) (A)
                 (A) (A) (A) (A) (A) (A) (A) (A) (A) (A) (A) (A)
                 (A) (A) (A) (A) (A) (A) (A) (A) (A) (A) (A) (A)
                 (A) (A) (A) (A) (A) (A) (A) (A) (A) (A) (A) (A)
                 (A) (A) (A) (A) (A) (A) (A) (A) (A) (A) (A) (A)
                 (A) (A) (A) (A) (A) (A) (A) (A) (A) (A) (A) (A)
                 (A) (A) (A) (A) (A) (A) (A) (A) (A) (A) (A) (A)
                 (A) (A) (A) (A) (A) (A) (A) (A) (A) (A) (A) (A)
                 (A) (A) (A) (A) (A) (A) (A) (A) (A) (A) (A) (A)
                 (A) (A) (A) (A) (A) (A) (A) (A) (A) (A) (A) (A)
                 (A) (A) (A) (A) (A) (A) (A) (A) (A) (A) (A) (A)
                 (A) (A) (A) (A) (A) (A) (A) (A) (A) (A) (A) (A)
                 (A) (A) (A) (A) (A) (A) (A) (A) (A) (A) (A) (A)
                 (A) (A) (A) (A) (A) (A) (A) (A) (A) (A) (A) (A)
                 (A) (A) (A) (A) (A) (A) (A) (A) (A) (A) (A) (A)
                 (A) (A) (A) (A) (A) (A) (A) (A) (A) (A) (A) (A)
                 (A) (A) (A) (A) (A) (A) (A) (A) (A) (A) (A) (A)
                 (A) (A) (A) (A) (A) (A) (A) (A) (A) (A) (A) (A)
                 (A) (A) (A) (A) (A) (A) (A) (A) (A) (A) (A) (A)
                 (A) (A) (A) (A) (A) (A) (A) (A) (A) (A) (A) (A)
                 (A) (A) (A) (A) (A) (A) (A) (A) (A) (A) (A) (A)
                 (A) (A) (A) (A) (A) (A) (A) (A) (A) (A) (A) (A)
                 (A) (A) (A) (A) (A) (A) (A) (A) (A) (A) (A) (A)
                 (A) (A) (A) (A) (A) (A) (A) (A) (A) (A) (A) (A)
                 (A) (A) (A) (A)
 Beta  Orbitals:
       Occupied  (A) (A) (A) (A) (A) (A) (A) (A) (A) (A) (A) (A)
                 (A) (A) (A) (A) (A) (A) (A) (A) (A) (A) (A) (A)
                 (A) (A) (A) (A) (A) (A) (A) (A) (A) (A) (A) (A)
                 (A) (A) (A) (A) (A) (A) (A) (A) (A) (A) (A) (A)
                 (A) (A) (A) (A) (A) (A) (A) (A) (A) (A) (A) (A)
                 (A) (A) (A) (A) (A) (A) (A) (A) (A) (A) (A) (A)
                 (A) (A) (A) (A) (A) (A) (A) (A) (A) (A) (A) (A)
                 (A) (A) (A) (A) (A) (A) (A) (A) (A) (A) (A) (A)
                 (A) (A) (A) (A) (A) (A) (A) (A) (A) (A) (A) (A)
                 (A) (A) (A) (A) (A) (A) (A) (A) (A) (A) (A) (A)
                 (A) (A) (A) (A) (A) (A) (A) (A) (A) (A) (A) (A)
                 (A) (A) (A) (A) (A) (A) (A) (A) (A) (A) (A) (A)
                 (A) (A) (A) (A) (A) (A) (A) (A)
       Virtual   (A) (A) (A) (A) (A) (A) (A) (A) (A) (A) (A) (A)
                 (A) (A) (A) (A) (A) (A) (A) (A) (A) (A) (A) (A)
                 (A) (A) (A) (A) (A) (A) (A) (A) (A) (A) (A) (A)
                 (A) (A) (A) (A) (A) (A) (A) (A) (A) (A) (A) (A)
                 (A) (A) (A) (A) (A) (A) (A) (A) (A) (A) (A) (A)
                 (A) (A) (A) (A) (A) (A) (A) (A) (A) (A) (A) (A)
                 (A) (A) (A) (A) (A) (A) (A) (A) (A) (A) (A) (A)
                 (A) (A) (A) (A) (A) (A) (A) (A) (A) (A) (A) (A)
                 (A) (A) (A) (A) (A) (A) (A) (A) (A) (A) (A) (A)
                 (A) (A) (A) (A) (A) (A) (A) (A) (A) (A) (A) (A)
                 (A) (A) (A) (A) (A) (A) (A) (A) (A) (A) (A) (A)
                 (A) (A) (A) (A) (A) (A) (A) (A) (A) (A) (A) (A)
                 (A) (A) (A) (A) (A) (A) (A) (A) (A) (A) (A) (A)
                 (A) (A) (A) (A) (A) (A) (A) (A) (A) (A) (A) (A)
                 (A) (A) (A) (A) (A) (A) (A) (A) (A) (A) (A) (A)
                 (A) (A) (A) (A) (A) (A) (A) (A) (A) (A) (A) (A)
                 (A) (A) (A) (A) (A) (A) (A) (A) (A) (A) (A) (A)
                 (A) (A) (A) (A) (A) (A) (A) (A) (A) (A) (A) (A)
                 (A) (A) (A) (A) (A) (A) (A) (A) (A) (A) (A) (A)
                 (A) (A) (A) (A) (A) (A) (A) (A) (A) (A) (A) (A)
                 (A) (A) (A) (A) (A) (A) (A) (A) (A) (A) (A) (A)
                 (A) (A) (A) (A) (A) (A) (A) (A) (A) (A) (A) (A)
                 (A) (A) (A) (A) (A) (A) (A) (A) (A) (A) (A) (A)
                 (A) (A) (A) (A) (A) (A) (A) (A) (A) (A) (A) (A)
                 (A) (A) (A) (A) (A) (A) (A) (A) (A) (A) (A) (A)
                 (A) (A) (A) (A) (A) (A) (A) (A) (A) (A) (A) (A)
                 (A) (A) (A) (A) (A) (A) (A) (A) (A) (A) (A) (A)
                 (A) (A) (A) (A) (A) (A) (A) (A) (A) (A) (A) (A)
                 (A) (A) (A) (A) (A) (A) (A) (A) (A) (A) (A) (A)
                 (A) (A) (A) (A) (A) (A) (A) (A) (A) (A) (A) (A)
                 (A) (A) (A) (A) (A) (A) (A) (A) (A) (A) (A) (A)
                 (A) (A) (A) (A) (A) (A) (A) (A) (A) (A) (A) (A)
                 (A) (A) (A) (A) (A) (A) (A) (A) (A) (A) (A) (A)
                 (A) (A) (A) (A) (A) (A) (A) (A) (A) (A) (A) (A)
                 (A) (A) (A) (A) (A) (A) (A) (A) (A) (A) (A) (A)
                 (A) (A) (A) (A) (A) (A) (A) (A) (A) (A) (A) (A)
                 (A) (A) (A) (A) (A) (A) (A) (A) (A) (A) (A) (A)
                 (A) (A) (A) (A) (A) (A) (A) (A) (A) (A) (A) (A)
                 (A) (A) (A) (A) (A) (A) (A) (A) (A) (A) (A) (A)
                 (A) (A) (A) (A) (A) (A) (A) (A) (A) (A) (A) (A)
                 (A) (A) (A) (A) (A) (A) (A) (A) (A) (A) (A) (A)
                 (A) (A) (A) (A) (A) (A) (A) (A) (A) (A) (A) (A)
                 (A) (A) (A) (A) (A)
 The electronic state is 2-A.
 Alpha  occ. eigenvalues -- -256.37246 -30.24203 -26.08807 -26.08640 -26.05964
 Alpha  occ. eigenvalues --  -14.54977 -14.52033 -14.48367 -14.48301 -14.47732
 Alpha  occ. eigenvalues --  -14.47655 -10.39185 -10.36218 -10.33969 -10.33823
 Alpha  occ. eigenvalues --  -10.33766 -10.33759 -10.33654 -10.33598 -10.33572
 Alpha  occ. eigenvalues --  -10.33470 -10.33428 -10.31147 -10.31098 -10.30946
 Alpha  occ. eigenvalues --  -10.30763 -10.30760 -10.30710 -10.30696 -10.30629
 Alpha  occ. eigenvalues --  -10.30401 -10.30385 -10.30181 -10.30172 -10.30105
 Alpha  occ. eigenvalues --  -10.29589 -10.29514 -10.28676 -10.28545 -10.28439
 Alpha  occ. eigenvalues --  -10.28315 -10.28283 -10.28268 -10.28247 -10.28077
 Alpha  occ. eigenvalues --   -3.63563  -2.42053  -2.41466  -2.35524  -1.17768
 Alpha  occ. eigenvalues --   -1.09270  -1.08417  -1.08017  -1.07205  -1.03558
 Alpha  occ. eigenvalues --   -0.93870  -0.92357  -0.92047  -0.91642  -0.91475
 Alpha  occ. eigenvalues --   -0.91267  -0.91003  -0.90892  -0.87060  -0.85798
 Alpha  occ. eigenvalues --   -0.85483  -0.84545  -0.83126  -0.82940  -0.81230
 Alpha  occ. eigenvalues --   -0.80259  -0.78785  -0.78620  -0.78221  -0.76749
 Alpha  occ. eigenvalues --   -0.75543  -0.75292  -0.73199  -0.70831  -0.70583
 Alpha  occ. eigenvalues --   -0.68737  -0.68552  -0.67674  -0.65283  -0.64921
 Alpha  occ. eigenvalues --   -0.64290  -0.63051  -0.62100  -0.61801  -0.61159
 Alpha  occ. eigenvalues --   -0.59730  -0.59039  -0.58905  -0.58494  -0.58097
 Alpha  occ. eigenvalues --   -0.56466  -0.55701  -0.55494  -0.55122  -0.54685
 Alpha  occ. eigenvalues --   -0.54368  -0.54187  -0.54013  -0.53600  -0.53544
 Alpha  occ. eigenvalues --   -0.53071  -0.52817  -0.52666  -0.52539  -0.52124
 Alpha  occ. eigenvalues --   -0.51226  -0.50912  -0.50671  -0.50604  -0.50595
 Alpha  occ. eigenvalues --   -0.50331  -0.50228  -0.50148  -0.49864  -0.49814
 Alpha  occ. eigenvalues --   -0.49373  -0.48804  -0.48722  -0.48404  -0.48159
 Alpha  occ. eigenvalues --   -0.47956  -0.47711  -0.47436  -0.46953  -0.46460
 Alpha  occ. eigenvalues --   -0.46036  -0.45884  -0.44945  -0.44338  -0.43996
 Alpha  occ. eigenvalues --   -0.43635  -0.43156  -0.42754  -0.41828  -0.41701
 Alpha  occ. eigenvalues --   -0.40135  -0.39628  -0.39320  -0.38851  -0.37252
 Alpha  occ. eigenvalues --   -0.37003  -0.35388  -0.34471  -0.33172  -0.32375
 Alpha  occ. eigenvalues --   -0.31828  -0.30267  -0.28934
 Alpha virt. eigenvalues --   -0.22512  -0.17446  -0.17267  -0.14321  -0.11724
 Alpha virt. eigenvalues --   -0.09736  -0.08150  -0.07046  -0.05585  -0.04777
 Alpha virt. eigenvalues --   -0.02560  -0.02101  -0.01862  -0.01194   0.00675
 Alpha virt. eigenvalues --    0.01020   0.01777   0.02717   0.03015   0.03311
 Alpha virt. eigenvalues --    0.03844   0.03886   0.04033   0.04464   0.04803
 Alpha virt. eigenvalues --    0.04971   0.05269   0.05469   0.06196   0.06548
 Alpha virt. eigenvalues --    0.07077   0.07113   0.07398   0.07737   0.07899
 Alpha virt. eigenvalues --    0.08355   0.08596   0.08776   0.08920   0.09226
 Alpha virt. eigenvalues --    0.09395   0.09701   0.10082   0.10270   0.10895
 Alpha virt. eigenvalues --    0.11092   0.11847   0.11894   0.11978   0.12127
 Alpha virt. eigenvalues --    0.12523   0.12819   0.13227   0.13753   0.14058
 Alpha virt. eigenvalues --    0.14572   0.14749   0.15193   0.15773   0.15903
 Alpha virt. eigenvalues --    0.16420   0.16619   0.17016   0.17638   0.17896
 Alpha virt. eigenvalues --    0.19303   0.19622   0.19905   0.20725   0.21426
 Alpha virt. eigenvalues --    0.22021   0.22698   0.23841   0.24584   0.25005
 Alpha virt. eigenvalues --    0.25581   0.25743   0.26485   0.26811   0.27048
 Alpha virt. eigenvalues --    0.28321   0.29717   0.30916   0.31198   0.31941
 Alpha virt. eigenvalues --    0.32985   0.33219   0.33717   0.34201   0.35399
 Alpha virt. eigenvalues --    0.37413   0.37535   0.37914   0.38529   0.38825
 Alpha virt. eigenvalues --    0.39556   0.39799   0.39900   0.40362   0.41216
 Alpha virt. eigenvalues --    0.41645   0.42010   0.42306   0.42679   0.42795
 Alpha virt. eigenvalues --    0.43121   0.43410   0.44042   0.44327   0.44885
 Alpha virt. eigenvalues --    0.45187   0.45551   0.45704   0.46442   0.46822
 Alpha virt. eigenvalues --    0.47365   0.47946   0.48216   0.48466   0.48600
 Alpha virt. eigenvalues --    0.49247   0.50114   0.50151   0.50622   0.51172
 Alpha virt. eigenvalues --    0.51717   0.52039   0.52283   0.52518   0.53290
 Alpha virt. eigenvalues --    0.53814   0.54439   0.54812   0.55008   0.55326
 Alpha virt. eigenvalues --    0.55674   0.55902   0.56147   0.56602   0.56899
 Alpha virt. eigenvalues --    0.57032   0.57400   0.57709   0.57911   0.58694
 Alpha virt. eigenvalues --    0.59362   0.59844   0.60389   0.60798   0.61193
 Alpha virt. eigenvalues --    0.61645   0.62328   0.62452   0.62894   0.63090
 Alpha virt. eigenvalues --    0.63579   0.64253   0.64909   0.65248   0.66098
 Alpha virt. eigenvalues --    0.66460   0.66723   0.67267   0.67784   0.67922
 Alpha virt. eigenvalues --    0.68270   0.68517   0.68940   0.69165   0.69327
 Alpha virt. eigenvalues --    0.69884   0.70412   0.70710   0.71417   0.71724
 Alpha virt. eigenvalues --    0.72142   0.73012   0.73836   0.74236   0.74992
 Alpha virt. eigenvalues --    0.75716   0.76194   0.77472   0.77734   0.78094
 Alpha virt. eigenvalues --    0.78508   0.78702   0.79066   0.79344   0.79564
 Alpha virt. eigenvalues --    0.80000   0.80074   0.80665   0.81185   0.81460
 Alpha virt. eigenvalues --    0.81619   0.81957   0.82312   0.82946   0.83139
 Alpha virt. eigenvalues --    0.83435   0.83700   0.83949   0.84307   0.84528
 Alpha virt. eigenvalues --    0.85073   0.85740   0.86185   0.86532   0.86596
 Alpha virt. eigenvalues --    0.87256   0.87919   0.88245   0.88718   0.88914
 Alpha virt. eigenvalues --    0.88972   0.89519   0.90216   0.90281   0.90681
 Alpha virt. eigenvalues --    0.90894   0.91882   0.92171   0.92633   0.92994
 Alpha virt. eigenvalues --    0.93798   0.94128   0.94579   0.95100   0.95727
 Alpha virt. eigenvalues --    0.96261   0.96445   0.97116   0.97520   0.98053
 Alpha virt. eigenvalues --    0.99140   1.00966   1.01365   1.03526   1.04027
 Alpha virt. eigenvalues --    1.04639   1.05435   1.06011   1.06940   1.07538
 Alpha virt. eigenvalues --    1.07835   1.08000   1.08343   1.08422   1.09156
 Alpha virt. eigenvalues --    1.09805   1.09900   1.10650   1.10727   1.11163
 Alpha virt. eigenvalues --    1.12094   1.13408   1.14083   1.14510   1.15531
 Alpha virt. eigenvalues --    1.16178   1.17122   1.17557   1.19329   1.19459
 Alpha virt. eigenvalues --    1.20186   1.20411   1.21563   1.21838   1.22705
 Alpha virt. eigenvalues --    1.23711   1.23800   1.24756   1.25610   1.26539
 Alpha virt. eigenvalues --    1.26654   1.27184   1.27322   1.27521   1.28023
 Alpha virt. eigenvalues --    1.28257   1.28401   1.29340   1.30222   1.30569
 Alpha virt. eigenvalues --    1.31584   1.32330   1.33506   1.34855   1.35404
 Alpha virt. eigenvalues --    1.36412   1.36905   1.37503   1.37945   1.39257
 Alpha virt. eigenvalues --    1.39942   1.40952   1.41460   1.42981   1.43405
 Alpha virt. eigenvalues --    1.44496   1.44716   1.45843   1.46339   1.47044
 Alpha virt. eigenvalues --    1.48114   1.48648   1.50004   1.50505   1.51573
 Alpha virt. eigenvalues --    1.51748   1.53384   1.54594   1.55529   1.55881
 Alpha virt. eigenvalues --    1.56888   1.57949   1.59762   1.59817   1.61197
 Alpha virt. eigenvalues --    1.62227   1.62745   1.65364   1.68040   1.68607
 Alpha virt. eigenvalues --    1.68953   1.69383   1.69771   1.70240   1.70511
 Alpha virt. eigenvalues --    1.71142   1.71365   1.71909   1.72241   1.72744
 Alpha virt. eigenvalues --    1.72896   1.73264   1.73975   1.74236   1.75110
 Alpha virt. eigenvalues --    1.75695   1.76630   1.77257   1.77688   1.78385
 Alpha virt. eigenvalues --    1.79088   1.79212   1.79841   1.80537   1.81479
 Alpha virt. eigenvalues --    1.82062   1.82983   1.83536   1.83986   1.84461
 Alpha virt. eigenvalues --    1.84745   1.85734   1.85808   1.87169   1.89049
 Alpha virt. eigenvalues --    1.89791   1.89962   1.90591   1.91063   1.91320
 Alpha virt. eigenvalues --    1.92157   1.93275   1.93735   1.94013   1.94281
 Alpha virt. eigenvalues --    1.95430   1.95718   1.96302   1.96901   1.97767
 Alpha virt. eigenvalues --    1.98811   1.99048   2.00587   2.00904   2.01738
 Alpha virt. eigenvalues --    2.02732   2.03711   2.04055   2.04988   2.05818
 Alpha virt. eigenvalues --    2.06386   2.06982   2.08739   2.09613   2.09954
 Alpha virt. eigenvalues --    2.10182   2.10470   2.12314   2.12716   2.13043
 Alpha virt. eigenvalues --    2.13301   2.13577   2.14312   2.15157   2.15632
 Alpha virt. eigenvalues --    2.16276   2.16596   2.17040   2.17564   2.17862
 Alpha virt. eigenvalues --    2.18753   2.19202   2.19516   2.19846   2.20276
 Alpha virt. eigenvalues --    2.20842   2.21234   2.21834   2.22866   2.23221
 Alpha virt. eigenvalues --    2.23971   2.24661   2.24918   2.25704   2.26000
 Alpha virt. eigenvalues --    2.26687   2.27090   2.27655   2.28167   2.28516
 Alpha virt. eigenvalues --    2.30414   2.30721   2.31158   2.31683   2.31922
 Alpha virt. eigenvalues --    2.32467   2.33125   2.33421   2.35261   2.35680
 Alpha virt. eigenvalues --    2.37554   2.37931   2.38378   2.39034   2.40925
 Alpha virt. eigenvalues --    2.41811   2.42519   2.42901   2.43240   2.43659
 Alpha virt. eigenvalues --    2.44072   2.44817   2.46463   2.46535   2.47318
 Alpha virt. eigenvalues --    2.48829   2.50239   2.50403   2.51175   2.51793
 Alpha virt. eigenvalues --    2.54839   2.56002   2.56192   2.58183   2.58760
 Alpha virt. eigenvalues --    2.59342   2.61123   2.61468   2.62756   2.63950
 Alpha virt. eigenvalues --    2.65801   2.67768   2.68414   2.68820   2.70785
 Alpha virt. eigenvalues --    2.71995   2.75954   2.76811   2.77445   2.78363
 Alpha virt. eigenvalues --    2.80264   2.81590   2.82245   2.84705   2.86362
 Alpha virt. eigenvalues --    2.86770   2.88255   2.88519   2.89185   2.89482
 Alpha virt. eigenvalues --    2.90453   2.93703   2.94491   2.96486   3.02080
 Alpha virt. eigenvalues --    3.03840   3.04049   3.08482   3.12920   3.14398
 Alpha virt. eigenvalues --    3.18533   3.19687   3.27691   3.28672   3.30279
 Alpha virt. eigenvalues --    3.35447   3.35965   3.37388   3.44514   3.51339
 Alpha virt. eigenvalues --    3.77074   3.92187   4.10680
  Beta  occ. eigenvalues -- -256.37200 -30.21663 -26.06123 -26.05801 -26.05126
  Beta  occ. eigenvalues --  -14.54975 -14.52155 -14.48495 -14.48427 -14.47868
  Beta  occ. eigenvalues --  -14.47814 -10.39170 -10.36223 -10.33932 -10.33785
  Beta  occ. eigenvalues --  -10.33765 -10.33731 -10.33629 -10.33572 -10.33545
  Beta  occ. eigenvalues --  -10.33438 -10.33399 -10.31175 -10.31148 -10.31021
  Beta  occ. eigenvalues --  -10.30830 -10.30788 -10.30741 -10.30674 -10.30608
  Beta  occ. eigenvalues --  -10.30387 -10.30375 -10.30179 -10.30172 -10.30105
  Beta  occ. eigenvalues --  -10.29592 -10.29524 -10.28678 -10.28547 -10.28439
  Beta  occ. eigenvalues --  -10.28315 -10.28269 -10.28265 -10.28243 -10.28080
  Beta  occ. eigenvalues --   -3.57356  -2.33893  -2.32986  -2.32368  -1.17799
  Beta  occ. eigenvalues --   -1.09380  -1.08499  -1.08165  -1.07325  -1.03641
  Beta  occ. eigenvalues --   -0.93940  -0.92359  -0.92064  -0.91649  -0.91485
  Beta  occ. eigenvalues --   -0.91310  -0.91087  -0.90975  -0.87054  -0.85867
  Beta  occ. eigenvalues --   -0.85596  -0.84553  -0.83140  -0.82948  -0.81234
  Beta  occ. eigenvalues --   -0.80281  -0.78796  -0.78628  -0.78264  -0.76804
  Beta  occ. eigenvalues --   -0.75564  -0.75315  -0.73209  -0.70845  -0.70576
  Beta  occ. eigenvalues --   -0.68740  -0.68627  -0.67687  -0.65298  -0.64946
  Beta  occ. eigenvalues --   -0.64305  -0.63045  -0.62130  -0.61836  -0.61192
  Beta  occ. eigenvalues --   -0.59742  -0.59017  -0.58884  -0.58496  -0.58120
  Beta  occ. eigenvalues --   -0.56482  -0.55718  -0.55538  -0.55067  -0.54617
  Beta  occ. eigenvalues --   -0.54343  -0.54172  -0.54005  -0.53634  -0.53555
  Beta  occ. eigenvalues --   -0.53073  -0.52790  -0.52673  -0.52537  -0.52091
  Beta  occ. eigenvalues --   -0.51242  -0.50896  -0.50625  -0.50603  -0.50529
  Beta  occ. eigenvalues --   -0.50305  -0.50167  -0.49895  -0.49869  -0.49802
  Beta  occ. eigenvalues --   -0.49353  -0.48778  -0.48594  -0.48312  -0.48094
  Beta  occ. eigenvalues --   -0.47892  -0.47528  -0.47303  -0.46927  -0.46249
  Beta  occ. eigenvalues --   -0.45962  -0.44995  -0.44288  -0.44016  -0.43857
  Beta  occ. eigenvalues --   -0.43031  -0.42913  -0.42291  -0.41791  -0.39611
  Beta  occ. eigenvalues --   -0.39476  -0.38568  -0.37722  -0.36803  -0.36485
  Beta  occ. eigenvalues --   -0.35404  -0.34430  -0.33340  -0.32673  -0.31648
  Beta  occ. eigenvalues --   -0.30269  -0.28681
  Beta virt. eigenvalues --   -0.20216  -0.17672  -0.17454  -0.16248  -0.11786
  Beta virt. eigenvalues --   -0.10923  -0.09537  -0.08057  -0.07050  -0.05474
  Beta virt. eigenvalues --   -0.04830  -0.02372  -0.01855  -0.01541  -0.01063
  Beta virt. eigenvalues --    0.00754   0.01076   0.01763   0.02725   0.03021
  Beta virt. eigenvalues --    0.03344   0.03836   0.03893   0.04044   0.04435
  Beta virt. eigenvalues --    0.04786   0.04924   0.05263   0.05479   0.06190
  Beta virt. eigenvalues --    0.06565   0.07082   0.07109   0.07413   0.07739
  Beta virt. eigenvalues --    0.07904   0.08354   0.08606   0.08768   0.08920
  Beta virt. eigenvalues --    0.09263   0.09418   0.09718   0.10108   0.10284
  Beta virt. eigenvalues --    0.10903   0.11094   0.11887   0.11959   0.12003
  Beta virt. eigenvalues --    0.12168   0.12751   0.12905   0.13286   0.13784
  Beta virt. eigenvalues --    0.14125   0.14590   0.14878   0.15228   0.15884
  Beta virt. eigenvalues --    0.15937   0.16450   0.16688   0.17068   0.17672
  Beta virt. eigenvalues --    0.17910   0.19319   0.19658   0.20131   0.20819
  Beta virt. eigenvalues --    0.21515   0.22123   0.22792   0.23856   0.24609
  Beta virt. eigenvalues --    0.25040   0.25629   0.25812   0.26490   0.26834
  Beta virt. eigenvalues --    0.27142   0.28343   0.29755   0.30972   0.31286
  Beta virt. eigenvalues --    0.32067   0.32983   0.33210   0.33752   0.34184
  Beta virt. eigenvalues --    0.35517   0.37477   0.37584   0.37995   0.38557
  Beta virt. eigenvalues --    0.38893   0.39617   0.39802   0.39888   0.40407
  Beta virt. eigenvalues --    0.41253   0.41740   0.42053   0.42313   0.42685
  Beta virt. eigenvalues --    0.42826   0.43123   0.43430   0.44042   0.44432
  Beta virt. eigenvalues --    0.44991   0.45237   0.45560   0.45732   0.46467
  Beta virt. eigenvalues --    0.46911   0.47357   0.47948   0.48194   0.48436
  Beta virt. eigenvalues --    0.48628   0.49323   0.50081   0.50128   0.50591
  Beta virt. eigenvalues --    0.51137   0.51714   0.52030   0.52267   0.52557
  Beta virt. eigenvalues --    0.53264   0.53861   0.54483   0.54812   0.55064
  Beta virt. eigenvalues --    0.55304   0.55750   0.55884   0.56263   0.56793
  Beta virt. eigenvalues --    0.56934   0.57127   0.57427   0.57637   0.57863
  Beta virt. eigenvalues --    0.58706   0.59398   0.59883   0.60458   0.60934
  Beta virt. eigenvalues --    0.61238   0.61925   0.62348   0.62482   0.62998
  Beta virt. eigenvalues --    0.63164   0.63600   0.64321   0.64937   0.65259
  Beta virt. eigenvalues --    0.66121   0.66470   0.66716   0.67269   0.67790
  Beta virt. eigenvalues --    0.67973   0.68321   0.68537   0.69095   0.69292
  Beta virt. eigenvalues --    0.69510   0.69966   0.70695   0.70765   0.71448
  Beta virt. eigenvalues --    0.71956   0.72177   0.73041   0.73832   0.74241
  Beta virt. eigenvalues --    0.75059   0.75764   0.76227   0.77505   0.77737
  Beta virt. eigenvalues --    0.78080   0.78530   0.78720   0.79088   0.79329
  Beta virt. eigenvalues --    0.79681   0.80000   0.80168   0.80667   0.81190
  Beta virt. eigenvalues --    0.81473   0.81637   0.81944   0.82340   0.82948
  Beta virt. eigenvalues --    0.83216   0.83428   0.83686   0.84010   0.84309
  Beta virt. eigenvalues --    0.84567   0.85103   0.85776   0.86200   0.86505
  Beta virt. eigenvalues --    0.86651   0.87252   0.87952   0.88300   0.88712
  Beta virt. eigenvalues --    0.88923   0.89036   0.89646   0.90267   0.90285
  Beta virt. eigenvalues --    0.90744   0.90911   0.91886   0.92180   0.92722
  Beta virt. eigenvalues --    0.93233   0.93791   0.94165   0.94581   0.95061
  Beta virt. eigenvalues --    0.95794   0.96305   0.96451   0.97132   0.97559
  Beta virt. eigenvalues --    0.98095   0.99238   1.00967   1.01458   1.03667
  Beta virt. eigenvalues --    1.04046   1.04699   1.05494   1.06316   1.06962
  Beta virt. eigenvalues --    1.07549   1.07938   1.08053   1.08401   1.08589
  Beta virt. eigenvalues --    1.09179   1.09857   1.09919   1.10680   1.10785
  Beta virt. eigenvalues --    1.11177   1.12085   1.13449   1.14175   1.14571
  Beta virt. eigenvalues --    1.15701   1.16315   1.17162   1.17642   1.19311
  Beta virt. eigenvalues --    1.19458   1.20212   1.20434   1.21562   1.21854
  Beta virt. eigenvalues --    1.22707   1.23749   1.23883   1.24785   1.25650
  Beta virt. eigenvalues --    1.26537   1.26658   1.27199   1.27348   1.27517
  Beta virt. eigenvalues --    1.28002   1.28247   1.28397   1.29336   1.30324
  Beta virt. eigenvalues --    1.30573   1.31561   1.32428   1.33531   1.34830
  Beta virt. eigenvalues --    1.35367   1.36372   1.36899   1.37463   1.37942
  Beta virt. eigenvalues --    1.39298   1.39953   1.40946   1.41485   1.42979
  Beta virt. eigenvalues --    1.43405   1.44505   1.44697   1.45887   1.46358
  Beta virt. eigenvalues --    1.47062   1.48124   1.48710   1.50174   1.50527
  Beta virt. eigenvalues --    1.51534   1.51789   1.53519   1.54655   1.55641
  Beta virt. eigenvalues --    1.55898   1.56983   1.58068   1.59772   1.59888
  Beta virt. eigenvalues --    1.61212   1.62220   1.62753   1.65356   1.68017
  Beta virt. eigenvalues --    1.68615   1.69006   1.69355   1.69928   1.70221
  Beta virt. eigenvalues --    1.70593   1.71125   1.71388   1.71917   1.72283
  Beta virt. eigenvalues --    1.72735   1.72914   1.73273   1.73978   1.74203
  Beta virt. eigenvalues --    1.75102   1.75708   1.76611   1.77221   1.77662
  Beta virt. eigenvalues --    1.78335   1.79175   1.79317   1.79830   1.80594
  Beta virt. eigenvalues --    1.81461   1.82082   1.83028   1.83539   1.83991
  Beta virt. eigenvalues --    1.84484   1.84878   1.85753   1.85814   1.87478
  Beta virt. eigenvalues --    1.89152   1.89837   1.89960   1.90672   1.91228
  Beta virt. eigenvalues --    1.91316   1.92217   1.93392   1.93737   1.93977
  Beta virt. eigenvalues --    1.94265   1.95451   1.95777   1.96310   1.96933
  Beta virt. eigenvalues --    1.97819   1.98767   1.99028   2.00620   2.00954
  Beta virt. eigenvalues --    2.01741   2.02723   2.03748   2.04043   2.04984
  Beta virt. eigenvalues --    2.05881   2.06400   2.07511   2.08908   2.09656
  Beta virt. eigenvalues --    2.10007   2.10190   2.10489   2.12508   2.12826
  Beta virt. eigenvalues --    2.13053   2.13472   2.13881   2.14593   2.15448
  Beta virt. eigenvalues --    2.15918   2.16364   2.16852   2.17252   2.17583
  Beta virt. eigenvalues --    2.17946   2.18823   2.19271   2.19547   2.19870
  Beta virt. eigenvalues --    2.20252   2.20884   2.21427   2.21881   2.22887
  Beta virt. eigenvalues --    2.23238   2.24007   2.24765   2.24928   2.25745
  Beta virt. eigenvalues --    2.26045   2.26684   2.27086   2.27679   2.28176
  Beta virt. eigenvalues --    2.28507   2.30422   2.30728   2.31146   2.31763
  Beta virt. eigenvalues --    2.31934   2.32508   2.33155   2.33484   2.35285
  Beta virt. eigenvalues --    2.35769   2.37572   2.38000   2.38446   2.39047
  Beta virt. eigenvalues --    2.40996   2.41772   2.42531   2.43038   2.43252
  Beta virt. eigenvalues --    2.43647   2.44044   2.44807   2.46465   2.46538
  Beta virt. eigenvalues --    2.47329   2.48872   2.50262   2.50415   2.51221
  Beta virt. eigenvalues --    2.51833   2.54814   2.55956   2.56117   2.58111
  Beta virt. eigenvalues --    2.58746   2.59264   2.61041   2.61384   2.62768
  Beta virt. eigenvalues --    2.63968   2.65761   2.67763   2.68381   2.68809
  Beta virt. eigenvalues --    2.70769   2.71977   2.75901   2.76783   2.77373
  Beta virt. eigenvalues --    2.78333   2.80271   2.81576   2.82269   2.84698
  Beta virt. eigenvalues --    2.86338   2.86727   2.88258   2.88561   2.89156
  Beta virt. eigenvalues --    2.89476   2.90481   2.93684   2.94513   2.96461
  Beta virt. eigenvalues --    3.02067   3.03855   3.04057   3.08473   3.12955
  Beta virt. eigenvalues --    3.14453   3.18534   3.19700   3.27678   3.28669
  Beta virt. eigenvalues --    3.30341   3.35447   3.36110   3.40901   3.49724
  Beta virt. eigenvalues --    3.55943   3.78907   3.94660   4.12725
          Condensed to atoms (all electrons):
          Atomic-Atomic Spin Densities.
 Mulliken charges and spin densities:
               1          2
     1  Fe   0.868934   1.283732
     2  N   -0.693163  -0.066097
     3  N   -0.658917  -0.073089
     4  N   -0.703516  -0.067615
     5  N   -0.667783  -0.062988
     6  C    0.311318   0.025652
     7  C    0.044157   0.013307
     8  C    0.039210   0.013825
     9  C    0.333082   0.020116
    10  C    0.329976   0.021238
    11  C    0.042212   0.001753
    12  C    0.041406  -0.001191
    13  C    0.302339   0.024578
    14  C    0.318861   0.023612
    15  C    0.010124   0.017049
    16  C    0.049140   0.014120
    17  C    0.322731   0.020677
    18  C    0.327847   0.020363
    19  C   -0.000257   0.001744
    20  C    0.037546  -0.000927
    21  C    0.309663   0.020989
    22  C   -0.298063  -0.058214
    23  H    0.196519   0.002682
    24  C   -0.288514  -0.053193
    25  H    0.196425   0.002525
    26  C   -0.285515  -0.056055
    27  H    0.199683   0.002550
    28  C   -0.280348  -0.058518
    29  H    0.203900   0.002719
    30  C   -0.610999  -0.001357
    31  H    0.196881   0.000886
    32  H    0.211354   0.000889
    33  H    0.206171  -0.000053
    34  C   -0.612966  -0.001684
    35  H    0.210587   0.000823
    36  H    0.202298   0.001063
    37  H    0.205470  -0.000076
    38  C   -0.604446  -0.000136
    39  H    0.207165   0.000081
    40  H    0.197989   0.000118
    41  H    0.205394  -0.000131
    42  C   -0.153850  -0.001783
    43  H    0.190339  -0.000018
    44  C   -0.397861   0.002849
    45  H    0.179632  -0.000178
    46  H    0.195402  -0.000174
    47  C   -0.616635  -0.001867
    48  H    0.204423   0.000661
    49  H    0.204704   0.001185
    50  H    0.214734   0.000104
    51  C   -0.154727  -0.008108
    52  H    0.184554   0.000603
    53  C   -0.389971   0.013122
    54  H    0.188755  -0.000646
    55  H    0.196299  -0.000626
    56  C   -0.610726  -0.000139
    57  H    0.208767   0.000089
    58  H    0.197509   0.000104
    59  H    0.204506  -0.000112
    60  C   -0.612113  -0.000415
    61  H    0.208653   0.000203
    62  H    0.204186  -0.000109
    63  H    0.198844   0.000238
    64  C   -0.602559  -0.000189
    65  H    0.216576  -0.000185
    66  H    0.216776   0.000043
    67  H    0.223671  -0.000037
    68  N   -0.628751   0.000879
    69  H    0.390746  -0.000091
    70  C    0.283609  -0.001733
    71  C    0.267025   0.009773
    72  H    0.236570  -0.000079
    73  N   -0.451024  -0.051108
    74  C   -0.038001   0.001632
    75  H    0.216046   0.000349
 Sum of Mulliken charges =   1.00000   1.00000
 Mulliken charges and spin densities with hydrogens summed into heavy atoms:
               1          2
     1  Fe   0.868934   1.283732
     2  N   -0.693163  -0.066097
     3  N   -0.658917  -0.073089
     4  N   -0.703516  -0.067615
     5  N   -0.667783  -0.062988
     6  C    0.311318   0.025652
     7  C    0.044157   0.013307
     8  C    0.039210   0.013825
     9  C    0.333082   0.020116
    10  C    0.329976   0.021238
    11  C    0.042212   0.001753
    12  C    0.041406  -0.001191
    13  C    0.302339   0.024578
    14  C    0.318861   0.023612
    15  C    0.010124   0.017049
    16  C    0.049140   0.014120
    17  C    0.322731   0.020677
    18  C    0.327847   0.020363
    19  C   -0.000257   0.001744
    20  C    0.037546  -0.000927
    21  C    0.309663   0.020989
    22  C   -0.101544  -0.055532
    24  C   -0.092088  -0.050668
    26  C   -0.085832  -0.053506
    28  C   -0.076448  -0.055799
    30  C    0.003407   0.000365
    34  C    0.005389   0.000124
    38  C    0.006102  -0.000067
    42  C    0.036488  -0.001801
    44  C   -0.022827   0.002497
    47  C    0.007225   0.000083
    51  C    0.029827  -0.007505
    53  C   -0.004917   0.011850
    56  C    0.000057  -0.000058
    60  C   -0.000430  -0.000083
    64  C    0.054463  -0.000369
    68  N   -0.238005   0.000788
    70  C    0.283609  -0.001733
    71  C    0.503595   0.009694
    73  N   -0.451024  -0.051108
    74  C    0.178045   0.001982
 Electronic spatial extent (au):  <R**2>=          19324.4644
 Charge=              1.0000 electrons
 Dipole moment (field-independent basis, Debye):
    X=              1.7561    Y=             -0.0012    Z=              6.4593  Tot=              6.6938
 Quadrupole moment (field-independent basis, Debye-Ang):
   XX=           -171.0931   YY=           -178.3497   ZZ=           -206.6437
   XY=              4.3901   XZ=              2.6214   YZ=              2.3500
 Traceless Quadrupole moment (field-independent basis, Debye-Ang):
   XX=             14.2691   YY=              7.0124   ZZ=            -21.2815
   XY=              4.3901   XZ=              2.6214   YZ=              2.3500
 Octapole moment (field-independent basis, Debye-Ang**2):
  XXX=             10.6988  YYY=              0.5777  ZZZ=            195.1286  XYY=              1.5697
  XXY=             -5.0200  XXZ=            -28.7351  XZZ=             25.7607  YZZ=             -1.3108
  YYZ=            -17.5287  XYZ=             -1.4403
 Hexadecapole moment (field-independent basis, Debye-Ang**3):
 XXXX=          -9813.4787 YYYY=          -9498.8814 ZZZZ=          -2295.4951 XXXY=            120.8773
 XXXZ=            -42.2443 YYYX=            -90.3973 YYYZ=            -26.7797 ZZZX=             68.5927
 ZZZY=              2.3205 XXYY=          -3317.2859 XXZZ=          -2453.2496 YYZZ=          -2379.6599
 XXYZ=             90.2684 YYXZ=            -14.6787 ZZXY=             63.4413
 N-N= 5.598172525182D+03 E-N=-1.799010834677D+04  KE= 2.895906581196D+03
                          Isotropic Fermi Contact Couplings
        Atom                 a.u.       MegaHertz       Gauss      10(-4) cm-1
     1  Fe(57)             0.17515      25.40413       9.06483       8.47391
     2  N(14)             -0.02798      -9.03994      -3.22568      -3.01540
     3  N(14)             -0.03196     -10.32732      -3.68504      -3.44482
     4  N(14)             -0.03295     -10.64499      -3.79840      -3.55079
     5  N(14)             -0.03335     -10.77400      -3.84443      -3.59382
     6  C(13)              0.00479       5.38441       1.92129       1.79604
     7  C(13)              0.00124       1.39926       0.49929       0.46674
     8  C(13)              0.00098       1.09650       0.39126       0.36575
     9  C(13)              0.00264       2.96309       1.05731       0.98838
    10  C(13)              0.00341       3.83230       1.36746       1.27832
    11  C(13)             -0.00045      -0.50471      -0.18009      -0.16835
    12  C(13)             -0.00082      -0.92342      -0.32950      -0.30802
    13  C(13)              0.00382       4.29141       1.53128       1.43146
    14  C(13)              0.00496       5.57548       1.98947       1.85978
    15  C(13)              0.00157       1.76621       0.63023       0.58914
    16  C(13)              0.00081       0.90957       0.32456       0.30340
    17  C(13)              0.00174       1.95432       0.69735       0.65189
    18  C(13)              0.00270       3.03449       1.08278       1.01220
    19  C(13)             -0.00060      -0.66990      -0.23904      -0.22345
    20  C(13)             -0.00085      -0.95987      -0.34251      -0.32018
    21  C(13)              0.00313       3.52232       1.25685       1.17492
    22  C(13)             -0.00781      -8.78204      -3.13365      -2.92937
    23  H(1)               0.00090       4.01774       1.43363       1.34018
    24  C(13)             -0.00701      -7.87639      -2.81049      -2.62728
    25  H(1)               0.00085       3.79292       1.35341       1.26518
    26  C(13)             -0.00770      -8.65659      -3.08889      -2.88753
    27  H(1)               0.00087       3.87812       1.38381       1.29360
    28  C(13)             -0.00764      -8.59338      -3.06633      -2.86644
    29  H(1)               0.00092       4.09131       1.45988       1.36471
    30  C(13)             -0.00049      -0.54708      -0.19521      -0.18249
    31  H(1)               0.00041       1.82839       0.65241       0.60988
    32  H(1)               0.00040       1.78424       0.63666       0.59516
    33  H(1)              -0.00003      -0.12486      -0.04455      -0.04165
    34  C(13)             -0.00065      -0.72529      -0.25880      -0.24193
    35  H(1)               0.00034       1.51475       0.54050       0.50526
    36  H(1)               0.00048       2.13276       0.76102       0.71141
    37  H(1)              -0.00004      -0.17116      -0.06107      -0.05709
    38  C(13)             -0.00006      -0.07057      -0.02518      -0.02354
    39  H(1)               0.00007       0.30194       0.10774       0.10072
    40  H(1)               0.00008       0.34236       0.12216       0.11420
    41  H(1)              -0.00005      -0.23529      -0.08396      -0.07848
    42  C(13)             -0.00038      -0.42622      -0.15209      -0.14217
    43  H(1)              -0.00002      -0.07892      -0.02816      -0.02633
    44  C(13)              0.00042       0.46885       0.16730       0.15639
    45  H(1)              -0.00007      -0.31006      -0.11064      -0.10342
    46  H(1)              -0.00006      -0.26389      -0.09416      -0.08802
    47  C(13)             -0.00076      -0.84938      -0.30308      -0.28332
    48  H(1)               0.00026       1.16553       0.41589       0.38878
    49  H(1)               0.00061       2.71101       0.96736       0.90430
    50  H(1)               0.00002       0.06918       0.02468       0.02307
    51  C(13)             -0.00154      -1.72687      -0.61619      -0.57602
    52  H(1)               0.00021       0.93305       0.33293       0.31123
    53  C(13)              0.00180       2.02291       0.72182       0.67477
    54  H(1)              -0.00020      -0.88161      -0.31458      -0.29407
    55  H(1)              -0.00020      -0.88369      -0.31532      -0.29477
    56  C(13)             -0.00004      -0.04702      -0.01678      -0.01568
    57  H(1)               0.00002       0.10527       0.03756       0.03511
    58  H(1)               0.00002       0.09503       0.03391       0.03170
    59  H(1)              -0.00005      -0.22133      -0.07897      -0.07383
    60  C(13)             -0.00015      -0.17259      -0.06158      -0.05757
    61  H(1)               0.00008       0.36646       0.13076       0.12224
    62  H(1)              -0.00005      -0.22041      -0.07865      -0.07352
    63  H(1)               0.00009       0.39831       0.14213       0.13286
    64  C(13)             -0.00004      -0.04688      -0.01673      -0.01564
    65  H(1)              -0.00008      -0.36863      -0.13154      -0.12296
    66  H(1)               0.00003       0.13668       0.04877       0.04559
    67  H(1)              -0.00003      -0.11177      -0.03988      -0.03728
    68  N(14)             -0.00121      -0.39180      -0.13980      -0.13069
    69  H(1)              -0.00009      -0.41526      -0.14817      -0.13851
    70  C(13)             -0.00141      -1.58814      -0.56669      -0.52975
    71  C(13)             -0.00053      -0.59245      -0.21140      -0.19762
    72  H(1)              -0.00021      -0.95858      -0.34205      -0.31975
    73  N(14)             -0.05410     -17.47940      -6.23709      -5.83050
    74  C(13)             -0.00014      -0.15482      -0.05524      -0.05164
    75  H(1)              -0.00009      -0.38655      -0.13793      -0.12894
 --------------------------------------------------------
       Center         ----  Spin Dipole Couplings  ----
                      3XX-RR        3YY-RR        3ZZ-RR
 --------------------------------------------------------
     1   Atom        1.380517     -3.049862      1.669345
     2   Atom        0.050644      0.033367     -0.084011
     3   Atom        0.054216      0.045286     -0.099502
     4   Atom        0.043890      0.031592     -0.075482
     5   Atom        0.037449      0.024737     -0.062185
     6   Atom       -0.001968     -0.015729      0.017697
     7   Atom       -0.006757     -0.009886      0.016643
     8   Atom       -0.008005     -0.010600      0.018604
     9   Atom       -0.000367     -0.015766      0.016133
    10   Atom       -0.014383      0.001491      0.012893
    11   Atom       -0.003032      0.000215      0.002817
    12   Atom       -0.002161      0.001821      0.000340
    13   Atom       -0.015651      0.000791      0.014860
    14   Atom       -0.001079     -0.014377      0.015457
    15   Atom       -0.008132     -0.011372      0.019504
    16   Atom       -0.007876     -0.010859      0.018735
    17   Atom        0.000161     -0.017003      0.016842
    18   Atom       -0.015148      0.001526      0.013622
    19   Atom       -0.003071     -0.000694      0.003765
    20   Atom       -0.002245      0.001329      0.000917
    21   Atom       -0.014116      0.001796      0.012320
    22   Atom        0.027065      0.029373     -0.056437
    23   Atom        0.000679      0.000959     -0.001638
    24   Atom        0.026090      0.024915     -0.051005
    25   Atom        0.000615      0.000996     -0.001611
    26   Atom        0.025379      0.027051     -0.052430
    27   Atom        0.000736      0.000810     -0.001546
    28   Atom        0.029124      0.027508     -0.056632
    29   Atom        0.000531      0.001055     -0.001586
    30   Atom        0.000921     -0.000247     -0.000674
    31   Atom        0.000615      0.000086     -0.000701
    32   Atom        0.000601      0.000077     -0.000677
    33   Atom        0.001254     -0.000552     -0.000703
    34   Atom        0.001017     -0.000457     -0.000560
    35   Atom        0.000887     -0.000218     -0.000669
    36   Atom        0.000925     -0.000200     -0.000725
    37   Atom        0.001400     -0.000716     -0.000685
    38   Atom       -0.000608      0.001137     -0.000528
    39   Atom       -0.000380      0.000954     -0.000574
    40   Atom       -0.000366      0.000938     -0.000572
    41   Atom       -0.000563      0.001057     -0.000494
    42   Atom       -0.000290      0.001289     -0.000998
    43   Atom       -0.000390      0.000917     -0.000527
    44   Atom        0.000438     -0.000548      0.000110
    45   Atom        0.000115      0.000427     -0.000541
    46   Atom       -0.000056      0.000458     -0.000402
    47   Atom        0.000623     -0.000389     -0.000234
    48   Atom        0.000775     -0.000005     -0.000770
    49   Atom        0.001035     -0.000361     -0.000674
    50   Atom        0.001330     -0.000585     -0.000745
    51   Atom        0.003837      0.000492     -0.004329
    52   Atom        0.000834     -0.000011     -0.000823
    53   Atom       -0.003597     -0.002325      0.005922
    54   Atom        0.000539     -0.000078     -0.000460
    55   Atom        0.000473      0.000068     -0.000541
    56   Atom       -0.000544      0.001302     -0.000759
    57   Atom       -0.000399      0.000976     -0.000577
    58   Atom       -0.000374      0.000987     -0.000613
    59   Atom       -0.000559      0.001052     -0.000493
    60   Atom       -0.000408      0.001093     -0.000685
    61   Atom       -0.000204      0.000780     -0.000576
    62   Atom       -0.000485      0.000979     -0.000494
    63   Atom       -0.000112      0.000735     -0.000623
    64   Atom       -0.000511     -0.000411      0.000922
    65   Atom       -0.000493     -0.000680      0.001173
    66   Atom       -0.000604     -0.000494      0.001098
    67   Atom       -0.000567     -0.000549      0.001116
    68   Atom        0.001461      0.000445     -0.001906
    69   Atom       -0.000990     -0.001138      0.002129
    70   Atom        0.000034     -0.001839      0.001805
    71   Atom       -0.004361     -0.000106      0.004467
    72   Atom       -0.001180     -0.001691      0.002872
    73   Atom        0.022056      0.013542     -0.035598
    74   Atom       -0.006133     -0.001033      0.007166
    75   Atom       -0.002222     -0.001523      0.003745
 --------------------------------------------------------
                        XY            XZ            YZ
 --------------------------------------------------------
     1   Atom       -1.039740      0.209078     -0.929908
     2   Atom        0.003058      0.062186     -0.002673
     3   Atom        0.001519      0.003869     -0.034662
     4   Atom        0.012537     -0.053621      0.008460
     5   Atom        0.006325     -0.016176      0.028744
     6   Atom        0.006238      0.000289     -0.000421
     7   Atom        0.001844     -0.001434     -0.001194
     8   Atom       -0.001920     -0.003390     -0.002406
     9   Atom       -0.001661     -0.002569      0.003039
    10   Atom       -0.003479      0.002159      0.003526
    11   Atom       -0.001552      0.000801      0.002580
    12   Atom        0.001236     -0.000377      0.001195
    13   Atom        0.001721     -0.002926      0.003568
    14   Atom        0.006883     -0.002644      0.001882
    15   Atom        0.002150     -0.003343     -0.003271
    16   Atom       -0.001600     -0.004649     -0.003147
    17   Atom       -0.000021     -0.005504     -0.001433
    18   Atom       -0.003501     -0.000882     -0.001801
    19   Atom       -0.001826      0.000677      0.000530
    20   Atom        0.001485      0.000594      0.000912
    21   Atom        0.002148      0.003085     -0.000534
    22   Atom        0.005628     -0.003709      0.005131
    23   Atom       -0.001069     -0.000191      0.000149
    24   Atom       -0.006268     -0.005444     -0.007629
    25   Atom        0.000710     -0.000163     -0.000317
    26   Atom        0.006650      0.008545     -0.010855
    27   Atom       -0.000899      0.000443     -0.000300
    28   Atom       -0.006360      0.004316      0.009376
    29   Atom        0.001032     -0.000026      0.000617
    30   Atom        0.001300     -0.000193     -0.000105
    31   Atom        0.001143      0.000230      0.000307
    32   Atom        0.001096     -0.000265     -0.000330
    33   Atom        0.000730     -0.000033     -0.000020
    34   Atom       -0.000895     -0.000606      0.000150
    35   Atom       -0.000936     -0.000321      0.000279
    36   Atom       -0.001031      0.000246     -0.000208
    37   Atom       -0.000480     -0.000096      0.000058
    38   Atom        0.000601      0.000057      0.000072
    39   Atom        0.000704     -0.000088     -0.000179
    40   Atom        0.000709      0.000142      0.000217
    41   Atom        0.000212      0.000018      0.000066
    42   Atom       -0.001034     -0.000896     -0.000296
    43   Atom       -0.000497     -0.000026      0.000033
    44   Atom        0.000015      0.001806      0.001252
    45   Atom       -0.000795     -0.000306      0.000226
    46   Atom       -0.000596     -0.000031      0.000218
    47   Atom       -0.000925      0.000141     -0.000125
    48   Atom       -0.001042      0.000214     -0.000222
    49   Atom       -0.000870     -0.000297      0.000186
    50   Atom       -0.000448      0.000350     -0.000206
    51   Atom        0.002342     -0.001511      0.003626
    52   Atom        0.001240      0.000219      0.000255
    53   Atom       -0.002122      0.005181     -0.007177
    54   Atom       -0.000179     -0.000248      0.000309
    55   Atom        0.001094      0.000480     -0.000010
    56   Atom        0.000607      0.000010     -0.000031
    57   Atom        0.000640      0.000040      0.000124
    58   Atom        0.000776     -0.000153     -0.000304
    59   Atom        0.000226     -0.000026     -0.000144
    60   Atom       -0.000782     -0.000118      0.000160
    61   Atom       -0.000822     -0.000084      0.000147
    62   Atom       -0.000447      0.000031     -0.000110
    63   Atom       -0.000948      0.000184     -0.000257
    64   Atom        0.000045     -0.000225     -0.000546
    65   Atom        0.000064     -0.000397     -0.000099
    66   Atom        0.000053     -0.000060     -0.000458
    67   Atom        0.000164     -0.000560     -0.000647
    68   Atom       -0.004641      0.001155      0.000959
    69   Atom        0.000004      0.000787      0.000668
    70   Atom        0.000138      0.000365     -0.002606
    71   Atom       -0.007460      0.001563      0.005452
    72   Atom        0.002937      0.004630      0.004824
    73   Atom        0.005683     -0.004245      0.009539
    74   Atom       -0.000754     -0.000003     -0.005855
    75   Atom        0.002758     -0.004979     -0.005612
 --------------------------------------------------------


 ---------------------------------------------------------------------------------
              Anisotropic Spin Dipole Couplings in Principal Axis System
 ---------------------------------------------------------------------------------

       Atom             a.u.   MegaHertz   Gauss  10(-4) cm-1        Axes

              Baa    -3.4285   -59.357   -21.180   -19.799  0.2014  0.9650  0.1678
     1 Fe(57) Bbb     1.3010    22.524     8.037     7.513  0.7945 -0.0607 -0.6042
              Bcc     2.1275    36.833    13.143    12.286  0.5729 -0.2550  0.7789
 
              Baa    -0.1084    -4.182    -1.492    -1.395 -0.3644  0.0254  0.9309
     2 N(14)  Bbb     0.0334     1.287     0.459     0.429 -0.0327  0.9987 -0.0400
              Bcc     0.0751     2.895     1.033     0.966  0.9307  0.0450  0.3631
 
              Baa    -0.1075    -4.145    -1.479    -1.383 -0.0254  0.2214  0.9748
     3 N(14)  Bbb     0.0529     2.040     0.728     0.680 -0.3987  0.8920 -0.2130
              Bcc     0.0546     2.106     0.751     0.702  0.9167  0.3941 -0.0656
 
              Baa    -0.0972    -3.750    -1.338    -1.251  0.3610 -0.0961  0.9276
     4 N(14)  Bbb     0.0306     1.179     0.421     0.393 -0.1971  0.9644  0.1766
              Bcc     0.0666     2.570     0.917     0.857  0.9115  0.2465 -0.3292
 
              Baa    -0.0735    -2.836    -1.012    -0.946  0.1542 -0.2865  0.9456
     5 N(14)  Bbb     0.0331     1.277     0.456     0.426 -0.1900  0.9306  0.3129
              Bcc     0.0404     1.559     0.556     0.520  0.9696  0.2279 -0.0890
 
              Baa    -0.0181    -2.435    -0.869    -0.812 -0.3600  0.9328  0.0139
     6 C(13)  Bbb     0.0004     0.059     0.021     0.020  0.9329  0.3601 -0.0068
              Bcc     0.0177     2.376     0.848     0.792  0.0113 -0.0105  0.9999
 
              Baa    -0.0107    -1.442    -0.515    -0.481 -0.4140  0.9101  0.0180
     7 C(13)  Bbb    -0.0060    -0.811    -0.289    -0.271  0.9080  0.4115  0.0790
              Bcc     0.0168     2.254     0.804     0.752 -0.0645 -0.0491  0.9967
 
              Baa    -0.0121    -1.621    -0.578    -0.541  0.5047  0.8545  0.1228
     8 C(13)  Bbb    -0.0071    -0.954    -0.340    -0.318  0.8551 -0.5144  0.0646
              Bcc     0.0192     2.574     0.919     0.859 -0.1184 -0.0724  0.9903
 
              Baa    -0.0162    -2.171    -0.775    -0.724  0.0902  0.9922 -0.0861
     9 C(13)  Bbb    -0.0007    -0.090    -0.032    -0.030  0.9836 -0.0752  0.1640
              Bcc     0.0168     2.261     0.807     0.754 -0.1563  0.0995  0.9827
 
              Baa    -0.0154    -2.067    -0.737    -0.689  0.9700  0.2209 -0.1016
    10 C(13)  Bbb     0.0015     0.196     0.070     0.065 -0.2396  0.9396 -0.2445
              Bcc     0.0139     1.871     0.668     0.624  0.0414  0.2615  0.9643
 
              Baa    -0.0041    -0.555    -0.198    -0.185  0.8457  0.4612 -0.2686
    11 C(13)  Bbb    -0.0003    -0.037    -0.013    -0.012 -0.5334  0.7123 -0.4563
              Bcc     0.0044     0.591     0.211     0.197 -0.0191  0.5291  0.8483
 
              Baa    -0.0027    -0.360    -0.129    -0.120  0.9183 -0.3154  0.2392
    12 C(13)  Bbb     0.0000     0.003     0.001     0.001 -0.3453 -0.3427  0.8737
              Bcc     0.0027     0.357     0.128     0.119  0.1936  0.8849  0.4236
 
              Baa    -0.0162    -2.171    -0.775    -0.724  0.9867 -0.1225  0.1071
    13 C(13)  Bbb     0.0003     0.037     0.013     0.012  0.1428  0.9676 -0.2081
              Bcc     0.0159     2.134     0.762     0.712 -0.0781  0.2206  0.9722
 
              Baa    -0.0175    -2.352    -0.839    -0.785 -0.3960  0.9144 -0.0839
    14 C(13)  Bbb     0.0016     0.220     0.078     0.073  0.9071  0.4038  0.1186
              Bcc     0.0159     2.133     0.761     0.711 -0.1423  0.0291  0.9894
 
              Baa    -0.0125    -1.680    -0.599    -0.560 -0.4084  0.9114  0.0505
    15 C(13)  Bbb    -0.0078    -1.043    -0.372    -0.348  0.9043  0.3965  0.1584
              Bcc     0.0203     2.723     0.972     0.908 -0.1243 -0.1103  0.9861
 
              Baa    -0.0123    -1.653    -0.590    -0.552  0.4773  0.8642  0.1590
    16 C(13)  Bbb    -0.0075    -1.002    -0.357    -0.334  0.8641 -0.4945  0.0939
              Bcc     0.0198     2.655     0.947     0.886 -0.1598 -0.0926  0.9828
 
              Baa    -0.0171    -2.290    -0.817    -0.764  0.0155  0.9989  0.0447
    17 C(13)  Bbb    -0.0015    -0.199    -0.071    -0.066  0.9579 -0.0277  0.2856
              Bcc     0.0185     2.489     0.888     0.830 -0.2865 -0.0384  0.9573
 
              Baa    -0.0159    -2.134    -0.762    -0.712  0.9787  0.2009  0.0415
    18 C(13)  Bbb     0.0020     0.270     0.096     0.090 -0.2047  0.9695  0.1349
              Bcc     0.0139     1.864     0.665     0.622 -0.0131 -0.1405  0.9900
 
              Baa    -0.0042    -0.557    -0.199    -0.186  0.8724  0.4770 -0.1065
    19 C(13)  Bbb     0.0003     0.039     0.014     0.013 -0.4831  0.8747 -0.0395
              Bcc     0.0039     0.518     0.185     0.173  0.0744  0.0859  0.9935
 
              Baa    -0.0028    -0.376    -0.134    -0.125  0.9435 -0.3236 -0.0715
    20 C(13)  Bbb     0.0002     0.033     0.012     0.011 -0.1209 -0.5368  0.8350
              Bcc     0.0026     0.343     0.122     0.114  0.3086  0.7792  0.5456
 
              Baa    -0.0148    -1.981    -0.707    -0.661  0.9847 -0.1314 -0.1148
    21 C(13)  Bbb     0.0021     0.279     0.100     0.093  0.1336  0.9910  0.0114
              Bcc     0.0127     1.702     0.607     0.568  0.1122 -0.0266  0.9933
 
              Baa    -0.0569    -7.641    -2.726    -2.549  0.0482 -0.0624  0.9969
    22 C(13)  Bbb     0.0229     3.079     1.099     1.027  0.7797 -0.6214 -0.0766
              Bcc     0.0340     4.562     1.628     1.522  0.6243  0.7810  0.0187
 
              Baa    -0.0017    -0.883    -0.315    -0.295  0.0682 -0.0289  0.9973
    23 H(1)   Bbb    -0.0003    -0.138    -0.049    -0.046  0.7489  0.6619 -0.0320
              Bcc     0.0019     1.021     0.364     0.341 -0.6592  0.7490  0.0668
 
              Baa    -0.0522    -7.009    -2.501    -2.338  0.0773  0.1043  0.9915
    24 C(13)  Bbb     0.0204     2.740     0.978     0.914  0.6769  0.7247 -0.1290
              Bcc     0.0318     4.269     1.523     1.424  0.7320 -0.6812  0.0146
 
              Baa    -0.0017    -0.881    -0.315    -0.294  0.0375  0.1087  0.9934
    25 H(1)   Bbb     0.0001     0.039     0.014     0.013  0.7982 -0.6013  0.0357
              Bcc     0.0016     0.843     0.301     0.281  0.6012  0.7916 -0.1093
 
              Baa    -0.0550    -7.378    -2.633    -2.461 -0.1161  0.1395  0.9834
    26 C(13)  Bbb     0.0220     2.949     1.052     0.984  0.7641 -0.6200  0.1782
              Bcc     0.0330     4.429     1.580     1.477  0.6346  0.7721 -0.0346
 
              Baa    -0.0016    -0.874    -0.312    -0.291 -0.1605  0.0619  0.9851
    27 H(1)   Bbb    -0.0001    -0.063    -0.023    -0.021  0.7051  0.7056  0.0706
              Bcc     0.0018     0.937     0.334     0.313 -0.6907  0.7059 -0.1569
 
              Baa    -0.0580    -7.777    -2.775    -2.594 -0.0574 -0.1131  0.9919
    28 C(13)  Bbb     0.0231     3.102     1.107     1.035  0.6791  0.7238  0.1219
              Bcc     0.0348     4.674     1.668     1.559  0.7318 -0.6806 -0.0352
 
              Baa    -0.0018    -0.936    -0.334    -0.312  0.1272 -0.2572  0.9579
    29 H(1)   Bbb    -0.0002    -0.089    -0.032    -0.030  0.7984 -0.5465 -0.2528
              Bcc     0.0019     1.026     0.366     0.342  0.5885  0.7970  0.1358
 
              Baa    -0.0011    -0.146    -0.052    -0.049 -0.5455  0.8371 -0.0423
    30 C(13)  Bbb    -0.0007    -0.093    -0.033    -0.031  0.0516  0.0839  0.9951
              Bcc     0.0018     0.239     0.085     0.080  0.8365  0.5406 -0.0890
 
              Baa    -0.0009    -0.476    -0.170    -0.159 -0.4327  0.6880 -0.5826
    31 H(1)   Bbb    -0.0007    -0.369    -0.132    -0.123 -0.4713  0.3782  0.7967
              Bcc     0.0016     0.845     0.302     0.282  0.7685  0.6193  0.1606
 
              Baa    -0.0009    -0.462    -0.165    -0.154 -0.3891  0.6727  0.6293
    32 H(1)   Bbb    -0.0007    -0.361    -0.129    -0.120  0.5100 -0.4115  0.7553
              Bcc     0.0015     0.823     0.294     0.275  0.7671  0.6149 -0.1830
 
              Baa    -0.0008    -0.432    -0.154    -0.144 -0.3316  0.9408  0.0696
    33 H(1)   Bbb    -0.0007    -0.375    -0.134    -0.125  0.0392 -0.0600  0.9974
              Bcc     0.0015     0.807     0.288     0.269  0.9426  0.3335 -0.0170
 
              Baa    -0.0009    -0.127    -0.045    -0.042  0.4822  0.7382  0.4718
    34 C(13)  Bbb    -0.0007    -0.089    -0.032    -0.030  0.0128 -0.5444  0.8387
              Bcc     0.0016     0.216     0.077     0.072  0.8760 -0.3984 -0.2720
 
              Baa    -0.0008    -0.444    -0.158    -0.148 -0.2431 -0.6831  0.6887
    35 H(1)   Bbb    -0.0007    -0.357    -0.127    -0.119  0.4685  0.5390  0.7000
              Bcc     0.0015     0.801     0.286     0.267  0.8494 -0.4928 -0.1890
 
              Baa    -0.0008    -0.452    -0.161    -0.151  0.3600  0.7511  0.5534
    36 H(1)   Bbb    -0.0007    -0.391    -0.140    -0.131 -0.3838 -0.4214  0.8217
              Bcc     0.0016     0.843     0.301     0.281  0.8504 -0.5081  0.1366
 
              Baa    -0.0008    -0.442    -0.158    -0.148  0.1928  0.9474 -0.2555
    37 H(1)   Bbb    -0.0007    -0.363    -0.129    -0.121  0.0999  0.2400  0.9656
              Bcc     0.0015     0.805     0.287     0.269  0.9761 -0.2117 -0.0483
 
              Baa    -0.0008    -0.107    -0.038    -0.036  0.9492 -0.2902 -0.1213
    38 C(13)  Bbb    -0.0005    -0.071    -0.025    -0.024  0.1022 -0.0800  0.9915
              Bcc     0.0013     0.178     0.064     0.059  0.2975  0.9536  0.0463
 
              Baa    -0.0007    -0.365    -0.130    -0.122  0.9176 -0.3829  0.1066
    39 H(1)   Bbb    -0.0006    -0.317    -0.113    -0.106 -0.0564  0.1401  0.9885
              Bcc     0.0013     0.682     0.243     0.227  0.3935  0.9131 -0.1070
 
              Baa    -0.0007    -0.372    -0.133    -0.124  0.8501 -0.3125 -0.4238
    40 H(1)   Bbb    -0.0006    -0.313    -0.112    -0.104  0.3412 -0.2860  0.8954
              Bcc     0.0013     0.685     0.244     0.229  0.4010  0.9058  0.1365
 
              Baa    -0.0006    -0.315    -0.113    -0.105  0.9870 -0.1228 -0.1035
    41 H(1)   Bbb    -0.0005    -0.265    -0.094    -0.088  0.0972 -0.0556  0.9937
              Bcc     0.0011     0.580     0.207     0.193  0.1278  0.9909  0.0430
 
              Baa    -0.0018    -0.247    -0.088    -0.082  0.6106  0.2721  0.7437
    42 C(13)  Bbb     0.0000     0.005     0.002     0.002 -0.6448 -0.3745  0.6664
              Bcc     0.0018     0.243     0.087     0.081 -0.4598  0.8864  0.0533
 
              Baa    -0.0006    -0.301    -0.107    -0.100  0.8845  0.2887  0.3664
    43 H(1)   Bbb    -0.0005    -0.279    -0.099    -0.093 -0.3401 -0.1385  0.9301
              Bcc     0.0011     0.579     0.207     0.193 -0.3193  0.9473  0.0243
 
              Baa    -0.0021    -0.286    -0.102    -0.095 -0.4815 -0.5407  0.6898
    44 C(13)  Bbb    -0.0002    -0.031    -0.011    -0.010 -0.5834  0.7851  0.2081
              Bcc     0.0024     0.317     0.113     0.106  0.6541  0.3022  0.6935
 
              Baa    -0.0007    -0.363    -0.129    -0.121  0.5275  0.2106  0.8230
    45 H(1)   Bbb    -0.0005    -0.257    -0.092    -0.086  0.5703  0.6303 -0.5268
              Bcc     0.0012     0.619     0.221     0.207 -0.6297  0.7473  0.2124
 
              Baa    -0.0005    -0.285    -0.102    -0.095 -0.5612 -0.4850  0.6707
    46 H(1)   Bbb    -0.0003    -0.185    -0.066    -0.062  0.6324  0.2716  0.7255
              Bcc     0.0009     0.470     0.168     0.157 -0.5340  0.8313  0.1543
 
              Baa    -0.0009    -0.126    -0.045    -0.042  0.5054  0.8613  0.0517
    47 C(13)  Bbb    -0.0003    -0.034    -0.012    -0.011 -0.1371  0.0210  0.9903
              Bcc     0.0012     0.160     0.057     0.054  0.8519 -0.5076  0.1287
 
              Baa    -0.0008    -0.449    -0.160    -0.150  0.1707  0.4455  0.8789
    48 H(1)   Bbb    -0.0007    -0.371    -0.133    -0.124  0.5568  0.6922 -0.4591
              Bcc     0.0015     0.820     0.293     0.274  0.8129 -0.5677  0.1299
 
              Baa    -0.0008    -0.427    -0.152    -0.142  0.3108  0.8199 -0.4809
    49 H(1)   Bbb    -0.0007    -0.378    -0.135    -0.126  0.3358  0.3786  0.8625
              Bcc     0.0015     0.805     0.287     0.268  0.8892 -0.4295 -0.1577
 
              Baa    -0.0009    -0.473    -0.169    -0.158 -0.0243  0.5384  0.8424
    50 H(1)   Bbb    -0.0006    -0.325    -0.116    -0.109  0.2799  0.8126 -0.5112
              Bcc     0.0015     0.798     0.285     0.266  0.9597 -0.2234  0.1705
 
              Baa    -0.0068    -0.918    -0.328    -0.306  0.2265 -0.4889  0.8424
    51 C(13)  Bbb     0.0018     0.239     0.085     0.080 -0.4315  0.7250  0.5368
              Bcc     0.0051     0.679     0.242     0.226  0.8732  0.4851  0.0468
 
              Baa    -0.0010    -0.514    -0.183    -0.171 -0.3908  0.6766 -0.6241
    52 H(1)   Bbb    -0.0008    -0.427    -0.152    -0.142 -0.4471  0.4531  0.7712
              Bcc     0.0018     0.941     0.336     0.314  0.8046  0.5805  0.1254
 
              Baa    -0.0069    -0.922    -0.329    -0.308 -0.4557  0.6848  0.5686
    53 C(13)  Bbb    -0.0052    -0.694    -0.248    -0.232  0.8248  0.5651 -0.0196
              Bcc     0.0120     1.617     0.577     0.539  0.3347 -0.4601  0.8224
 
              Baa    -0.0006    -0.346    -0.123    -0.115  0.1190 -0.4442  0.8880
    54 H(1)   Bbb    -0.0000    -0.018    -0.006    -0.006  0.4170  0.8340  0.3614
              Bcc     0.0007     0.364     0.130     0.121  0.9011 -0.3273 -0.2845
 
              Baa    -0.0011    -0.564    -0.201    -0.188  0.5905 -0.5793 -0.5619
    55 H(1)   Bbb    -0.0004    -0.210    -0.075    -0.070  0.2363 -0.5417  0.8067
              Bcc     0.0015     0.774     0.276     0.258  0.7717  0.6092  0.1830
 
              Baa    -0.0008    -0.103    -0.037    -0.034 -0.3898  0.1280  0.9119
    56 C(13)  Bbb    -0.0007    -0.096    -0.034    -0.032  0.8751 -0.2568  0.4101
              Bcc     0.0015     0.199     0.071     0.066  0.2867  0.9579 -0.0119
 
              Baa    -0.0007    -0.348    -0.124    -0.116  0.9209 -0.3713  0.1189
    57 H(1)   Bbb    -0.0006    -0.312    -0.111    -0.104 -0.1369 -0.0224  0.9903
              Bcc     0.0012     0.660     0.235     0.220  0.3650  0.9282  0.0714
 
              Baa    -0.0007    -0.389    -0.139    -0.130  0.9014 -0.3669  0.2299
    58 H(1)   Bbb    -0.0007    -0.356    -0.127    -0.119 -0.1452  0.2440  0.9588
              Bcc     0.0014     0.745     0.266     0.248  0.4078  0.8977 -0.1667
 
              Baa    -0.0006    -0.315    -0.112    -0.105  0.9893 -0.1302  0.0663
    59 H(1)   Bbb    -0.0005    -0.270    -0.096    -0.090 -0.0534  0.0997  0.9936
              Bcc     0.0011     0.585     0.209     0.195  0.1360  0.9865 -0.0917
 
              Baa    -0.0008    -0.104    -0.037    -0.035  0.7887  0.2840  0.5453
    60 C(13)  Bbb    -0.0007    -0.090    -0.032    -0.030 -0.4734 -0.2853  0.8334
              Bcc     0.0014     0.194     0.069     0.065 -0.3922  0.9154  0.0906
 
              Baa    -0.0007    -0.357    -0.127    -0.119  0.8705  0.4919  0.0136
    61 H(1)   Bbb    -0.0006    -0.316    -0.113    -0.105  0.0333 -0.0865  0.9957
              Bcc     0.0013     0.673     0.240     0.225 -0.4910  0.8663  0.0917
 
              Baa    -0.0006    -0.326    -0.116    -0.109  0.9627  0.2705  0.0011
    62 H(1)   Bbb    -0.0005    -0.268    -0.096    -0.089 -0.0202  0.0679  0.9975
              Bcc     0.0011     0.594     0.212     0.198 -0.2698  0.9603 -0.0709
 
              Baa    -0.0007    -0.390    -0.139    -0.130  0.8336  0.4970 -0.2411
    63 H(1)   Bbb    -0.0007    -0.357    -0.127    -0.119  0.1231  0.2583  0.9582
              Bcc     0.0014     0.747     0.266     0.249 -0.5385  0.8284 -0.1541
 
              Baa    -0.0006    -0.083    -0.030    -0.028  0.3889  0.8492  0.3573
    64 C(13)  Bbb    -0.0005    -0.071    -0.025    -0.024  0.9112 -0.4117 -0.0134
              Bcc     0.0011     0.154     0.055     0.051 -0.1357 -0.3308  0.9339
 
              Baa    -0.0007    -0.373    -0.133    -0.125 -0.3286  0.9443 -0.0197
    65 H(1)   Bbb    -0.0006    -0.304    -0.108    -0.101  0.9181  0.3243  0.2278
              Bcc     0.0013     0.677     0.242     0.226 -0.2215 -0.0567  0.9735
 
              Baa    -0.0006    -0.346    -0.123    -0.115 -0.6576  0.7339  0.1699
    66 H(1)   Bbb    -0.0006    -0.307    -0.110    -0.102  0.7523  0.6280  0.1992
              Bcc     0.0012     0.653     0.233     0.218 -0.0395 -0.2588  0.9651
 
              Baa    -0.0008    -0.418    -0.149    -0.139  0.4274  0.8099  0.4018
    67 H(1)   Bbb    -0.0007    -0.383    -0.137    -0.128  0.8624 -0.4986  0.0875
              Bcc     0.0015     0.802     0.286     0.267 -0.2712 -0.3091  0.9116
 
              Baa    -0.0046    -0.176    -0.063    -0.059  0.5897  0.6419 -0.4901
    68 N(14)  Bbb    -0.0011    -0.042    -0.015    -0.014  0.3060  0.3840  0.8711
              Bcc     0.0056     0.217     0.077     0.072  0.7474 -0.6637  0.0301
 
              Baa    -0.0014    -0.731    -0.261    -0.244  0.5609  0.7808 -0.2752
    69 H(1)   Bbb    -0.0011    -0.568    -0.203    -0.189  0.7980 -0.5984 -0.0714
              Bcc     0.0024     1.299     0.464     0.433  0.2205  0.1796  0.9587
 
              Baa    -0.0032    -0.433    -0.154    -0.144 -0.0894  0.8816  0.4635
    70 C(13)  Bbb     0.0000     0.005     0.002     0.002  0.9926  0.1174 -0.0320
              Bcc     0.0032     0.427     0.152     0.143  0.0827 -0.4572  0.8855
 
              Baa    -0.0113    -1.523    -0.543    -0.508  0.7285  0.6223 -0.2865
    71 C(13)  Bbb     0.0024     0.322     0.115     0.107  0.6227 -0.4270  0.6557
              Bcc     0.0089     1.201     0.428     0.401 -0.2857  0.6560  0.6986
 
              Baa    -0.0047    -2.533    -0.904    -0.845 -0.0056  0.8464 -0.5326
    72 H(1)   Bbb    -0.0042    -2.220    -0.792    -0.740  0.8786 -0.2502 -0.4068
              Bcc     0.0089     4.752     1.696     1.585  0.4776  0.4702  0.7422
 
              Baa    -0.0378    -1.460    -0.521    -0.487  0.0874 -0.1912  0.9777
    73 N(14)  Bbb     0.0129     0.499     0.178     0.166 -0.4449  0.8706  0.2100
              Bcc     0.0249     0.960     0.343     0.320  0.8913  0.4533  0.0089
 
              Baa    -0.0063    -0.851    -0.304    -0.284  0.9585  0.2616  0.1136
    74 C(13)  Bbb    -0.0039    -0.521    -0.186    -0.174 -0.2844  0.8471  0.4489
              Bcc     0.0102     1.372     0.489     0.458  0.0212 -0.4626  0.8863
 
              Baa    -0.0053    -2.833    -1.011    -0.945  0.5269  0.5617  0.6379
    75 H(1)   Bbb    -0.0047    -2.482    -0.886    -0.828  0.7373 -0.6754 -0.0142
              Bcc     0.0100     5.315     1.896     1.773 -0.4228 -0.4778  0.7700
 

 ---------------------------------------------------------------------------------

 Unable to Open any file for archive entry.
 1\1\GINC-BGN1020\SP\UAPFD\Gen\C34H34Fe1N6(1+,2)\BEBJONES\23-Jul-2024\0
 \\# apfd/gen scf=maxcycle=999 geom=check\\1h5i_III_D\\1,2\Fe,0,3.28126
 94467,1.9798027769,11.6935910367\N,0,1.6661347587,1.8947542846,10.5252
 341164\N,0,2.2934962023,3.1627803497,12.9595424416\N,0,4.9640801973,2.
 3690875975,12.6747956376\N,0,4.2944561856,0.8913178656,10.3695923187\C
 ,0,1.5228873804,1.1772506954,9.3728963785\C,0,0.1565874003,1.224828963
 1,8.9031096994\C,0,-0.5177326258,2.0225005373,9.7734167666\C,0,0.43773
 22838,2.4248245613,10.7815425145\C,0,0.9612756588,3.4410941781,12.9457
 169678\C,0,0.5595630113,4.0939925167,14.1717401427\C,0,1.6892766673,4.
 2378362216,14.915338292\C,0,2.7669440733,3.6915140367,14.1222014655\C,
 0,5.1306979522,3.2005773503,13.7391380749\C,0,6.5286866288,3.300209580
 3,14.1051283422\C,0,7.1997958806,2.4548480693,13.2618381153\C,0,6.2053
 436585,1.8696344718,12.3995597211\C,0,5.5911499657,0.4876168653,10.472
 2575925\C,0,5.9286551255,-0.4261272979,9.399882238\C,0,4.8128479586,-0
 .5089862111,8.6105822827\C,0,3.810285101,0.310421706,9.2359503526\C,0,
 2.519671737,0.4506192984,8.7547647958\H,0,2.2703905312,-0.0656656271,7
 .8401487095\C,0,0.0938748102,3.1333465118,11.9165101683\H,0,-0.9316523
 631,3.4549456417,12.0135698956\C,0,4.1018495903,3.7663998638,14.469142
 4746\H,0,4.3586436845,4.301125097,15.370998837\C,0,6.4980805893,0.9658
 325007,11.3956453393\H,0,7.5195464672,0.6317775531,11.3043422088\C,0,-
 0.3363272402,0.5326910038,7.6787010639\H,0,-0.1826353847,-0.5440466627
 ,7.7561397577\H,0,0.1983971779,0.8875028903,6.7974463149\H,0,-1.397707
 5303,0.7165014428,7.5320246882\C,0,-1.9512658369,2.4288906357,9.764841
 9212\H,0,-2.0389242385,3.5150224429,9.7756554116\H,0,-2.4674685553,2.0
 39112847,10.6428679469\H,0,-2.4545180859,2.0533666194,8.8772816151\C,0
 ,4.6124286748,-1.3068978188,7.3685629776\H,0,4.3195886728,-0.659790814
 5,6.5412879867\H,0,3.8265101204,-2.0499590775,7.508555677\H,0,5.527426
 2813,-1.8266551676,7.0965345358\C,0,7.1893074891,-1.1102545583,9.19805
 48878\H,0,7.4967908407,-1.2195235844,8.1636151331\C,0,7.9487495483,-1.
 6319247865,10.1547966427\H,0,7.6641809538,-1.5979983967,11.1928547384\
 H,0,8.8751569597,-2.1331515592,9.9279412877\C,0,8.6655254116,2.2149523
 496,13.1630606504\H,0,8.9709991408,2.118608222,12.1225218027\H,0,8.945
 2592751,1.2974123885,13.6835398343\H,0,9.2096558416,3.043790907,13.611
 0985604\C,0,7.0402083782,4.162586924,15.1473028401\H,0,6.4965915831,5.
 089321053,15.2909118155\C,0,8.0913644791,3.9036444135,15.918362301\H,0
 ,8.6380738413,2.9793486973,15.8504720721\H,0,8.426868723,4.6023260803,
 16.666704613\C,0,1.8655483479,4.8531434486,16.2608886757\H,0,2.4456388
 306,5.7737251739,16.1874449018\H,0,2.3950533621,4.1730705039,16.927815
 0156\H,0,0.9027630724,5.0924142757,16.7056850322\C,0,-0.8374773435,4.5
 049587846,14.48684526\H,0,-1.1811729989,5.260862359,13.780243663\H,0,-
 0.9010121793,4.9214249946,15.4890485213\H,0,-1.5125891802,3.6515412895
 ,14.4239358862\C,0,2.5082640132,-1.7742574345,15.7599032767\H,0,3.1133
 614868,-2.6803000212,15.7367118659\H,0,1.4866149563,-2.0531552313,16.0
 170853389\H,0,2.8946597941,-1.1171675147,16.5324941803\N,0,2.134250779
 3,-1.6720235987,13.2863125719\H,0,1.7711039878,-2.6072057106,13.200648
 7785\C,0,2.5509098381,-1.0790697363,14.448795193\C,0,2.3047009636,-0.7
 794079631,12.2854082146\H,0,2.061197279,-0.9727281161,11.2601281068\N,
 0,2.8044046252,0.3461215353,12.7424109238\C,0,2.9625197738,0.172201024
 3,14.0892534205\H,0,3.359186113,0.9548154881,14.703627171\\Version=ES6
 4L-G16RevC.02\State=2-A\HF=-2906.8300447\S2=0.940845\S2-1=0.\S2A=0.757
 422\RMSD=4.839e-09\Dipole=-1.1162953,-2.1535364,1.0255224\Quadrupole=6
 .2834102,-6.6267344,0.3433242,-0.5829119,5.7542585,11.71889\PG=C01 [X(
 C34H34Fe1N6)]\\@
 The archive entry for this job was punched.


 OLD HORSE! OLD HORSE! WHAT BROUGHT YOU HERE?
 FROM SACARAP' TO PORTLAND PIER
 I'VE CARTED STONE THIS MANY A YEAR;
 TILL, KILLED BY BLOWS AND SORE ABUSE,
 THEY SALTED ME DOWN FOR SAILORS' USE.
 THE SAILORS THEY DO ME DESPISE;
 THEY TURN ME OVER AND DAMN MY EYES;
 CUT OFF MY MEAT, AND SCRAPE MY BONES,
 AND PITCH ME OVER TO DAVY JONES.

    SAILORS' COMPLAINT ABOUT THE BEEF
    SERVED ON SHIPBOARD, CIRCA 1835.
 Job cpu time:       0 days  5 hours 50 minutes 11.0 seconds.
 Elapsed time:       0 days  0 hours  5 minutes 57.8 seconds.
 File lengths (MBytes):  RWF=    408 Int=      0 D2E=      0 Chk=    150 Scr=      1
 Normal termination of Gaussian 16 at Tue Jul 23 10:31:49 2024.
