 Entering Gaussian System, Link 0=g16
 Input=1h7k05.com
 Output=1h7k05.log
 Initial command:
 /sw/chem/gaussian/g16_C02/a100/g16/l1.exe "/local/bebjones_7947861/Gau-1536345.inp" -scrdir="/local/bebjones_7947861/"
 Entering Link 1 = /sw/chem/gaussian/g16_C02/a100/g16/l1.exe PID=   1536346.
  
 Copyright (c) 1988-2021, Gaussian, Inc.  All Rights Reserved.
  
 This is part of the Gaussian(R) 16 program.  It is based on
 the Gaussian(R) 09 system (copyright 2009, Gaussian, Inc.),
 the Gaussian(R) 03 system (copyright 2003, Gaussian, Inc.),
 the Gaussian(R) 98 system (copyright 1998, Gaussian, Inc.),
 the Gaussian(R) 94 system (copyright 1995, Gaussian, Inc.),
 the Gaussian 92(TM) system (copyright 1992, Gaussian, Inc.),
 the Gaussian 90(TM) system (copyright 1990, Gaussian, Inc.),
 the Gaussian 88(TM) system (copyright 1988, Gaussian, Inc.),
 the Gaussian 86(TM) system (copyright 1986, Carnegie Mellon
 University), and the Gaussian 82(TM) system (copyright 1983,
 Carnegie Mellon University). Gaussian is a federally registered
 trademark of Gaussian, Inc.
  
 This software contains proprietary and confidential information,
 including trade secrets, belonging to Gaussian, Inc.
  
 This software is provided under written license and may be
 used, copied, transmitted, or stored only in accord with that
 written license.
  
 The following legend is applicable only to US Government
 contracts under FAR:
  
                    RESTRICTED RIGHTS LEGEND
  
 Use, reproduction and disclosure by the US Government is
 subject to restrictions as set forth in subparagraphs (a)
 and (c) of the Commercial Computer Software - Restricted
 Rights clause in FAR 52.227-19.
  
 Gaussian, Inc.
 340 Quinnipiac St., Bldg. 40, Wallingford CT 06492
  
  
 ---------------------------------------------------------------
 Warning -- This program may not be used in any manner that
 competes with the business of Gaussian, Inc. or will provide
 assistance to any competitor of Gaussian, Inc.  The licensee
 of this program is prohibited from giving any competitor of
 Gaussian, Inc. access to this program.  By using this program,
 the user acknowledges that Gaussian, Inc. is engaged in the
 business of creating and licensing software in the field of
 computational chemistry and represents and warrants to the
 licensee that it is not a competitor of Gaussian, Inc. and that
 it will not use this program in any manner prohibited above.
 ---------------------------------------------------------------
  

 Cite this work as:
 Gaussian 16, Revision C.02,
 M. J. Frisch, G. W. Trucks, H. B. Schlegel, G. E. Scuseria, 
 M. A. Robb, J. R. Cheeseman, G. Scalmani, V. Barone, 
 G. A. Petersson, H. Nakatsuji, X. Li, M. Caricato, A. V. Marenich, 
 J. Bloino, B. G. Janesko, R. Gomperts, B. Mennucci, H. P. Hratchian, 
 J. V. Ortiz, A. F. Izmaylov, J. L. Sonnenberg, D. Williams-Young, 
 F. Ding, F. Lipparini, F. Egidi, J. Goings, B. Peng, A. Petrone, 
 T. Henderson, D. Ranasinghe, V. G. Zakrzewski, J. Gao, N. Rega, 
 G. Zheng, W. Liang, M. Hada, M. Ehara, K. Toyota, R. Fukuda, 
 J. Hasegawa, M. Ishida, T. Nakajima, Y. Honda, O. Kitao, H. Nakai, 
 T. Vreven, K. Throssell, J. A. Montgomery, Jr., J. E. Peralta, 
 F. Ogliaro, M. J. Bearpark, J. J. Heyd, E. N. Brothers, K. N. Kudin, 
 V. N. Staroverov, T. A. Keith, R. Kobayashi, J. Normand, 
 K. Raghavachari, A. P. Rendell, J. C. Burant, S. S. Iyengar, 
 J. Tomasi, M. Cossi, J. M. Millam, M. Klene, C. Adamo, R. Cammi, 
 J. W. Ochterski, R. L. Martin, K. Morokuma, O. Farkas, 
 J. B. Foresman, and D. J. Fox, Gaussian, Inc., Wallingford CT, 2019.
 
 ******************************************
 Gaussian 16:  ES64L-G16RevC.02  7-Dec-2021
                23-Jul-2024 
 ******************************************
 %mem=16GB
 %CPU=0-71
 SetSPE:  set environment variable "OMP_PROC_BIND" = "true"
 SetSPE:  set environment variable "OMP_PLACES" = "{0},{1},{2},{3},{4},{5},{6},{7},{8},{9},{10},{11},{12},{13},{14},{15},{16},{17},{18},{19},{20},{21},{22},{23},{24},{25},{26},{27},{28},{29},{30},{31},{32},{33},{34},{35},{36},{37},{38},{39},{40},{41},{42},{43},{44},{45},{46},{47},{48},{49},{50},{51},{52},{53},{54},{55},{56},{57},{58},{59},{60},{61},{62},{63},{64},{65},{66},{67},{68},{69},{70},{71}"
 Will use up to   72 processors via shared memory.
 %gpucpu=0,1,2,3=0,1,2,3
 Will use    4 GPUs:
 Thread  CPU   GPU
      0    0     0
      1    1     1
      2    2     2
      3    3     3
      4    4    -1
      5    5    -1
      6    6    -1
      7    7    -1
      8    8    -1
      9    9    -1
     10   10    -1
     11   11    -1
     12   12    -1
     13   13    -1
     14   14    -1
     15   15    -1
     16   16    -1
     17   17    -1
     18   18    -1
     19   19    -1
     20   20    -1
     21   21    -1
     22   22    -1
     23   23    -1
     24   24    -1
     25   25    -1
     26   26    -1
     27   27    -1
     28   28    -1
     29   29    -1
     30   30    -1
     31   31    -1
     32   32    -1
     33   33    -1
     34   34    -1
     35   35    -1
     36   36    -1
     37   37    -1
     38   38    -1
     39   39    -1
     40   40    -1
     41   41    -1
     42   42    -1
     43   43    -1
     44   44    -1
     45   45    -1
     46   46    -1
     47   47    -1
     48   48    -1
     49   49    -1
     50   50    -1
     51   51    -1
     52   52    -1
     53   53    -1
     54   54    -1
     55   55    -1
     56   56    -1
     57   57    -1
     58   58    -1
     59   59    -1
     60   60    -1
     61   61    -1
     62   62    -1
     63   63    -1
     64   64    -1
     65   65    -1
     66   66    -1
     67   67    -1
     68   68    -1
     69   69    -1
     70   70    -1
     71   71    -1
 SetGPE:  set environment variable "OMP_PROC_BIND" = "true"
 SetGPE:  set environment variable "OMP_PLACES" = "{0},{1},{2},{3},{4},{5},{6},{7},{8},{9},{10},{11},{12},{13},{14},{15},{16},{17},{18},{19},{20},{21},{22},{23},{24},{25},{26},{27},{28},{29},{30},{31},{32},{33},{34},{35},{36},{37},{38},{39},{40},{41},{42},{43},{44},{45},{46},{47},{48},{49},{50},{51},{52},{53},{54},{55},{56},{57},{58},{59},{60},{61},{62},{63},{64},{65},{66},{67},{68},{69},{70},{71}"
 %oldchk=1h7k_II_Sre.chk
 %chk=1h7k_II_Qn.chk
 Properties for Device   0
 Minimum vector length:                              32
 Maximum vector length:                            1024
 Number of SMPs:                                    108
 Maximum number of threads per SMP:                2048
 Number of ASync Engines:                             5
 Memory:                                           9207742464
 Properties for Device   1
 Minimum vector length:                              32
 Maximum vector length:                            1024
 Number of SMPs:                                    108
 Maximum number of threads per SMP:                2048
 Number of ASync Engines:                             5
 Memory:                                           9207742464
 Properties for Device   2
 Minimum vector length:                              32
 Maximum vector length:                            1024
 Number of SMPs:                                    108
 Maximum number of threads per SMP:                2048
 Number of ASync Engines:                             5
 Memory:                                           9207742464
 Properties for Device   3
 Minimum vector length:                              32
 Maximum vector length:                            1024
 Number of SMPs:                                    108
 Maximum number of threads per SMP:                2048
 Number of ASync Engines:                             5
 Memory:                                           9207742464
   8286968217 words of memory will be used on each GPU.
 Copying data from "1h7k_II_Sre.chk" to current chk file "1h7k_II_Qn.chk"
 IOpt=  2 FromEx=T IUOpen= 4 IOptOp= 5 NList=   0 IFRang= 0 IUIn= 4 IUOut= 2.
 --------------------------------------------------------------
 # apfd/def2TZVP guess=read scf=maxcycle=999 geom=check pop=nbo
 --------------------------------------------------------------
 1/29=2,38=1,172=1/1;
 2/12=2,40=1/2;
 3/5=44,7=101,11=2,14=-4,25=1,30=1,74=-44,116=-2/1,2,3;
 4/5=1/1;
 5/5=2,7=999,38=6/2;
 6/7=2,8=2,9=2,10=2,28=1,40=1/1,7;
 99/5=1,9=1/99;
 ---------
 1h7k_II_Q
 ---------
 Structure from the checkpoint file:  "1h7k_II_Qn.chk"
 Charge =  0 Multiplicity = 5
 Z-Matrix found in chk file.
 Fe,0,58.7440146169,15.0540008893,17.120905528
 N,0,58.4693722793,13.8383576989,15.5763227025
 N,0,57.3159530506,14.1247761378,18.1710905388
 N,0,58.9404298212,16.3656845716,18.6172677697
 N,0,60.1117590155,16.0318519983,16.0679185698
 C,0,58.9512897638,13.9653793182,14.3091412949
 C,0,58.4784726657,12.8898376921,13.4680549806
 C,0,57.5728727798,12.2006827373,14.2103453154
 C,0,57.5176478089,12.8612596236,15.4959243061
 C,0,56.5173542989,13.1133915613,17.7221910848
 C,0,55.6415912583,12.6491514038,18.766089511
 C,0,55.8386705105,13.4858056173,19.8333617135
 C,0,56.8282607887,14.451909071,19.4019198251
 C,0,58.244746447,16.4101632306,19.7916687508
 C,0,58.8713116891,17.3103900706,20.7245980698
 C,0,59.8637985167,17.9469392219,20.0283943879
 C,0,59.8559039758,17.3714038833,18.6973775635
 C,0,60.9071288587,17.0422059273,16.5123259639
 C,0,61.8167643567,17.4753218824,15.4744888839
 C,0,61.6128905892,16.6440121138,14.4185022843
 C,0,60.5248637711,15.7694554328,14.7960831396
 C,0,59.9454430994,14.852063178,13.9410267724
 H,0,60.3120107275,14.8078832243,12.9273344203
 C,0,56.6205882456,12.5116766896,16.4813230636
 H,0,55.9185716399,11.7254647996,16.2523849185
 C,0,57.2451273652,15.5244974943,20.1597655059
 H,0,56.777036224,15.6702244126,21.1205770658
 C,0,60.840573284,17.6232277484,17.7627193267
 H,0,61.5540481174,18.4008648287,17.986996469
 C,0,56.771930256,10.998207215,13.8491842183
 H,0,57.0585085297,10.6241790463,12.8694052865
 H,0,55.7083579034,11.2372017511,13.8250754017
 H,0,56.9262988396,10.2063160651,14.5816971652
 C,0,58.9201594459,12.6675233276,12.0631422334
 H,0,59.996415601,12.4991693254,12.0227977984
 H,0,58.6910061942,13.5373529674,11.4476626505
 H,0,58.4201831801,11.8032800405,11.6331797198
 C,0,54.7693309471,11.4466605517,18.6779266774
 H,0,55.2581247816,10.657327467,18.1089942456
 H,0,53.8263495707,11.6859238876,18.1840995316
 H,0,54.5487571071,11.0734110541,19.675918817
 C,0,55.2265905165,13.470060735,21.1441388934
 H,0,55.8549150815,13.8168492477,21.9566146911
 C,0,53.9852026737,13.0784035172,21.4110210712
 H,0,53.5993322946,13.0799475233,22.4167863962
 H,0,53.3021663045,12.7713460626,20.6386827752
 C,0,58.403568763,17.56921546,22.1136200911
 H,0,58.7777654843,16.8059195551,22.7977504969
 H,0,57.315756683,17.5622299096,22.1627406648
 H,0,58.7615149182,18.5390514583,22.4527620045
 C,0,60.7663708984,18.9879507711,20.4672798782
 H,0,61.0317561183,19.7214248086,19.7149472749
 C,0,61.2766127122,19.1000129097,21.6890911214
 H,0,61.0838412022,18.3732292134,22.45888611
 H,0,61.9320557391,19.9129743205,21.9532455183
 C,0,62.796219905,18.5868602142,15.6276337124
 H,0,63.4914237789,18.3776857668,16.4408980974
 H,0,62.2799585125,19.5194446652,15.8548223818
 H,0,63.3678845009,18.7266070883,14.7136617268
 C,0,62.2817642287,16.623533072,13.0874299595
 H,0,63.1056639882,17.3320173802,13.0589594594
 H,0,61.5765763942,16.885545515,12.2980212482
 H,0,62.67517972,15.6299851779,12.8739245037
 C,0,59.8508905113,8.7062003405,15.4075494269
 H,0,60.8271733024,8.2301885495,15.3228882418
 H,0,59.4862639888,8.8971936589,14.3996017027
 H,0,59.1720982474,8.0152819501,15.9007261067
 C,0,59.9606790287,9.9914647603,16.1704694451
 C,0,59.3166258956,10.1680121124,17.3855062148
 H,0,58.7286681398,9.3634434164,17.8027830727
 C,0,59.4010365713,11.3688464767,18.0704583241
 H,0,58.8710932235,11.5007248665,19.0039029163
 C,0,60.135172126,12.4132867106,17.5335757501
 O,0,60.1922704073,13.6537480576,18.1448955871
 H,0,59.7846745119,13.579270256,19.0220006909
 C,0,60.7185892033,11.0421809932,15.6613746773
 H,0,61.2288641656,10.9174985566,14.7179491543
 C,0,60.8155734059,12.2418785513,16.3339983838
 H,0,61.3762889311,13.072051214,15.9352187575
 Recover connectivity data from disk.
 Stoichiometry    C37H36FeN4O(5)
 Framework group  C1[X(C37H36FeN4O)]
 Deg. of freedom   231
 Full point group                 C1      NOp   1
 Largest Abelian subgroup         C1      NOp   1
 Largest concise Abelian subgroup C1      NOp   1
                         Standard orientation:                         
 ---------------------------------------------------------------------
 Center     Atomic      Atomic             Coordinates (Angstroms)
 Number     Number       Type             X           Y           Z
 ---------------------------------------------------------------------
      1         26           0        0.421105   -0.178513   -0.495873
      2          7           0       -1.477903   -0.664398   -0.806734
      3          7           0       -0.012053    1.773727   -0.578569
      4          7           0        2.355052    0.295286   -0.312690
      5          7           0        0.880095   -2.108502   -0.482806
      6          6           0       -1.994967   -1.886675   -1.111385
      7          6           0       -3.424159   -1.806778   -1.308354
      8          6           0       -3.736234   -0.484833   -1.275011
      9          6           0       -2.492998    0.218230   -1.046556
     10          6           0       -1.232256    2.315086   -0.861777
     11          6           0       -1.188142    3.751530   -0.778795
     12          6           0        0.122771    4.083522   -0.557006
     13          6           0        0.848552    2.830175   -0.523099
     14          6           0        2.916403    1.540145   -0.293075
     15          6           0        4.286087    1.477715    0.146717
     16          6           0        4.598619    0.146854    0.224553
     17          6           0        3.385971   -0.572824   -0.113760
     18          6           0        2.096317   -2.650474   -0.203529
     19          6           0        2.037153   -4.095134   -0.243398
     20          6           0        0.735566   -4.416659   -0.467546
     21          6           0        0.034024   -3.164523   -0.644221
     22          6           0       -1.296538   -3.074479   -1.004714
     23          1           0       -1.831043   -3.993300   -1.189021
     24          6           0       -2.393730    1.592194   -1.063956
     25          1           0       -3.290516    2.148351   -1.287191
     26          6           0        2.217724    2.731206   -0.404244
     27          1           0        2.784460    3.648326   -0.369515
     28          6           0        3.253618   -1.938605    0.040186
     29          1           0        4.143109   -2.502745    0.273891
     30          6           0       -5.061176    0.178881   -1.423021
     31          1           0       -5.857277   -0.559008   -1.484126
     32          1           0       -5.088651    0.785706   -2.328502
     33          1           0       -5.255987    0.829796   -0.571050
     34          6           0       -4.307300   -2.985201   -1.531224
     35          1           0       -4.256821   -3.666881   -0.682071
     36          1           0       -3.998513   -3.531911   -2.422116
     37          1           0       -5.340712   -2.674235   -1.662074
     38          6           0       -2.373404    4.648469   -0.851240
     39          1           0       -3.233179    4.190413   -0.364802
     40          1           0       -2.641426    4.855325   -1.888401
     41          1           0       -2.155022    5.593666   -0.358422
     42          6           0        0.728588    5.385674   -0.382617
     43          1           0        1.585964    5.416356    0.280056
     44          6           0        0.323299    6.509138   -0.965056
     45          1           0        0.815330    7.448839   -0.777097
     46          1           0       -0.490167    6.529162   -1.668762
     47          6           0        5.184597    2.650787    0.324869
     48          1           0        5.028156    3.114987    1.299919
     49          1           0        4.995855    3.401968   -0.440572
     50          1           0        6.224311    2.337577    0.256907
     51          6           0        5.857152   -0.479167    0.563899
     52          1           0        6.075177   -1.401043    0.037565
     53          6           0        6.733122   -0.016613    1.449589
     54          1           0        6.544362    0.867291    2.033579
     55          1           0        7.662191   -0.526635    1.641935
     56          6           0        3.206604   -4.989222   -0.016914
     57          1           0        3.630433   -4.824704    0.973926
     58          1           0        3.984055   -4.792013   -0.754839
     59          1           0        2.915769   -6.033523   -0.097693
     60          6           0        0.100218   -5.758463   -0.591882
     61          1           0        0.813388   -6.545671   -0.361093
     62          1           0       -0.269654   -5.916982   -1.605377
     63          1           0       -0.742348   -5.846101    0.093611
     64          6           0       -5.430979   -0.051667    2.696674
     65          1           0       -5.672118   -0.599738    3.606813
     66          1           0       -5.914851   -0.560668    1.864703
     67          1           0       -5.840609    0.951659    2.779689
     68          6           0       -3.947471   -0.013031    2.487586
     69          6           0       -3.247096    1.183491    2.497457
     70          1           0       -3.773173    2.111517    2.668212
     71          6           0       -1.880222    1.212529    2.275875
     72          1           0       -1.351991    2.156066    2.259752
     73          6           0       -1.200244    0.030248    2.035259
     74          8           0        0.151792    0.014359    1.739519
     75          1           0        0.506153    0.904782    1.889752
     76          6           0       -3.242217   -1.193984    2.274101
     77          1           0       -3.774086   -2.133692    2.267633
     78          6           0       -1.880753   -1.181268    2.056487
     79          1           0       -1.328970   -2.086917    1.861684
 ---------------------------------------------------------------------
 Rotational constants (GHZ):           0.0976428           0.0829348           0.0530300
 Standard basis: def2TZVP (5D, 7F)
 There are  1780 symmetry adapted cartesian basis functions of A   symmetry.
 There are  1563 symmetry adapted basis functions of A   symmetry.
  1563 basis functions,  2532 primitive gaussians,  1780 cartesian basis functions
   162 alpha electrons      158 beta electrons
       nuclear repulsion energy      6034.5724197170 Hartrees.
 NAtoms=   79 NActive=   79 NUniq=   79 SFac= 1.00D+00 NAtFMM=   60 NAOKFM=T Big=T
 Integral buffers will be    131072 words long.
 Raffenetti 2 integral format.
 Two-electron integral symmetry is turned on.
 R6APFD:  NTU= -4 IXU= 1 FactS= 1.050
 Nuclear repulsion after empirical dispersion term =     6034.4179594754 Hartrees.
 One-electron integrals computed using PRISM.
   1 Symmetry operations used in ECPInt.
 ECPInt:  NShTT=  193131 NPrTT=  597869 LenC2=  151275 LenP2D=  310590.
 LDataN:  DoStor=T MaxTD1= 6 Len=  172
 Number of processors reduced to  22 by ecpmxn.
 NBasis=  1563 RedAO= T EigKep=  3.61D-06  NBF=  1563
 NBsUse=  1563 1.00D-06 EigRej= -1.00D+00 NBFU=  1563
 Initial guess from the checkpoint file:  "1h7k_II_Qn.chk"
 B after Tr=    -0.000000   -0.000000   -0.000000
         Rot=    1.000000   -0.000000    0.000000    0.000000 Ang=   0.00 deg.
 Initial guess <Sx>= 0.0000 <Sy>= 0.0000 <Sz>= 2.0000 <S**2>= 6.0866 S= 2.0173
 Requested convergence on RMS density matrix=1.00D-08 within 999 cycles.
 Requested convergence on MAX density matrix=1.00D-06.
 Requested convergence on             energy=1.00D-06.
 No special actions if energy rises.
 Rare condition: small coef for last iteration:  0.000D+00
 Rare condition: small coef for last iteration:  0.000D+00
 Rare condition: small coef for last iteration:  0.000D+00
 Restarting incremental Fock formation.
 SCF Done:  E(UAPFD) =  -2988.77186565     A.U. after   36 cycles
            NFock= 36  Conv=0.30D-08     -V/T= 2.0034
 <Sx>= 0.0000 <Sy>= 0.0000 <Sz>= 2.0000 <S**2>= 6.0858 S= 2.0171
 <L.S>=  0.00000000000    
 Annihilation of the first spin contaminant:
 S**2 before annihilation     6.0858,   after     6.0022

 **********************************************************************

            Population analysis using the SCF Density.

 **********************************************************************

 Orbital symmetries:
 Alpha Orbitals:
       Occupied  (A) (A) (A) (A) (A) (A) (A) (A) (A) (A) (A) (A)
                 (A) (A) (A) (A) (A) (A) (A) (A) (A) (A) (A) (A)
                 (A) (A) (A) (A) (A) (A) (A) (A) (A) (A) (A) (A)
                 (A) (A) (A) (A) (A) (A) (A) (A) (A) (A) (A) (A)
                 (A) (A) (A) (A) (A) (A) (A) (A) (A) (A) (A) (A)
                 (A) (A) (A) (A) (A) (A) (A) (A) (A) (A) (A) (A)
                 (A) (A) (A) (A) (A) (A) (A) (A) (A) (A) (A) (A)
                 (A) (A) (A) (A) (A) (A) (A) (A) (A) (A) (A) (A)
                 (A) (A) (A) (A) (A) (A) (A) (A) (A) (A) (A) (A)
                 (A) (A) (A) (A) (A) (A) (A) (A) (A) (A) (A) (A)
                 (A) (A) (A) (A) (A) (A) (A) (A) (A) (A) (A) (A)
                 (A) (A) (A) (A) (A) (A) (A) (A) (A) (A) (A) (A)
                 (A) (A) (A) (A) (A) (A) (A) (A) (A) (A) (A) (A)
                 (A) (A) (A) (A) (A) (A)
       Virtual   (A) (A) (A) (A) (A) (A) (A) (A) (A) (A) (A) (A)
                 (A) (A) (A) (A) (A) (A) (A) (A) (A) (A) (A) (A)
                 (A) (A) (A) (A) (A) (A) (A) (A) (A) (A) (A) (A)
                 (A) (A) (A) (A) (A) (A) (A) (A) (A) (A) (A) (A)
                 (A) (A) (A) (A) (A) (A) (A) (A) (A) (A) (A) (A)
                 (A) (A) (A) (A) (A) (A) (A) (A) (A) (A) (A) (A)
                 (A) (A) (A) (A) (A) (A) (A) (A) (A) (A) (A) (A)
                 (A) (A) (A) (A) (A) (A) (A) (A) (A) (A) (A) (A)
                 (A) (A) (A) (A) (A) (A) (A) (A) (A) (A) (A) (A)
                 (A) (A) (A) (A) (A) (A) (A) (A) (A) (A) (A) (A)
                 (A) (A) (A) (A) (A) (A) (A) (A) (A) (A) (A) (A)
                 (A) (A) (A) (A) (A) (A) (A) (A) (A) (A) (A) (A)
                 (A) (A) (A) (A) (A) (A) (A) (A) (A) (A) (A) (A)
                 (A) (A) (A) (A) (A) (A) (A) (A) (A) (A) (A) (A)
                 (A) (A) (A) (A) (A) (A) (A) (A) (A) (A) (A) (A)
                 (A) (A) (A) (A) (A) (A) (A) (A) (A) (A) (A) (A)
                 (A) (A) (A) (A) (A) (A) (A) (A) (A) (A) (A) (A)
                 (A) (A) (A) (A) (A) (A) (A) (A) (A) (A) (A) (A)
                 (A) (A) (A) (A) (A) (A) (A) (A) (A) (A) (A) (A)
                 (A) (A) (A) (A) (A) (A) (A) (A) (A) (A) (A) (A)
                 (A) (A) (A) (A) (A) (A) (A) (A) (A) (A) (A) (A)
                 (A) (A) (A) (A) (A) (A) (A) (A) (A) (A) (A) (A)
                 (A) (A) (A) (A) (A) (A) (A) (A) (A) (A) (A) (A)
                 (A) (A) (A) (A) (A) (A) (A) (A) (A) (A) (A) (A)
                 (A) (A) (A) (A) (A) (A) (A) (A) (A) (A) (A) (A)
                 (A) (A) (A) (A) (A) (A) (A) (A) (A) (A) (A) (A)
                 (A) (A) (A) (A) (A) (A) (A) (A) (A) (A) (A) (A)
                 (A) (A) (A) (A) (A) (A) (A) (A) (A) (A) (A) (A)
                 (A) (A) (A) (A) (A) (A) (A) (A) (A) (A) (A) (A)
                 (A) (A) (A) (A) (A) (A) (A) (A) (A) (A) (A) (A)
                 (A) (A) (A) (A) (A) (A) (A) (A) (A) (A) (A) (A)
                 (A) (A) (A) (A) (A) (A) (A) (A) (A) (A) (A) (A)
                 (A) (A) (A) (A) (A) (A) (A) (A) (A) (A) (A) (A)
                 (A) (A) (A) (A) (A) (A) (A) (A) (A) (A) (A) (A)
                 (A) (A) (A) (A) (A) (A) (A) (A) (A) (A) (A) (A)
                 (A) (A) (A) (A) (A) (A) (A) (A) (A) (A) (A) (A)
                 (A) (A) (A) (A) (A) (A) (A) (A) (A) (A) (A) (A)
                 (A) (A) (A) (A) (A) (A) (A) (A) (A) (A) (A) (A)
                 (A) (A) (A) (A) (A) (A) (A) (A) (A) (A) (A) (A)
                 (A) (A) (A) (A) (A) (A) (A) (A) (A) (A) (A) (A)
                 (A) (A) (A) (A) (A) (A) (A) (A) (A) (A) (A) (A)
                 (A) (A) (A) (A) (A) (A) (A) (A) (A) (A) (A) (A)
                 (A) (A) (A) (A) (A) (A) (A) (A) (A) (A) (A) (A)
                 (A) (A) (A) (A) (A) (A) (A) (A) (A) (A) (A) (A)
                 (A) (A) (A) (A) (A) (A) (A) (A) (A) (A) (A) (A)
                 (A) (A) (A) (A) (A) (A) (A) (A) (A) (A) (A) (A)
                 (A) (A) (A) (A) (A) (A) (A) (A) (A) (A) (A) (A)
                 (A) (A) (A) (A) (A) (A) (A) (A) (A) (A) (A) (A)
                 (A) (A) (A) (A) (A) (A) (A) (A) (A) (A) (A) (A)
                 (A) (A) (A) (A) (A) (A) (A) (A) (A) (A) (A) (A)
                 (A) (A) (A) (A) (A) (A) (A) (A) (A) (A) (A) (A)
                 (A) (A) (A) (A) (A) (A) (A) (A) (A) (A) (A) (A)
                 (A) (A) (A) (A) (A) (A) (A) (A) (A) (A) (A) (A)
                 (A) (A) (A) (A) (A) (A) (A) (A) (A) (A) (A) (A)
                 (A) (A) (A) (A) (A) (A) (A) (A) (A) (A) (A) (A)
                 (A) (A) (A) (A) (A) (A) (A) (A) (A) (A) (A) (A)
                 (A) (A) (A) (A) (A) (A) (A) (A) (A) (A) (A) (A)
                 (A) (A) (A) (A) (A) (A) (A) (A) (A) (A) (A) (A)
                 (A) (A) (A) (A) (A) (A) (A) (A) (A) (A) (A) (A)
                 (A) (A) (A) (A) (A) (A) (A) (A) (A) (A) (A) (A)
                 (A) (A) (A) (A) (A) (A) (A) (A) (A) (A) (A) (A)
                 (A) (A) (A) (A) (A) (A) (A) (A) (A) (A) (A) (A)
                 (A) (A) (A) (A) (A) (A) (A) (A) (A) (A) (A) (A)
                 (A) (A) (A) (A) (A) (A) (A) (A) (A) (A) (A) (A)
                 (A) (A) (A) (A) (A) (A) (A) (A) (A) (A) (A) (A)
                 (A) (A) (A) (A) (A) (A) (A) (A) (A) (A) (A) (A)
                 (A) (A) (A) (A) (A) (A) (A) (A) (A) (A) (A) (A)
                 (A) (A) (A) (A) (A) (A) (A) (A) (A) (A) (A) (A)
                 (A) (A) (A) (A) (A) (A) (A) (A) (A) (A) (A) (A)
                 (A) (A) (A) (A) (A) (A) (A) (A) (A) (A) (A) (A)
                 (A) (A) (A) (A) (A) (A) (A) (A) (A) (A) (A) (A)
                 (A) (A) (A) (A) (A) (A) (A) (A) (A) (A) (A) (A)
                 (A) (A) (A) (A) (A) (A) (A) (A) (A) (A) (A) (A)
                 (A) (A) (A) (A) (A) (A) (A) (A) (A) (A) (A) (A)
                 (A) (A) (A) (A) (A) (A) (A) (A) (A) (A) (A) (A)
                 (A) (A) (A) (A) (A) (A) (A) (A) (A) (A) (A) (A)
                 (A) (A) (A) (A) (A) (A) (A) (A) (A) (A) (A) (A)
                 (A) (A) (A) (A) (A) (A) (A) (A) (A) (A) (A) (A)
                 (A) (A) (A) (A) (A) (A) (A) (A) (A) (A) (A) (A)
                 (A) (A) (A) (A) (A) (A) (A) (A) (A) (A) (A) (A)
                 (A) (A) (A) (A) (A) (A) (A) (A) (A) (A) (A) (A)
                 (A) (A) (A) (A) (A) (A) (A) (A) (A) (A) (A) (A)
                 (A) (A) (A) (A) (A) (A) (A) (A) (A) (A) (A) (A)
                 (A) (A) (A) (A) (A) (A) (A) (A) (A) (A) (A) (A)
                 (A) (A) (A) (A) (A) (A) (A) (A) (A) (A) (A) (A)
                 (A) (A) (A) (A) (A) (A) (A) (A) (A) (A) (A) (A)
                 (A) (A) (A) (A) (A) (A) (A) (A) (A) (A) (A) (A)
                 (A) (A) (A) (A) (A) (A) (A) (A) (A) (A) (A) (A)
                 (A) (A) (A) (A) (A) (A) (A) (A) (A) (A) (A) (A)
                 (A) (A) (A) (A) (A) (A) (A) (A) (A) (A) (A) (A)
                 (A) (A) (A) (A) (A) (A) (A) (A) (A) (A) (A) (A)
                 (A) (A) (A) (A) (A) (A) (A) (A) (A) (A) (A) (A)
                 (A) (A) (A) (A) (A) (A) (A) (A) (A) (A) (A) (A)
                 (A) (A) (A) (A) (A) (A) (A) (A) (A) (A) (A) (A)
                 (A) (A) (A) (A) (A) (A) (A) (A) (A) (A) (A) (A)
                 (A) (A) (A) (A) (A) (A) (A) (A) (A) (A) (A) (A)
                 (A) (A) (A) (A) (A) (A) (A) (A) (A) (A) (A) (A)
                 (A) (A) (A) (A) (A) (A) (A) (A) (A) (A) (A) (A)
                 (A) (A) (A) (A) (A) (A) (A) (A) (A) (A) (A) (A)
                 (A) (A) (A) (A) (A) (A) (A) (A) (A) (A) (A) (A)
                 (A) (A) (A) (A) (A) (A) (A) (A) (A) (A) (A) (A)
                 (A) (A) (A) (A) (A) (A) (A) (A) (A) (A) (A) (A)
                 (A) (A) (A) (A) (A) (A) (A) (A) (A) (A) (A) (A)
                 (A) (A) (A) (A) (A) (A) (A) (A) (A) (A) (A) (A)
                 (A) (A) (A) (A) (A) (A) (A) (A) (A) (A) (A) (A)
                 (A) (A) (A) (A) (A) (A) (A) (A) (A) (A) (A) (A)
                 (A) (A) (A) (A) (A) (A) (A) (A) (A) (A) (A) (A)
                 (A) (A) (A) (A) (A) (A) (A) (A) (A) (A) (A) (A)
                 (A) (A) (A) (A) (A) (A) (A) (A) (A) (A) (A) (A)
                 (A) (A) (A) (A) (A) (A) (A) (A) (A) (A) (A) (A)
                 (A) (A) (A) (A) (A) (A) (A) (A) (A) (A) (A) (A)
                 (A) (A) (A) (A) (A) (A) (A) (A) (A) (A) (A) (A)
                 (A) (A) (A) (A) (A) (A) (A) (A) (A) (A) (A) (A)
                 (A) (A) (A) (A) (A) (A) (A) (A) (A) (A) (A) (A)
                 (A) (A) (A) (A) (A) (A) (A) (A) (A) (A) (A) (A)
                 (A) (A) (A) (A) (A) (A) (A) (A) (A) (A) (A) (A)
                 (A) (A) (A) (A) (A) (A) (A) (A) (A)
 Beta  Orbitals:
       Occupied  (A) (A) (A) (A) (A) (A) (A) (A) (A) (A) (A) (A)
                 (A) (A) (A) (A) (A) (A) (A) (A) (A) (A) (A) (A)
                 (A) (A) (A) (A) (A) (A) (A) (A) (A) (A) (A) (A)
                 (A) (A) (A) (A) (A) (A) (A) (A) (A) (A) (A) (A)
                 (A) (A) (A) (A) (A) (A) (A) (A) (A) (A) (A) (A)
                 (A) (A) (A) (A) (A) (A) (A) (A) (A) (A) (A) (A)
                 (A) (A) (A) (A) (A) (A) (A) (A) (A) (A) (A) (A)
                 (A) (A) (A) (A) (A) (A) (A) (A) (A) (A) (A) (A)
                 (A) (A) (A) (A) (A) (A) (A) (A) (A) (A) (A) (A)
                 (A) (A) (A) (A) (A) (A) (A) (A) (A) (A) (A) (A)
                 (A) (A) (A) (A) (A) (A) (A) (A) (A) (A) (A) (A)
                 (A) (A) (A) (A) (A) (A) (A) (A) (A) (A) (A) (A)
                 (A) (A) (A) (A) (A) (A) (A) (A) (A) (A) (A) (A)
                 (A) (A)
       Virtual   (A) (A) (A) (A) (A) (A) (A) (A) (A) (A) (A) (A)
                 (A) (A) (A) (A) (A) (A) (A) (A) (A) (A) (A) (A)
                 (A) (A) (A) (A) (A) (A) (A) (A) (A) (A) (A) (A)
                 (A) (A) (A) (A) (A) (A) (A) (A) (A) (A) (A) (A)
                 (A) (A) (A) (A) (A) (A) (A) (A) (A) (A) (A) (A)
                 (A) (A) (A) (A) (A) (A) (A) (A) (A) (A) (A) (A)
                 (A) (A) (A) (A) (A) (A) (A) (A) (A) (A) (A) (A)
                 (A) (A) (A) (A) (A) (A) (A) (A) (A) (A) (A) (A)
                 (A) (A) (A) (A) (A) (A) (A) (A) (A) (A) (A) (A)
                 (A) (A) (A) (A) (A) (A) (A) (A) (A) (A) (A) (A)
                 (A) (A) (A) (A) (A) (A) (A) (A) (A) (A) (A) (A)
                 (A) (A) (A) (A) (A) (A) (A) (A) (A) (A) (A) (A)
                 (A) (A) (A) (A) (A) (A) (A) (A) (A) (A) (A) (A)
                 (A) (A) (A) (A) (A) (A) (A) (A) (A) (A) (A) (A)
                 (A) (A) (A) (A) (A) (A) (A) (A) (A) (A) (A) (A)
                 (A) (A) (A) (A) (A) (A) (A) (A) (A) (A) (A) (A)
                 (A) (A) (A) (A) (A) (A) (A) (A) (A) (A) (A) (A)
                 (A) (A) (A) (A) (A) (A) (A) (A) (A) (A) (A) (A)
                 (A) (A) (A) (A) (A) (A) (A) (A) (A) (A) (A) (A)
                 (A) (A) (A) (A) (A) (A) (A) (A) (A) (A) (A) (A)
                 (A) (A) (A) (A) (A) (A) (A) (A) (A) (A) (A) (A)
                 (A) (A) (A) (A) (A) (A) (A) (A) (A) (A) (A) (A)
                 (A) (A) (A) (A) (A) (A) (A) (A) (A) (A) (A) (A)
                 (A) (A) (A) (A) (A) (A) (A) (A) (A) (A) (A) (A)
                 (A) (A) (A) (A) (A) (A) (A) (A) (A) (A) (A) (A)
                 (A) (A) (A) (A) (A) (A) (A) (A) (A) (A) (A) (A)
                 (A) (A) (A) (A) (A) (A) (A) (A) (A) (A) (A) (A)
                 (A) (A) (A) (A) (A) (A) (A) (A) (A) (A) (A) (A)
                 (A) (A) (A) (A) (A) (A) (A) (A) (A) (A) (A) (A)
                 (A) (A) (A) (A) (A) (A) (A) (A) (A) (A) (A) (A)
                 (A) (A) (A) (A) (A) (A) (A) (A) (A) (A) (A) (A)
                 (A) (A) (A) (A) (A) (A) (A) (A) (A) (A) (A) (A)
                 (A) (A) (A) (A) (A) (A) (A) (A) (A) (A) (A) (A)
                 (A) (A) (A) (A) (A) (A) (A) (A) (A) (A) (A) (A)
                 (A) (A) (A) (A) (A) (A) (A) (A) (A) (A) (A) (A)
                 (A) (A) (A) (A) (A) (A) (A) (A) (A) (A) (A) (A)
                 (A) (A) (A) (A) (A) (A) (A) (A) (A) (A) (A) (A)
                 (A) (A) (A) (A) (A) (A) (A) (A) (A) (A) (A) (A)
                 (A) (A) (A) (A) (A) (A) (A) (A) (A) (A) (A) (A)
                 (A) (A) (A) (A) (A) (A) (A) (A) (A) (A) (A) (A)
                 (A) (A) (A) (A) (A) (A) (A) (A) (A) (A) (A) (A)
                 (A) (A) (A) (A) (A) (A) (A) (A) (A) (A) (A) (A)
                 (A) (A) (A) (A) (A) (A) (A) (A) (A) (A) (A) (A)
                 (A) (A) (A) (A) (A) (A) (A) (A) (A) (A) (A) (A)
                 (A) (A) (A) (A) (A) (A) (A) (A) (A) (A) (A) (A)
                 (A) (A) (A) (A) (A) (A) (A) (A) (A) (A) (A) (A)
                 (A) (A) (A) (A) (A) (A) (A) (A) (A) (A) (A) (A)
                 (A) (A) (A) (A) (A) (A) (A) (A) (A) (A) (A) (A)
                 (A) (A) (A) (A) (A) (A) (A) (A) (A) (A) (A) (A)
                 (A) (A) (A) (A) (A) (A) (A) (A) (A) (A) (A) (A)
                 (A) (A) (A) (A) (A) (A) (A) (A) (A) (A) (A) (A)
                 (A) (A) (A) (A) (A) (A) (A) (A) (A) (A) (A) (A)
                 (A) (A) (A) (A) (A) (A) (A) (A) (A) (A) (A) (A)
                 (A) (A) (A) (A) (A) (A) (A) (A) (A) (A) (A) (A)
                 (A) (A) (A) (A) (A) (A) (A) (A) (A) (A) (A) (A)
                 (A) (A) (A) (A) (A) (A) (A) (A) (A) (A) (A) (A)
                 (A) (A) (A) (A) (A) (A) (A) (A) (A) (A) (A) (A)
                 (A) (A) (A) (A) (A) (A) (A) (A) (A) (A) (A) (A)
                 (A) (A) (A) (A) (A) (A) (A) (A) (A) (A) (A) (A)
                 (A) (A) (A) (A) (A) (A) (A) (A) (A) (A) (A) (A)
                 (A) (A) (A) (A) (A) (A) (A) (A) (A) (A) (A) (A)
                 (A) (A) (A) (A) (A) (A) (A) (A) (A) (A) (A) (A)
                 (A) (A) (A) (A) (A) (A) (A) (A) (A) (A) (A) (A)
                 (A) (A) (A) (A) (A) (A) (A) (A) (A) (A) (A) (A)
                 (A) (A) (A) (A) (A) (A) (A) (A) (A) (A) (A) (A)
                 (A) (A) (A) (A) (A) (A) (A) (A) (A) (A) (A) (A)
                 (A) (A) (A) (A) (A) (A) (A) (A) (A) (A) (A) (A)
                 (A) (A) (A) (A) (A) (A) (A) (A) (A) (A) (A) (A)
                 (A) (A) (A) (A) (A) (A) (A) (A) (A) (A) (A) (A)
                 (A) (A) (A) (A) (A) (A) (A) (A) (A) (A) (A) (A)
                 (A) (A) (A) (A) (A) (A) (A) (A) (A) (A) (A) (A)
                 (A) (A) (A) (A) (A) (A) (A) (A) (A) (A) (A) (A)
                 (A) (A) (A) (A) (A) (A) (A) (A) (A) (A) (A) (A)
                 (A) (A) (A) (A) (A) (A) (A) (A) (A) (A) (A) (A)
                 (A) (A) (A) (A) (A) (A) (A) (A) (A) (A) (A) (A)
                 (A) (A) (A) (A) (A) (A) (A) (A) (A) (A) (A) (A)
                 (A) (A) (A) (A) (A) (A) (A) (A) (A) (A) (A) (A)
                 (A) (A) (A) (A) (A) (A) (A) (A) (A) (A) (A) (A)
                 (A) (A) (A) (A) (A) (A) (A) (A) (A) (A) (A) (A)
                 (A) (A) (A) (A) (A) (A) (A) (A) (A) (A) (A) (A)
                 (A) (A) (A) (A) (A) (A) (A) (A) (A) (A) (A) (A)
                 (A) (A) (A) (A) (A) (A) (A) (A) (A) (A) (A) (A)
                 (A) (A) (A) (A) (A) (A) (A) (A) (A) (A) (A) (A)
                 (A) (A) (A) (A) (A) (A) (A) (A) (A) (A) (A) (A)
                 (A) (A) (A) (A) (A) (A) (A) (A) (A) (A) (A) (A)
                 (A) (A) (A) (A) (A) (A) (A) (A) (A) (A) (A) (A)
                 (A) (A) (A) (A) (A) (A) (A) (A) (A) (A) (A) (A)
                 (A) (A) (A) (A) (A) (A) (A) (A) (A) (A) (A) (A)
                 (A) (A) (A) (A) (A) (A) (A) (A) (A) (A) (A) (A)
                 (A) (A) (A) (A) (A) (A) (A) (A) (A) (A) (A) (A)
                 (A) (A) (A) (A) (A) (A) (A) (A) (A) (A) (A) (A)
                 (A) (A) (A) (A) (A) (A) (A) (A) (A) (A) (A) (A)
                 (A) (A) (A) (A) (A) (A) (A) (A) (A) (A) (A) (A)
                 (A) (A) (A) (A) (A) (A) (A) (A) (A) (A) (A) (A)
                 (A) (A) (A) (A) (A) (A) (A) (A) (A) (A) (A) (A)
                 (A) (A) (A) (A) (A) (A) (A) (A) (A) (A) (A) (A)
                 (A) (A) (A) (A) (A) (A) (A) (A) (A) (A) (A) (A)
                 (A) (A) (A) (A) (A) (A) (A) (A) (A) (A) (A) (A)
                 (A) (A) (A) (A) (A) (A) (A) (A) (A) (A) (A) (A)
                 (A) (A) (A) (A) (A) (A) (A) (A) (A) (A) (A) (A)
                 (A) (A) (A) (A) (A) (A) (A) (A) (A) (A) (A) (A)
                 (A) (A) (A) (A) (A) (A) (A) (A) (A) (A) (A) (A)
                 (A) (A) (A) (A) (A) (A) (A) (A) (A) (A) (A) (A)
                 (A) (A) (A) (A) (A) (A) (A) (A) (A) (A) (A) (A)
                 (A) (A) (A) (A) (A) (A) (A) (A) (A) (A) (A) (A)
                 (A) (A) (A) (A) (A) (A) (A) (A) (A) (A) (A) (A)
                 (A) (A) (A) (A) (A) (A) (A) (A) (A) (A) (A) (A)
                 (A) (A) (A) (A) (A) (A) (A) (A) (A) (A) (A) (A)
                 (A) (A) (A) (A) (A) (A) (A) (A) (A) (A) (A) (A)
                 (A) (A) (A) (A) (A) (A) (A) (A) (A) (A) (A) (A)
                 (A) (A) (A) (A) (A) (A) (A) (A) (A) (A) (A) (A)
                 (A) (A) (A) (A) (A) (A) (A) (A) (A) (A) (A) (A)
                 (A) (A) (A) (A) (A) (A) (A) (A) (A) (A) (A) (A)
                 (A) (A) (A) (A) (A) (A) (A) (A) (A) (A) (A) (A)
                 (A) (A) (A) (A) (A) (A) (A) (A) (A) (A) (A) (A)
                 (A) (A) (A) (A) (A) (A) (A) (A) (A) (A) (A) (A)
                 (A) (A) (A) (A) (A) (A) (A) (A) (A) (A) (A) (A)
                 (A)
 The electronic state is 5-A.
 Alpha  occ. eigenvalues -- -256.31303 -30.20046 -26.05126 -26.02511 -26.02350
 Alpha  occ. eigenvalues --  -19.23790 -14.36317 -14.36181 -14.36152 -14.36099
 Alpha  occ. eigenvalues --  -10.26498 -10.22582 -10.22518 -10.22465 -10.22344
 Alpha  occ. eigenvalues --  -10.21934 -10.21740 -10.21728 -10.21725 -10.20736
 Alpha  occ. eigenvalues --  -10.20413 -10.20185 -10.20125 -10.20049 -10.20032
 Alpha  occ. eigenvalues --  -10.19985 -10.19981 -10.19934 -10.19887 -10.19619
 Alpha  occ. eigenvalues --  -10.19572 -10.19546 -10.19520 -10.19486 -10.19377
 Alpha  occ. eigenvalues --  -10.19360 -10.19359 -10.19350 -10.19342 -10.19270
 Alpha  occ. eigenvalues --  -10.19230 -10.19123 -10.18773 -10.18684 -10.18510
 Alpha  occ. eigenvalues --  -10.17898 -10.17720  -3.62242  -2.43047  -2.36526
 Alpha  occ. eigenvalues --   -2.36194  -1.11065  -0.98894  -0.97891  -0.97841
 Alpha  occ. eigenvalues --   -0.96893  -0.88227  -0.83336  -0.82876  -0.82563
 Alpha  occ. eigenvalues --   -0.82078  -0.81723  -0.80699  -0.80550  -0.79230
 Alpha  occ. eigenvalues --   -0.77553  -0.77129  -0.76463  -0.75220  -0.74846
 Alpha  occ. eigenvalues --   -0.74023  -0.71939  -0.71034  -0.70545  -0.69500
 Alpha  occ. eigenvalues --   -0.69123  -0.68881  -0.65232  -0.65010  -0.64508
 Alpha  occ. eigenvalues --   -0.61526  -0.61270  -0.60942  -0.58784  -0.58079
 Alpha  occ. eigenvalues --   -0.56971  -0.55556  -0.54873  -0.54340  -0.54202
 Alpha  occ. eigenvalues --   -0.52364  -0.52214  -0.51845  -0.51612  -0.50195
 Alpha  occ. eigenvalues --   -0.48843  -0.48581  -0.48450  -0.47985  -0.47067
 Alpha  occ. eigenvalues --   -0.46030  -0.45889  -0.45805  -0.45472  -0.45078
 Alpha  occ. eigenvalues --   -0.44693  -0.44499  -0.44261  -0.44063  -0.43750
 Alpha  occ. eigenvalues --   -0.43623  -0.43592  -0.43303  -0.43080  -0.42673
 Alpha  occ. eigenvalues --   -0.42593  -0.42209  -0.42155  -0.42040  -0.41772
 Alpha  occ. eigenvalues --   -0.41642  -0.41097  -0.41059  -0.40343  -0.40138
 Alpha  occ. eigenvalues --   -0.39780  -0.39592  -0.39334  -0.39322  -0.39170
 Alpha  occ. eigenvalues --   -0.38966  -0.38762  -0.38603  -0.38389  -0.38107
 Alpha  occ. eigenvalues --   -0.37362  -0.36974  -0.36875  -0.35939  -0.35542
 Alpha  occ. eigenvalues --   -0.35399  -0.34986  -0.34534  -0.34130  -0.33829
 Alpha  occ. eigenvalues --   -0.33399  -0.33123  -0.32270  -0.32081  -0.30797
 Alpha  occ. eigenvalues --   -0.30288  -0.28184  -0.28059  -0.26385  -0.25332
 Alpha  occ. eigenvalues --   -0.24775  -0.23852  -0.23365  -0.23199  -0.20705
 Alpha  occ. eigenvalues --   -0.19605  -0.11807
 Alpha virt. eigenvalues --   -0.10075  -0.07788  -0.03413  -0.01474  -0.00290
 Alpha virt. eigenvalues --   -0.00035   0.01052   0.02425   0.02985   0.03320
 Alpha virt. eigenvalues --    0.03923   0.04595   0.05190   0.05580   0.05901
 Alpha virt. eigenvalues --    0.06248   0.06432   0.06630   0.07514   0.07792
 Alpha virt. eigenvalues --    0.08031   0.08544   0.09110   0.09260   0.09794
 Alpha virt. eigenvalues --    0.09864   0.10156   0.10441   0.10890   0.11129
 Alpha virt. eigenvalues --    0.11351   0.11606   0.11848   0.12012   0.12137
 Alpha virt. eigenvalues --    0.12329   0.12453   0.12712   0.13023   0.13110
 Alpha virt. eigenvalues --    0.13381   0.13558   0.13993   0.14059   0.14475
 Alpha virt. eigenvalues --    0.14569   0.14677   0.15101   0.15191   0.15332
 Alpha virt. eigenvalues --    0.15595   0.15663   0.15876   0.16180   0.16375
 Alpha virt. eigenvalues --    0.16491   0.16835   0.17126   0.17274   0.17563
 Alpha virt. eigenvalues --    0.17593   0.18108   0.18642   0.19082   0.19253
 Alpha virt. eigenvalues --    0.19443   0.19689   0.19955   0.20272   0.20447
 Alpha virt. eigenvalues --    0.20846   0.20919   0.21097   0.21480   0.21811
 Alpha virt. eigenvalues --    0.22232   0.22252   0.22374   0.22661   0.23143
 Alpha virt. eigenvalues --    0.23523   0.23823   0.24072   0.24231   0.24464
 Alpha virt. eigenvalues --    0.24953   0.25177   0.25515   0.25630   0.25890
 Alpha virt. eigenvalues --    0.26178   0.26604   0.26741   0.26864   0.27184
 Alpha virt. eigenvalues --    0.27318   0.27452   0.27846   0.28056   0.28485
 Alpha virt. eigenvalues --    0.28764   0.28979   0.29087   0.29242   0.29434
 Alpha virt. eigenvalues --    0.29628   0.29971   0.30475   0.30579   0.30753
 Alpha virt. eigenvalues --    0.30988   0.31114   0.31576   0.31752   0.31969
 Alpha virt. eigenvalues --    0.32515   0.32622   0.32935   0.33052   0.33130
 Alpha virt. eigenvalues --    0.33480   0.33903   0.34153   0.34336   0.34587
 Alpha virt. eigenvalues --    0.34825   0.35035   0.35429   0.35894   0.36014
 Alpha virt. eigenvalues --    0.36303   0.36516   0.36719   0.36849   0.37141
 Alpha virt. eigenvalues --    0.37306   0.37693   0.37886   0.38118   0.38255
 Alpha virt. eigenvalues --    0.38283   0.38699   0.39100   0.39181   0.39480
 Alpha virt. eigenvalues --    0.39849   0.39980   0.40238   0.40601   0.40933
 Alpha virt. eigenvalues --    0.40961   0.41069   0.41293   0.41446   0.41811
 Alpha virt. eigenvalues --    0.42082   0.42255   0.42398   0.42574   0.42922
 Alpha virt. eigenvalues --    0.43152   0.43369   0.43733   0.43926   0.44115
 Alpha virt. eigenvalues --    0.44193   0.44355   0.45001   0.45105   0.45295
 Alpha virt. eigenvalues --    0.45536   0.45766   0.45936   0.46041   0.46263
 Alpha virt. eigenvalues --    0.46501   0.46835   0.46859   0.47170   0.47313
 Alpha virt. eigenvalues --    0.47503   0.47763   0.48033   0.48141   0.48189
 Alpha virt. eigenvalues --    0.48479   0.48804   0.48954   0.49281   0.49404
 Alpha virt. eigenvalues --    0.49592   0.49808   0.49813   0.50190   0.50434
 Alpha virt. eigenvalues --    0.50449   0.50611   0.50809   0.51282   0.51532
 Alpha virt. eigenvalues --    0.51809   0.51916   0.52194   0.52429   0.52666
 Alpha virt. eigenvalues --    0.52678   0.52955   0.53311   0.53534   0.54165
 Alpha virt. eigenvalues --    0.54328   0.54416   0.54701   0.54978   0.55286
 Alpha virt. eigenvalues --    0.55577   0.55704   0.55947   0.56204   0.56390
 Alpha virt. eigenvalues --    0.56627   0.57220   0.57329   0.57640   0.58118
 Alpha virt. eigenvalues --    0.58580   0.58867   0.59147   0.59214   0.59694
 Alpha virt. eigenvalues --    0.59770   0.60024   0.60299   0.60753   0.61175
 Alpha virt. eigenvalues --    0.61408   0.61757   0.62355   0.62636   0.62779
 Alpha virt. eigenvalues --    0.62849   0.63083   0.63340   0.63666   0.63962
 Alpha virt. eigenvalues --    0.64186   0.64497   0.64902   0.65143   0.65578
 Alpha virt. eigenvalues --    0.65688   0.66227   0.66494   0.66640   0.66753
 Alpha virt. eigenvalues --    0.66967   0.67159   0.67672   0.67796   0.68192
 Alpha virt. eigenvalues --    0.68403   0.68796   0.69082   0.69684   0.69954
 Alpha virt. eigenvalues --    0.70306   0.70577   0.70827   0.71167   0.71360
 Alpha virt. eigenvalues --    0.71819   0.72160   0.72480   0.72719   0.73191
 Alpha virt. eigenvalues --    0.73344   0.73449   0.73749   0.73954   0.74524
 Alpha virt. eigenvalues --    0.74721   0.74999   0.75155   0.75593   0.76146
 Alpha virt. eigenvalues --    0.76584   0.76777   0.76969   0.77570   0.77624
 Alpha virt. eigenvalues --    0.78210   0.78468   0.78841   0.79004   0.79077
 Alpha virt. eigenvalues --    0.79455   0.79973   0.80602   0.80695   0.80808
 Alpha virt. eigenvalues --    0.81974   0.82074   0.82278   0.82568   0.83345
 Alpha virt. eigenvalues --    0.83475   0.83905   0.84112   0.84703   0.84946
 Alpha virt. eigenvalues --    0.85138   0.85800   0.85966   0.86056   0.86265
 Alpha virt. eigenvalues --    0.87081   0.87135   0.87613   0.88009   0.88412
 Alpha virt. eigenvalues --    0.88672   0.88730   0.89189   0.89437   0.89948
 Alpha virt. eigenvalues --    0.90200   0.91115   0.91187   0.91424   0.91678
 Alpha virt. eigenvalues --    0.92065   0.92249   0.92480   0.93072   0.93263
 Alpha virt. eigenvalues --    0.93672   0.94102   0.94701   0.94813   0.95153
 Alpha virt. eigenvalues --    0.95458   0.96120   0.96397   0.96598   0.96977
 Alpha virt. eigenvalues --    0.97222   0.97528   0.97972   0.98280   0.98745
 Alpha virt. eigenvalues --    0.98977   0.99216   0.99501   1.00113   1.00329
 Alpha virt. eigenvalues --    1.00704   1.01133   1.01308   1.01348   1.01702
 Alpha virt. eigenvalues --    1.02016   1.02187   1.02866   1.02924   1.03093
 Alpha virt. eigenvalues --    1.03571   1.03956   1.04086   1.04617   1.05077
 Alpha virt. eigenvalues --    1.05545   1.05948   1.06515   1.06654   1.07150
 Alpha virt. eigenvalues --    1.07736   1.08281   1.08407   1.08637   1.09173
 Alpha virt. eigenvalues --    1.09358   1.09607   1.10072   1.10411   1.10924
 Alpha virt. eigenvalues --    1.11162   1.11902   1.12034   1.12700   1.12985
 Alpha virt. eigenvalues --    1.13305   1.13592   1.13962   1.14631   1.14848
 Alpha virt. eigenvalues --    1.15670   1.15991   1.16274   1.16847   1.17421
 Alpha virt. eigenvalues --    1.17604   1.17678   1.18278   1.18839   1.18953
 Alpha virt. eigenvalues --    1.19487   1.19834   1.20281   1.20713   1.21126
 Alpha virt. eigenvalues --    1.21391   1.21614   1.22185   1.22470   1.22756
 Alpha virt. eigenvalues --    1.23073   1.23251   1.23702   1.23972   1.24558
 Alpha virt. eigenvalues --    1.25218   1.25727   1.26411   1.26477   1.26635
 Alpha virt. eigenvalues --    1.26927   1.27359   1.27958   1.28288   1.28573
 Alpha virt. eigenvalues --    1.28683   1.29122   1.29463   1.29524   1.29723
 Alpha virt. eigenvalues --    1.30376   1.30866   1.31424   1.31851   1.31978
 Alpha virt. eigenvalues --    1.33187   1.33395   1.33874   1.34917   1.35096
 Alpha virt. eigenvalues --    1.35520   1.36041   1.36285   1.37146   1.37338
 Alpha virt. eigenvalues --    1.37559   1.38156   1.38352   1.39325   1.40009
 Alpha virt. eigenvalues --    1.40240   1.40769   1.41088   1.41313   1.41667
 Alpha virt. eigenvalues --    1.42594   1.43387   1.43509   1.44234   1.44750
 Alpha virt. eigenvalues --    1.45106   1.45493   1.45975   1.46617   1.46818
 Alpha virt. eigenvalues --    1.47180   1.47492   1.48094   1.48471   1.48582
 Alpha virt. eigenvalues --    1.49033   1.49287   1.49456   1.49938   1.50259
 Alpha virt. eigenvalues --    1.50369   1.50746   1.51287   1.51510   1.51993
 Alpha virt. eigenvalues --    1.52324   1.52435   1.52974   1.53101   1.53245
 Alpha virt. eigenvalues --    1.53643   1.53958   1.54227   1.54297   1.54646
 Alpha virt. eigenvalues --    1.54971   1.55266   1.55529   1.55660   1.55862
 Alpha virt. eigenvalues --    1.56174   1.56245   1.56697   1.56935   1.57390
 Alpha virt. eigenvalues --    1.57540   1.57675   1.57994   1.58355   1.59033
 Alpha virt. eigenvalues --    1.59186   1.59583   1.60022   1.60488   1.60649
 Alpha virt. eigenvalues --    1.61123   1.61405   1.61789   1.62018   1.62148
 Alpha virt. eigenvalues --    1.62530   1.62689   1.63240   1.63314   1.63902
 Alpha virt. eigenvalues --    1.63969   1.64107   1.64456   1.64706   1.64959
 Alpha virt. eigenvalues --    1.65432   1.65570   1.65786   1.66412   1.66561
 Alpha virt. eigenvalues --    1.66828   1.67253   1.67536   1.67788   1.68095
 Alpha virt. eigenvalues --    1.68506   1.69124   1.69415   1.69679   1.70076
 Alpha virt. eigenvalues --    1.70441   1.70695   1.71071   1.71464   1.71681
 Alpha virt. eigenvalues --    1.71911   1.72292   1.72908   1.73120   1.73787
 Alpha virt. eigenvalues --    1.73850   1.74371   1.75001   1.75629   1.75867
 Alpha virt. eigenvalues --    1.76784   1.77045   1.78187   1.78966   1.79428
 Alpha virt. eigenvalues --    1.79792   1.79879   1.80161   1.80439   1.80938
 Alpha virt. eigenvalues --    1.81328   1.81884   1.82191   1.82910   1.83137
 Alpha virt. eigenvalues --    1.83919   1.84457   1.84731   1.85653   1.85801
 Alpha virt. eigenvalues --    1.86048   1.86400   1.87017   1.87282   1.87766
 Alpha virt. eigenvalues --    1.88051   1.88262   1.88500   1.88661   1.90217
 Alpha virt. eigenvalues --    1.90548   1.90759   1.91038   1.91807   1.91815
 Alpha virt. eigenvalues --    1.92188   1.92563   1.93717   1.94115   1.94764
 Alpha virt. eigenvalues --    1.95164   1.95722   1.96291   1.96909   1.97524
 Alpha virt. eigenvalues --    1.97596   1.98152   1.98296   1.98911   1.99242
 Alpha virt. eigenvalues --    2.00006   2.00235   2.00458   2.01175   2.01336
 Alpha virt. eigenvalues --    2.01933   2.02129   2.03027   2.03341   2.03827
 Alpha virt. eigenvalues --    2.04357   2.04786   2.05188   2.05651   2.05842
 Alpha virt. eigenvalues --    2.06002   2.06681   2.07065   2.07762   2.08137
 Alpha virt. eigenvalues --    2.08862   2.09061   2.09163   2.09603   2.10065
 Alpha virt. eigenvalues --    2.10367   2.11035   2.11256   2.12047   2.12307
 Alpha virt. eigenvalues --    2.12728   2.13235   2.13722   2.14038   2.14342
 Alpha virt. eigenvalues --    2.14797   2.15576   2.15908   2.16406   2.16911
 Alpha virt. eigenvalues --    2.17547   2.18078   2.18429   2.18846   2.19068
 Alpha virt. eigenvalues --    2.19514   2.19844   2.20567   2.20858   2.21489
 Alpha virt. eigenvalues --    2.21834   2.22189   2.22655   2.22764   2.23282
 Alpha virt. eigenvalues --    2.23718   2.24175   2.25067   2.25108   2.25719
 Alpha virt. eigenvalues --    2.26189   2.26633   2.27155   2.27556   2.27699
 Alpha virt. eigenvalues --    2.28156   2.28570   2.28608   2.29458   2.29861
 Alpha virt. eigenvalues --    2.30122   2.30380   2.31126   2.31285   2.31767
 Alpha virt. eigenvalues --    2.32219   2.33047   2.33223   2.34040   2.34610
 Alpha virt. eigenvalues --    2.34729   2.34986   2.35788   2.35977   2.36676
 Alpha virt. eigenvalues --    2.36987   2.37229   2.37526   2.38031   2.38503
 Alpha virt. eigenvalues --    2.38763   2.39410   2.39990   2.40105   2.40581
 Alpha virt. eigenvalues --    2.40987   2.41251   2.41969   2.42627   2.42968
 Alpha virt. eigenvalues --    2.43133   2.43844   2.43873   2.44161   2.44424
 Alpha virt. eigenvalues --    2.44466   2.44774   2.45466   2.45726   2.46559
 Alpha virt. eigenvalues --    2.46790   2.46985   2.47566   2.48208   2.49359
 Alpha virt. eigenvalues --    2.49629   2.49974   2.50650   2.50746   2.51931
 Alpha virt. eigenvalues --    2.52457   2.52617   2.53033   2.53324   2.53483
 Alpha virt. eigenvalues --    2.53668   2.54239   2.55009   2.55213   2.55486
 Alpha virt. eigenvalues --    2.55888   2.56083   2.56677   2.56957   2.57276
 Alpha virt. eigenvalues --    2.57532   2.57813   2.58001   2.58245   2.58790
 Alpha virt. eigenvalues --    2.58923   2.59276   2.59613   2.60264   2.60468
 Alpha virt. eigenvalues --    2.60872   2.61349   2.61605   2.62251   2.62623
 Alpha virt. eigenvalues --    2.62999   2.63444   2.64059   2.64717   2.65000
 Alpha virt. eigenvalues --    2.65514   2.65898   2.66029   2.66697   2.66905
 Alpha virt. eigenvalues --    2.67125   2.67638   2.67825   2.68511   2.68556
 Alpha virt. eigenvalues --    2.68984   2.69189   2.70060   2.70423   2.70569
 Alpha virt. eigenvalues --    2.70955   2.71196   2.71645   2.72080   2.72513
 Alpha virt. eigenvalues --    2.72877   2.73215   2.74093   2.74343   2.74660
 Alpha virt. eigenvalues --    2.74932   2.75689   2.75963   2.76660   2.76803
 Alpha virt. eigenvalues --    2.77199   2.77857   2.78401   2.78605   2.78909
 Alpha virt. eigenvalues --    2.79361   2.79698   2.80246   2.80707   2.81084
 Alpha virt. eigenvalues --    2.81504   2.81707   2.82038   2.82378   2.82715
 Alpha virt. eigenvalues --    2.83008   2.83374   2.83843   2.84126   2.84620
 Alpha virt. eigenvalues --    2.85392   2.85543   2.85678   2.85926   2.86518
 Alpha virt. eigenvalues --    2.86717   2.87200   2.87751   2.87986   2.88048
 Alpha virt. eigenvalues --    2.88362   2.88619   2.89541   2.89836   2.89944
 Alpha virt. eigenvalues --    2.90467   2.90987   2.91317   2.91486   2.91942
 Alpha virt. eigenvalues --    2.92470   2.92718   2.93327   2.93841   2.94048
 Alpha virt. eigenvalues --    2.94255   2.94336   2.94856   2.95201   2.95529
 Alpha virt. eigenvalues --    2.95761   2.96275   2.96737   2.97394   2.97665
 Alpha virt. eigenvalues --    2.98250   2.98976   2.99094   2.99438   3.00239
 Alpha virt. eigenvalues --    3.00536   3.00673   3.01284   3.01534   3.01722
 Alpha virt. eigenvalues --    3.02699   3.02881   3.03498   3.03735   3.04159
 Alpha virt. eigenvalues --    3.04668   3.04920   3.05427   3.05989   3.06306
 Alpha virt. eigenvalues --    3.06469   3.06787   3.07306   3.07962   3.08013
 Alpha virt. eigenvalues --    3.08232   3.08498   3.09012   3.09271   3.09503
 Alpha virt. eigenvalues --    3.09634   3.09834   3.10449   3.10546   3.11044
 Alpha virt. eigenvalues --    3.11206   3.11405   3.11661   3.12319   3.12510
 Alpha virt. eigenvalues --    3.12872   3.13336   3.13511   3.14198   3.14369
 Alpha virt. eigenvalues --    3.14747   3.14991   3.15362   3.15550   3.15871
 Alpha virt. eigenvalues --    3.15998   3.16245   3.16650   3.17076   3.17523
 Alpha virt. eigenvalues --    3.17596   3.18068   3.18155   3.18476   3.18847
 Alpha virt. eigenvalues --    3.19234   3.19591   3.19960   3.20048   3.20408
 Alpha virt. eigenvalues --    3.20741   3.21023   3.21260   3.21479   3.21699
 Alpha virt. eigenvalues --    3.21835   3.22419   3.22785   3.23233   3.23269
 Alpha virt. eigenvalues --    3.23814   3.24195   3.24302   3.24546   3.24934
 Alpha virt. eigenvalues --    3.25314   3.25540   3.26018   3.26279   3.26769
 Alpha virt. eigenvalues --    3.27118   3.27370   3.27645   3.27841   3.28131
 Alpha virt. eigenvalues --    3.28187   3.28538   3.28690   3.29160   3.29468
 Alpha virt. eigenvalues --    3.29638   3.29935   3.30198   3.30273   3.30480
 Alpha virt. eigenvalues --    3.30843   3.31207   3.31299   3.31521   3.31883
 Alpha virt. eigenvalues --    3.32041   3.32354   3.32640   3.32850   3.33313
 Alpha virt. eigenvalues --    3.33338   3.33446   3.33842   3.33987   3.34245
 Alpha virt. eigenvalues --    3.34423   3.34975   3.35242   3.35447   3.35879
 Alpha virt. eigenvalues --    3.35947   3.36158   3.36652   3.36674   3.37133
 Alpha virt. eigenvalues --    3.37320   3.37473   3.37947   3.38443   3.38584
 Alpha virt. eigenvalues --    3.38975   3.39364   3.39731   3.39775   3.40260
 Alpha virt. eigenvalues --    3.40497   3.40560   3.40816   3.41297   3.41431
 Alpha virt. eigenvalues --    3.41954   3.42421   3.42886   3.43054   3.43468
 Alpha virt. eigenvalues --    3.43708   3.43981   3.44437   3.44546   3.44769
 Alpha virt. eigenvalues --    3.45023   3.45637   3.46174   3.46558   3.47066
 Alpha virt. eigenvalues --    3.47236   3.47670   3.47987   3.48206   3.48624
 Alpha virt. eigenvalues --    3.49123   3.49465   3.49696   3.50045   3.50493
 Alpha virt. eigenvalues --    3.50782   3.51324   3.51864   3.52150   3.52623
 Alpha virt. eigenvalues --    3.52815   3.53496   3.53731   3.54307   3.54449
 Alpha virt. eigenvalues --    3.55342   3.56024   3.56342   3.56598   3.56932
 Alpha virt. eigenvalues --    3.57483   3.57998   3.58291   3.58565   3.58642
 Alpha virt. eigenvalues --    3.59169   3.59702   3.60028   3.60784   3.61115
 Alpha virt. eigenvalues --    3.61685   3.62028   3.62489   3.62899   3.63656
 Alpha virt. eigenvalues --    3.64469   3.64846   3.65717   3.66143   3.66532
 Alpha virt. eigenvalues --    3.67225   3.67781   3.68046   3.68707   3.68802
 Alpha virt. eigenvalues --    3.69099   3.69597   3.70172   3.70663   3.71064
 Alpha virt. eigenvalues --    3.71294   3.71707   3.71940   3.72334   3.72416
 Alpha virt. eigenvalues --    3.72733   3.73232   3.73499   3.74058   3.74402
 Alpha virt. eigenvalues --    3.74960   3.75550   3.75805   3.76637   3.76800
 Alpha virt. eigenvalues --    3.77848   3.78216   3.78588   3.79361   3.79493
 Alpha virt. eigenvalues --    3.80265   3.80503   3.81000   3.81852   3.82746
 Alpha virt. eigenvalues --    3.82919   3.83348   3.84090   3.84212   3.84882
 Alpha virt. eigenvalues --    3.84968   3.85256   3.85839   3.86437   3.86918
 Alpha virt. eigenvalues --    3.87489   3.88034   3.88471   3.89710   3.90089
 Alpha virt. eigenvalues --    3.90919   3.91257   3.91549   3.91789   3.92298
 Alpha virt. eigenvalues --    3.93338   3.93991   3.95317   3.95645   3.96301
 Alpha virt. eigenvalues --    3.96446   3.97016   3.97162   3.97461   3.98206
 Alpha virt. eigenvalues --    3.98865   3.99249   3.99667   3.99924   4.00556
 Alpha virt. eigenvalues --    4.01260   4.01726   4.02225   4.02794   4.03618
 Alpha virt. eigenvalues --    4.04537   4.05004   4.05299   4.06218   4.06507
 Alpha virt. eigenvalues --    4.07471   4.07825   4.08203   4.08826   4.09150
 Alpha virt. eigenvalues --    4.09599   4.10148   4.10823   4.11243   4.12546
 Alpha virt. eigenvalues --    4.12682   4.13078   4.13373   4.13506   4.14009
 Alpha virt. eigenvalues --    4.14616   4.14968   4.16046   4.16203   4.17226
 Alpha virt. eigenvalues --    4.17468   4.17544   4.18029   4.19263   4.19532
 Alpha virt. eigenvalues --    4.20075   4.20545   4.21032   4.21495   4.21945
 Alpha virt. eigenvalues --    4.22549   4.22838   4.23617   4.24139   4.24539
 Alpha virt. eigenvalues --    4.25107   4.26024   4.26815   4.26869   4.27628
 Alpha virt. eigenvalues --    4.27924   4.28255   4.29138   4.29319   4.29694
 Alpha virt. eigenvalues --    4.30123   4.30542   4.31046   4.31794   4.32252
 Alpha virt. eigenvalues --    4.32631   4.33070   4.33585   4.34301   4.35059
 Alpha virt. eigenvalues --    4.35803   4.36020   4.37549   4.38037   4.39504
 Alpha virt. eigenvalues --    4.39895   4.40173   4.40618   4.41066   4.41379
 Alpha virt. eigenvalues --    4.41956   4.42574   4.43549   4.43909   4.44314
 Alpha virt. eigenvalues --    4.44770   4.45237   4.45632   4.46183   4.46431
 Alpha virt. eigenvalues --    4.47075   4.47995   4.48245   4.48852   4.50165
 Alpha virt. eigenvalues --    4.51184   4.51560   4.52807   4.53560   4.54581
 Alpha virt. eigenvalues --    4.55006   4.55786   4.56962   4.57652   4.57767
 Alpha virt. eigenvalues --    4.58394   4.59127   4.61482   4.62159   4.63036
 Alpha virt. eigenvalues --    4.63418   4.63995   4.64935   4.66135   4.66815
 Alpha virt. eigenvalues --    4.67326   4.68350   4.68987   4.69135   4.70337
 Alpha virt. eigenvalues --    4.70944   4.71470   4.72303   4.73641   4.74304
 Alpha virt. eigenvalues --    4.75311   4.75522   4.77019   4.77870   4.78844
 Alpha virt. eigenvalues --    4.79127   4.80486   4.82581   4.82988   4.83128
 Alpha virt. eigenvalues --    4.83967   4.84447   4.85257   4.85485   4.86684
 Alpha virt. eigenvalues --    4.87299   4.87925   4.88933   4.89885   4.90277
 Alpha virt. eigenvalues --    4.91568   4.92858   4.93394   4.93918   4.94503
 Alpha virt. eigenvalues --    4.95082   4.95967   4.97874   4.98256   4.99284
 Alpha virt. eigenvalues --    5.00239   5.00528   5.00802   5.01319   5.02301
 Alpha virt. eigenvalues --    5.04269   5.04727   5.05118   5.05541   5.07657
 Alpha virt. eigenvalues --    5.08262   5.09319   5.11465   5.11957   5.15337
 Alpha virt. eigenvalues --    5.15840   5.16588   5.18283   5.18434   5.19435
 Alpha virt. eigenvalues --    5.20061   5.20767   5.21915   5.22199   5.23188
 Alpha virt. eigenvalues --    5.24906   5.26029   5.27691   5.29938   5.32641
 Alpha virt. eigenvalues --    5.33721   5.34690   5.35003   5.35533   5.36562
 Alpha virt. eigenvalues --    5.37303   5.38006   5.39430   5.40245   5.44145
 Alpha virt. eigenvalues --    5.46170   5.46518   5.47246   5.47934   5.49400
 Alpha virt. eigenvalues --    5.49861   5.50663   5.51809   5.53354   5.56128
 Alpha virt. eigenvalues --    5.56913   5.59690   5.60651   5.60833   5.61595
 Alpha virt. eigenvalues --    5.63742   5.64996   5.66367   5.66594   5.69287
 Alpha virt. eigenvalues --    5.73831   5.74882   5.75558   5.77759   5.78400
 Alpha virt. eigenvalues --    5.79716   5.84657   5.86203   5.89618   5.96473
 Alpha virt. eigenvalues --    5.98470   5.99453   6.01703   6.05109   6.08560
 Alpha virt. eigenvalues --    6.08981   6.09224   6.14936   6.22654   6.28459
 Alpha virt. eigenvalues --    6.29637   6.31173   6.36964   6.41690   6.56545
 Alpha virt. eigenvalues --    6.79277   6.88245   7.07333   7.28905  22.34675
 Alpha virt. eigenvalues --   22.36227  22.39589  22.45820  22.46889  22.51483
 Alpha virt. eigenvalues --   22.51873  22.53320  22.60837  22.63072  22.78068
 Alpha virt. eigenvalues --   22.82026  22.85111  22.86971  22.88553  22.89809
 Alpha virt. eigenvalues --   22.92087  22.93408  22.95079  22.99511  23.02642
 Alpha virt. eigenvalues --   23.03617  23.05395  23.13426  23.23736  23.27555
 Alpha virt. eigenvalues --   23.29395  23.35820  23.41187  23.42734  23.49495
 Alpha virt. eigenvalues --   23.50367  23.55478  23.72165  23.77028  23.78821
 Alpha virt. eigenvalues --   23.87953  32.84314  32.87509  32.90294  32.99353
 Alpha virt. eigenvalues --   44.20290
  Beta  occ. eigenvalues -- -256.31191 -30.13776 -25.98269 -25.98213 -25.97815
  Beta  occ. eigenvalues --  -19.23585 -14.36359 -14.36207 -14.36178 -14.36092
  Beta  occ. eigenvalues --  -10.26504 -10.22681 -10.22585 -10.22530 -10.22421
  Beta  occ. eigenvalues --  -10.21730 -10.21536 -10.21532 -10.21521 -10.20729
  Beta  occ. eigenvalues --  -10.20405 -10.20185 -10.20127 -10.20078 -10.20048
  Beta  occ. eigenvalues --  -10.20029 -10.19981 -10.19978 -10.19947 -10.19653
  Beta  occ. eigenvalues --  -10.19543 -10.19471 -10.19465 -10.19421 -10.19383
  Beta  occ. eigenvalues --  -10.19364 -10.19359 -10.19340 -10.19277 -10.19242
  Beta  occ. eigenvalues --  -10.19121 -10.19069 -10.18765 -10.18699 -10.18398
  Beta  occ. eigenvalues --  -10.17590 -10.17338  -3.47153  -2.23342  -2.23311
  Beta  occ. eigenvalues --   -2.20809  -1.10713  -0.98730  -0.97733  -0.97682
  Beta  occ. eigenvalues --   -0.96731  -0.88208  -0.83096  -0.82733  -0.82420
  Beta  occ. eigenvalues --   -0.81954  -0.81598  -0.80588  -0.80167  -0.79200
  Beta  occ. eigenvalues --   -0.77435  -0.77119  -0.76326  -0.75128  -0.74566
  Beta  occ. eigenvalues --   -0.73914  -0.71833  -0.70928  -0.70513  -0.69457
  Beta  occ. eigenvalues --   -0.69077  -0.68751  -0.65064  -0.64740  -0.64468
  Beta  occ. eigenvalues --   -0.61418  -0.61205  -0.60836  -0.58607  -0.57865
  Beta  occ. eigenvalues --   -0.56902  -0.55454  -0.54789  -0.54218  -0.54017
  Beta  occ. eigenvalues --   -0.52275  -0.52171  -0.51780  -0.51248  -0.49872
  Beta  occ. eigenvalues --   -0.48758  -0.48374  -0.48361  -0.47291  -0.46076
  Beta  occ. eigenvalues --   -0.45587  -0.45460  -0.45365  -0.45027  -0.44610
  Beta  occ. eigenvalues --   -0.44360  -0.44285  -0.44051  -0.43705  -0.43616
  Beta  occ. eigenvalues --   -0.43490  -0.43374  -0.43029  -0.42904  -0.42522
  Beta  occ. eigenvalues --   -0.42092  -0.41966  -0.41290  -0.41252  -0.40990
  Beta  occ. eigenvalues --   -0.40615  -0.40412  -0.40276  -0.40085  -0.39522
  Beta  occ. eigenvalues --   -0.39245  -0.39231  -0.39180  -0.38571  -0.38458
  Beta  occ. eigenvalues --   -0.38393  -0.37625  -0.37401  -0.36961  -0.36854
  Beta  occ. eigenvalues --   -0.36548  -0.35496  -0.35396  -0.35268  -0.34894
  Beta  occ. eigenvalues --   -0.34477  -0.33304  -0.32764  -0.32377  -0.32041
  Beta  occ. eigenvalues --   -0.30583  -0.29924  -0.28017  -0.27831  -0.26897
  Beta  occ. eigenvalues --   -0.26268  -0.25575  -0.24700  -0.23678  -0.23464
  Beta  occ. eigenvalues --   -0.22800  -0.19464  -0.18360
  Beta virt. eigenvalues --   -0.11125  -0.10860  -0.09257  -0.06766  -0.05947
  Beta virt. eigenvalues --   -0.02252  -0.01591  -0.01384   0.00066   0.00227
  Beta virt. eigenvalues --    0.01790   0.02596   0.03165   0.03880   0.04293
  Beta virt. eigenvalues --    0.05111   0.05632   0.05918   0.06083   0.06370
  Beta virt. eigenvalues --    0.07140   0.07295   0.07688   0.07961   0.08176
  Beta virt. eigenvalues --    0.08639   0.09239   0.09613   0.09904   0.09970
  Beta virt. eigenvalues --    0.10428   0.10619   0.10998   0.11384   0.11510
  Beta virt. eigenvalues --    0.11836   0.11974   0.12169   0.12280   0.12413
  Beta virt. eigenvalues --    0.12685   0.12826   0.13127   0.13452   0.13505
  Beta virt. eigenvalues --    0.13779   0.14134   0.14419   0.14624   0.14820
  Beta virt. eigenvalues --    0.14995   0.15152   0.15283   0.15465   0.15711
  Beta virt. eigenvalues --    0.15771   0.16003   0.16293   0.16538   0.16621
  Beta virt. eigenvalues --    0.17202   0.17250   0.17408   0.17685   0.18015
  Beta virt. eigenvalues --    0.18582   0.18812   0.19152   0.19401   0.19618
  Beta virt. eigenvalues --    0.19846   0.20214   0.20345   0.20586   0.21007
  Beta virt. eigenvalues --    0.21044   0.21187   0.21582   0.21922   0.22359
  Beta virt. eigenvalues --    0.22397   0.22571   0.22821   0.23239   0.23679
  Beta virt. eigenvalues --    0.23986   0.24276   0.24407   0.24610   0.25276
  Beta virt. eigenvalues --    0.25427   0.25610   0.25905   0.26053   0.26362
  Beta virt. eigenvalues --    0.26784   0.26921   0.27027   0.27428   0.27478
  Beta virt. eigenvalues --    0.27693   0.28060   0.28436   0.28599   0.28854
  Beta virt. eigenvalues --    0.29094   0.29330   0.29430   0.29815   0.29880
  Beta virt. eigenvalues --    0.30133   0.30653   0.30700   0.30943   0.31238
  Beta virt. eigenvalues --    0.31265   0.31682   0.31945   0.32180   0.32752
  Beta virt. eigenvalues --    0.32883   0.33083   0.33235   0.33363   0.33799
  Beta virt. eigenvalues --    0.34065   0.34318   0.34530   0.34777   0.35079
  Beta virt. eigenvalues --    0.35428   0.35579   0.36123   0.36182   0.36485
  Beta virt. eigenvalues --    0.36655   0.36901   0.36990   0.37332   0.37451
  Beta virt. eigenvalues --    0.37879   0.38111   0.38344   0.38404   0.38586
  Beta virt. eigenvalues --    0.38941   0.39241   0.39311   0.39680   0.39970
  Beta virt. eigenvalues --    0.40203   0.40400   0.40810   0.41069   0.41185
  Beta virt. eigenvalues --    0.41237   0.41547   0.41727   0.41966   0.42251
  Beta virt. eigenvalues --    0.42336   0.42499   0.42724   0.43114   0.43304
  Beta virt. eigenvalues --    0.43524   0.43925   0.44041   0.44300   0.44353
  Beta virt. eigenvalues --    0.44513   0.45165   0.45265   0.45381   0.45735
  Beta virt. eigenvalues --    0.45948   0.46077   0.46150   0.46365   0.46654
  Beta virt. eigenvalues --    0.46926   0.47006   0.47314   0.47433   0.47627
  Beta virt. eigenvalues --    0.47971   0.48182   0.48269   0.48290   0.48617
  Beta virt. eigenvalues --    0.48901   0.49077   0.49487   0.49571   0.49708
  Beta virt. eigenvalues --    0.49909   0.49939   0.50318   0.50507   0.50571
  Beta virt. eigenvalues --    0.50718   0.50998   0.51439   0.51656   0.52005
  Beta virt. eigenvalues --    0.52039   0.52406   0.52515   0.52779   0.52817
  Beta virt. eigenvalues --    0.53159   0.53399   0.53661   0.54285   0.54517
  Beta virt. eigenvalues --    0.54568   0.54925   0.55161   0.55375   0.55747
  Beta virt. eigenvalues --    0.55901   0.56140   0.56326   0.56602   0.56724
  Beta virt. eigenvalues --    0.57371   0.57515   0.57757   0.58238   0.58712
  Beta virt. eigenvalues --    0.59002   0.59237   0.59332   0.59845   0.59923
  Beta virt. eigenvalues --    0.60131   0.60412   0.60926   0.61307   0.61548
  Beta virt. eigenvalues --    0.61914   0.62467   0.62887   0.62957   0.63024
  Beta virt. eigenvalues --    0.63287   0.63438   0.63806   0.64134   0.64354
  Beta virt. eigenvalues --    0.64639   0.65043   0.65323   0.65758   0.65929
  Beta virt. eigenvalues --    0.66378   0.66655   0.66795   0.66982   0.67104
  Beta virt. eigenvalues --    0.67375   0.67797   0.68001   0.68315   0.68536
  Beta virt. eigenvalues --    0.69007   0.69207   0.69774   0.70184   0.70473
  Beta virt. eigenvalues --    0.70714   0.70966   0.71424   0.71544   0.71962
  Beta virt. eigenvalues --    0.72278   0.72748   0.72878   0.73378   0.73565
  Beta virt. eigenvalues --    0.73665   0.73909   0.74154   0.74633   0.74898
  Beta virt. eigenvalues --    0.75192   0.75398   0.75762   0.76308   0.76742
  Beta virt. eigenvalues --    0.76922   0.77206   0.77703   0.77758   0.78360
  Beta virt. eigenvalues --    0.78640   0.79141   0.79190   0.79301   0.79649
  Beta virt. eigenvalues --    0.80199   0.80708   0.80896   0.81053   0.82127
  Beta virt. eigenvalues --    0.82275   0.82482   0.82733   0.83549   0.83741
  Beta virt. eigenvalues --    0.84074   0.84257   0.84875   0.85055   0.85325
  Beta virt. eigenvalues --    0.86052   0.86081   0.86239   0.86463   0.87253
  Beta virt. eigenvalues --    0.87347   0.87782   0.88287   0.88663   0.88833
  Beta virt. eigenvalues --    0.88901   0.89353   0.89607   0.90145   0.90443
  Beta virt. eigenvalues --    0.91248   0.91340   0.91629   0.91839   0.92266
  Beta virt. eigenvalues --    0.92407   0.92696   0.93362   0.93452   0.93867
  Beta virt. eigenvalues --    0.94270   0.94908   0.95048   0.95318   0.95613
  Beta virt. eigenvalues --    0.96270   0.96617   0.96869   0.97206   0.97466
  Beta virt. eigenvalues --    0.97755   0.98148   0.98440   0.98983   0.99331
  Beta virt. eigenvalues --    0.99594   0.99701   1.00278   1.00538   1.00872
  Beta virt. eigenvalues --    1.01408   1.01444   1.01698   1.02008   1.02227
  Beta virt. eigenvalues --    1.02386   1.03020   1.03254   1.03489   1.03894
  Beta virt. eigenvalues --    1.04165   1.04476   1.04892   1.05281   1.05754
  Beta virt. eigenvalues --    1.06215   1.06825   1.07345   1.07511   1.08224
  Beta virt. eigenvalues --    1.08505   1.08582   1.09062   1.09410   1.09685
  Beta virt. eigenvalues --    1.09840   1.10291   1.10722   1.11301   1.11369
  Beta virt. eigenvalues --    1.12073   1.12287   1.12935   1.13156   1.13575
  Beta virt. eigenvalues --    1.13716   1.14240   1.14865   1.14999   1.15939
  Beta virt. eigenvalues --    1.16175   1.16403   1.17031   1.17645   1.17743
  Beta virt. eigenvalues --    1.17857   1.18464   1.18986   1.19119   1.19654
  Beta virt. eigenvalues --    1.20025   1.20535   1.20952   1.21272   1.21680
  Beta virt. eigenvalues --    1.21861   1.22405   1.22679   1.22867   1.23236
  Beta virt. eigenvalues --    1.23523   1.23944   1.24280   1.24818   1.25384
  Beta virt. eigenvalues --    1.25899   1.26631   1.26698   1.26946   1.27088
  Beta virt. eigenvalues --    1.27569   1.28215   1.28494   1.28777   1.28911
  Beta virt. eigenvalues --    1.29470   1.29684   1.29711   1.30005   1.30628
  Beta virt. eigenvalues --    1.31093   1.31625   1.32105   1.32183   1.33397
  Beta virt. eigenvalues --    1.33625   1.33986   1.35103   1.35266   1.35699
  Beta virt. eigenvalues --    1.36207   1.36498   1.37419   1.37531   1.37756
  Beta virt. eigenvalues --    1.38394   1.38640   1.39694   1.40205   1.40502
  Beta virt. eigenvalues --    1.41049   1.41358   1.41723   1.41926   1.42899
  Beta virt. eigenvalues --    1.43592   1.43734   1.44468   1.44863   1.45380
  Beta virt. eigenvalues --    1.45772   1.46192   1.46856   1.47078   1.47403
  Beta virt. eigenvalues --    1.47781   1.48335   1.48646   1.48763   1.49314
  Beta virt. eigenvalues --    1.49566   1.49620   1.50177   1.50398   1.50512
  Beta virt. eigenvalues --    1.50979   1.51485   1.51753   1.52127   1.52564
  Beta virt. eigenvalues --    1.52624   1.53224   1.53285   1.53400   1.53845
  Beta virt. eigenvalues --    1.54133   1.54321   1.54445   1.54746   1.55205
  Beta virt. eigenvalues --    1.55369   1.55633   1.55723   1.55964   1.56273
  Beta virt. eigenvalues --    1.56414   1.56848   1.57070   1.57540   1.57719
  Beta virt. eigenvalues --    1.57838   1.58207   1.58501   1.59168   1.59375
  Beta virt. eigenvalues --    1.59774   1.60212   1.60608   1.60804   1.61283
  Beta virt. eigenvalues --    1.61568   1.61929   1.62183   1.62292   1.62668
  Beta virt. eigenvalues --    1.62777   1.63449   1.63503   1.64025   1.64115
  Beta virt. eigenvalues --    1.64225   1.64624   1.64854   1.65074   1.65621
  Beta virt. eigenvalues --    1.65718   1.65900   1.66551   1.66728   1.67055
  Beta virt. eigenvalues --    1.67350   1.67665   1.67967   1.68198   1.68572
  Beta virt. eigenvalues --    1.69251   1.69580   1.69782   1.70251   1.70594
  Beta virt. eigenvalues --    1.70822   1.71212   1.71564   1.71855   1.72075
  Beta virt. eigenvalues --    1.72431   1.73023   1.73238   1.73936   1.74022
  Beta virt. eigenvalues --    1.74503   1.75150   1.75790   1.76094   1.76924
  Beta virt. eigenvalues --    1.77300   1.78352   1.79061   1.79574   1.79930
  Beta virt. eigenvalues --    1.80051   1.80307   1.80659   1.81182   1.81468
  Beta virt. eigenvalues --    1.82141   1.82328   1.83092   1.83354   1.84153
  Beta virt. eigenvalues --    1.84585   1.84906   1.85878   1.85911   1.86243
  Beta virt. eigenvalues --    1.86568   1.87317   1.87499   1.87998   1.88334
  Beta virt. eigenvalues --    1.88601   1.88704   1.88982   1.90308   1.90786
  Beta virt. eigenvalues --    1.90955   1.91239   1.91961   1.92108   1.92462
  Beta virt. eigenvalues --    1.92896   1.93913   1.94336   1.95012   1.95450
  Beta virt. eigenvalues --    1.95895   1.96535   1.97197   1.97718   1.97842
  Beta virt. eigenvalues --    1.98332   1.98453   1.99257   1.99430   2.00153
  Beta virt. eigenvalues --    2.00338   2.00635   2.01392   2.01527   2.02197
  Beta virt. eigenvalues --    2.02253   2.03162   2.03489   2.04381   2.04642
  Beta virt. eigenvalues --    2.05103   2.05347   2.05985   2.06150   2.06226
  Beta virt. eigenvalues --    2.06821   2.07286   2.07920   2.08326   2.09025
  Beta virt. eigenvalues --    2.09352   2.09476   2.09837   2.10361   2.10715
  Beta virt. eigenvalues --    2.11249   2.11439   2.12359   2.12558   2.12932
  Beta virt. eigenvalues --    2.13385   2.13895   2.14233   2.14500   2.15161
  Beta virt. eigenvalues --    2.15796   2.16159   2.16623   2.17087   2.17770
  Beta virt. eigenvalues --    2.18295   2.18727   2.19027   2.19175   2.19763
  Beta virt. eigenvalues --    2.20325   2.20825   2.21007   2.21615   2.21978
  Beta virt. eigenvalues --    2.22483   2.22787   2.23375   2.23417   2.24354
  Beta virt. eigenvalues --    2.24891   2.25223   2.25471   2.25914   2.26343
  Beta virt. eigenvalues --    2.27027   2.27463   2.27695   2.28071   2.28456
  Beta virt. eigenvalues --    2.28724   2.28823   2.29802   2.30087   2.30292
  Beta virt. eigenvalues --    2.30778   2.31303   2.31524   2.31938   2.32686
  Beta virt. eigenvalues --    2.33264   2.33336   2.34139   2.34745   2.34835
  Beta virt. eigenvalues --    2.35104   2.35944   2.36098   2.36834   2.37057
  Beta virt. eigenvalues --    2.37347   2.37652   2.38143   2.38734   2.38960
  Beta virt. eigenvalues --    2.39524   2.40156   2.40325   2.40713   2.41169
  Beta virt. eigenvalues --    2.41419   2.42070   2.42852   2.43195   2.43289
  Beta virt. eigenvalues --    2.44057   2.44109   2.44368   2.44548   2.44789
  Beta virt. eigenvalues --    2.44981   2.45561   2.45902   2.46798   2.46994
  Beta virt. eigenvalues --    2.47180   2.47744   2.48325   2.49438   2.49857
  Beta virt. eigenvalues --    2.50164   2.50803   2.50910   2.52085   2.52549
  Beta virt. eigenvalues --    2.52753   2.53140   2.53448   2.53676   2.53897
  Beta virt. eigenvalues --    2.54397   2.55171   2.55353   2.55591   2.56037
  Beta virt. eigenvalues --    2.56192   2.56766   2.57089   2.57400   2.57672
  Beta virt. eigenvalues --    2.57999   2.58158   2.58365   2.58915   2.59047
  Beta virt. eigenvalues --    2.59416   2.59746   2.60388   2.60595   2.61016
  Beta virt. eigenvalues --    2.61498   2.61708   2.62449   2.62779   2.63137
  Beta virt. eigenvalues --    2.63573   2.64195   2.64838   2.65203   2.65630
  Beta virt. eigenvalues --    2.66007   2.66206   2.66885   2.67007   2.67256
  Beta virt. eigenvalues --    2.67782   2.67941   2.68663   2.68723   2.69187
  Beta virt. eigenvalues --    2.69325   2.70229   2.70591   2.70790   2.71093
  Beta virt. eigenvalues --    2.71401   2.71966   2.72274   2.72658   2.73118
  Beta virt. eigenvalues --    2.73321   2.74238   2.74469   2.74944   2.75103
  Beta virt. eigenvalues --    2.75921   2.76155   2.76901   2.77035   2.77439
  Beta virt. eigenvalues --    2.78037   2.78633   2.78819   2.79073   2.79524
  Beta virt. eigenvalues --    2.80009   2.80467   2.80984   2.81291   2.81659
  Beta virt. eigenvalues --    2.81887   2.82193   2.82639   2.82867   2.83134
  Beta virt. eigenvalues --    2.83602   2.84086   2.84304   2.84780   2.85684
  Beta virt. eigenvalues --    2.85733   2.85889   2.86188   2.86648   2.86889
  Beta virt. eigenvalues --    2.87410   2.87996   2.88190   2.88287   2.88518
  Beta virt. eigenvalues --    2.88831   2.89784   2.89988   2.90173   2.90656
  Beta virt. eigenvalues --    2.91164   2.91507   2.91773   2.92102   2.92658
  Beta virt. eigenvalues --    2.92884   2.93502   2.93974   2.94216   2.94381
  Beta virt. eigenvalues --    2.94540   2.95066   2.95456   2.95663   2.95996
  Beta virt. eigenvalues --    2.96408   2.96928   2.97647   2.97854   2.98441
  Beta virt. eigenvalues --    2.99167   2.99281   2.99609   3.00455   3.00737
  Beta virt. eigenvalues --    3.00820   3.01490   3.01729   3.01883   3.02839
  Beta virt. eigenvalues --    3.03066   3.03599   3.03901   3.04357   3.04906
  Beta virt. eigenvalues --    3.05076   3.05576   3.06195   3.06481   3.06628
  Beta virt. eigenvalues --    3.07018   3.07450   3.08094   3.08161   3.08464
  Beta virt. eigenvalues --    3.08614   3.09199   3.09515   3.09682   3.09779
  Beta virt. eigenvalues --    3.10103   3.10620   3.10733   3.11211   3.11398
  Beta virt. eigenvalues --    3.11510   3.11813   3.12599   3.12732   3.13016
  Beta virt. eigenvalues --    3.13524   3.13740   3.14425   3.14578   3.14884
  Beta virt. eigenvalues --    3.15171   3.15594   3.15754   3.16119   3.16190
  Beta virt. eigenvalues --    3.16423   3.16835   3.17255   3.17720   3.17781
  Beta virt. eigenvalues --    3.18225   3.18365   3.18695   3.19235   3.19444
  Beta virt. eigenvalues --    3.19803   3.20130   3.20301   3.20621   3.20900
  Beta virt. eigenvalues --    3.21156   3.21467   3.21595   3.21916   3.22027
  Beta virt. eigenvalues --    3.22547   3.22979   3.23419   3.23485   3.24103
  Beta virt. eigenvalues --    3.24375   3.24496   3.24691   3.25050   3.25431
  Beta virt. eigenvalues --    3.25720   3.26189   3.26497   3.26975   3.27341
[...]
  1259. RY*(   5) H  67                  0.00001     3.02927   
  1260. RY*(   1) C  68                  0.00258     1.69130   
  1261. RY*(   2) C  68                  0.00142     1.44980   
  1262. RY*(   3) C  68                  0.00097     0.92525   
  1263. RY*(   4) C  68                  0.00068     2.16874   
  1264. RY*(   5) C  68                  0.00045     2.36921   
  1265. RY*(   6) C  68                  0.00020     3.09309   
  1266. RY*(   7) C  68                  0.00018     1.39055   
  1267. RY*(   8) C  68                  0.00011     2.68797   
  1268. RY*(   9) C  68                  0.00005     1.85469   
  1269. RY*(  10) C  68                  0.00004     3.29209   
  1270. RY*(  11) C  68                  0.00004     2.71361   
  1271. RY*(  12) C  68                  0.00002     1.62468   
  1272. RY*(  13) C  68                  0.00000     1.73316   
  1273. RY*(  14) C  68                  0.00000     1.45626   
  1274. RY*(  15) C  68                  0.00000     1.96798   
  1275. RY*(  16) C  68                  0.00001     2.11652   
  1276. RY*(  17) C  68                  0.00000    21.57281   
  1277. RY*(  18) C  68                  0.00000     2.41305   
  1278. RY*(  19) C  68                  0.00000     3.53733   
  1279. RY*(  20) C  68                  0.00000     3.48669   
  1280. RY*(  21) C  68                  0.00000     3.44155   
  1281. RY*(  22) C  68                  0.00000     3.61485   
  1282. RY*(  23) C  68                  0.00000     3.53921   
  1283. RY*(  24) C  68                  0.00000     3.61678   
  1284. RY*(  25) C  68                  0.00000     4.41710   
  1285. RY*(  26) C  68                  0.00000     4.22645   
  1286. RY*(   1) C  69                  0.00215     1.53687   
  1287. RY*(   2) C  69                  0.00094     1.22086   
  1288. RY*(   3) C  69                  0.00055     0.59226   
  1289. RY*(   4) C  69                  0.00036     1.63535   
  1290. RY*(   5) C  69                  0.00026     2.16092   
  1291. RY*(   6) C  69                  0.00013     2.24467   
  1292. RY*(   7) C  69                  0.00011     2.04401   
  1293. RY*(   8) C  69                  0.00007     2.38423   
  1294. RY*(   9) C  69                  0.00005     1.85850   
  1295. RY*(  10) C  69                  0.00003     2.11694   
  1296. RY*(  11) C  69                  0.00001     3.45829   
  1297. RY*(  12) C  69                  0.00000    21.05415   
  1298. RY*(  13) C  69                  0.00000     2.25020   
  1299. RY*(  14) C  69                  0.00001     2.50920   
  1300. RY*(  15) C  69                  0.00000     2.80133   
  1301. RY*(  16) C  69                  0.00001     2.14209   
  1302. RY*(  17) C  69                  0.00001     1.62408   
  1303. RY*(  18) C  69                  0.00000     2.16480   
  1304. RY*(  19) C  69                  0.00000     3.53062   
  1305. RY*(  20) C  69                  0.00000     3.37398   
  1306. RY*(  21) C  69                  0.00000     3.62818   
  1307. RY*(  22) C  69                  0.00000     3.43528   
  1308. RY*(  23) C  69                  0.00000     3.46800   
  1309. RY*(  24) C  69                  0.00000     3.46551   
  1310. RY*(  25) C  69                  0.00001     4.13536   
  1311. RY*(  26) C  69                  0.00000     4.00130   
  1312. RY*(   1) H  70                  0.00023     1.44926   
  1313. RY*(   2) H  70                  0.00010     1.56250   
  1314. RY*(   3) H  70                  0.00007     2.21685   
  1315. RY*(   4) H  70                  0.00003     2.83844   
  1316. RY*(   5) H  70                  0.00001     3.13419   
  1317. RY*(   1) C  71                  0.00204     1.74824   
  1318. RY*(   2) C  71                  0.00109     1.20234   
  1319. RY*(   3) C  71                  0.00068     1.42301   
  1320. RY*(   4) C  71                  0.00058     0.81096   
  1321. RY*(   5) C  71                  0.00030     1.83591   
  1322. RY*(   6) C  71                  0.00024     2.05962   
  1323. RY*(   7) C  71                  0.00018     1.99707   
  1324. RY*(   8) C  71                  0.00011     1.29087   
  1325. RY*(   9) C  71                  0.00008     2.23289   
  1326. RY*(  10) C  71                  0.00006     1.94185   
  1327. RY*(  11) C  71                  0.00003     3.29039   
  1328. RY*(  12) C  71                  0.00001     1.77991   
  1329. RY*(  13) C  71                  0.00001     2.37882   
  1330. RY*(  14) C  71                  0.00001     1.73573   
  1331. RY*(  15) C  71                  0.00000     2.90246   
  1332. RY*(  16) C  71                  0.00000    21.30403   
  1333. RY*(  17) C  71                  0.00001     3.35104   
  1334. RY*(  18) C  71                  0.00001     1.86686   
  1335. RY*(  19) C  71                  0.00000     3.41735   
  1336. RY*(  20) C  71                  0.00000     3.45152   
  1337. RY*(  21) C  71                  0.00000     3.59875   
  1338. RY*(  22) C  71                  0.00000     3.64010   
  1339. RY*(  23) C  71                  0.00000     3.49487   
  1340. RY*(  24) C  71                  0.00000     3.45555   
  1341. RY*(  25) C  71                  0.00000     4.13581   
  1342. RY*(  26) C  71                  0.00000     3.98837   
  1343. RY*(   1) H  72                  0.00040     0.63912   
  1344. RY*(   2) H  72                  0.00015     2.29455   
  1345. RY*(   3) H  72                  0.00009     2.27304   
  1346. RY*(   4) H  72                  0.00006     2.87042   
  1347. RY*(   5) H  72                  0.00001     3.13514   
  1348. RY*(   1) C  73                  0.00296     1.47975   
  1349. RY*(   2) C  73                  0.00140     1.55306   
  1350. RY*(   3) C  73                  0.00087     1.23603   
  1351. RY*(   4) C  73                  0.00058     1.75681   
  1352. RY*(   5) C  73                  0.00049     1.80229   
  1353. RY*(   6) C  73                  0.00043     1.67536   
  1354. RY*(   7) C  73                  0.00033     1.93141   
  1355. RY*(   8) C  73                  0.00031     2.84812   
  1356. RY*(   9) C  73                  0.00023     2.92657   
  1357. RY*(  10) C  73                  0.00013     1.85255   
  1358. RY*(  11) C  73                  0.00010     2.35060   
  1359. RY*(  12) C  73                  0.00005     3.44217   
  1360. RY*(  13) C  73                  0.00005     2.11784   
  1361. RY*(  14) C  73                  0.00002     2.22782   
  1362. RY*(  15) C  73                  0.00003     1.95112   
  1363. RY*(  16) C  73                  0.00001     2.40362   
  1364. RY*(  17) C  73                  0.00001     2.77836   
  1365. RY*(  18) C  73                  0.00000    20.90344   
  1366. RY*(  19) C  73                  0.00001     3.53938   
  1367. RY*(  20) C  73                  0.00000     3.51418   
  1368. RY*(  21) C  73                  0.00000     3.66081   
  1369. RY*(  22) C  73                  0.00000     3.69525   
  1370. RY*(  23) C  73                  0.00000     3.64318   
  1371. RY*(  24) C  73                  0.00000     3.57939   
  1372. RY*(  25) C  73                  0.00000     4.16841   
  1373. RY*(  26) C  73                  0.00001     4.24343   
  1374. RY*(   1) O  74                  0.00127     0.98743   
  1375. RY*(   2) O  74                  0.00083     1.07271   
  1376. RY*(   3) O  74                  0.00033     0.98219   
  1377. RY*(   4) O  74                  0.00016     1.72789   
  1378. RY*(   5) O  74                  0.00009     1.82892   
  1379. RY*(   6) O  74                  0.00005     4.01892   
  1380. RY*(   7) O  74                  0.00006     2.38795   
  1381. RY*(   8) O  74                  0.00003     2.71650   
  1382. RY*(   9) O  74                  0.00002     2.28868   
  1383. RY*(  10) O  74                  0.00001     3.97923   
  1384. RY*(  11) O  74                  0.00000     5.91353   
  1385. RY*(  12) O  74                  0.00001     2.49384   
  1386. RY*(  13) O  74                  0.00000     6.23011   
  1387. RY*(  14) O  74                  0.00001     3.75174   
  1388. RY*(  15) O  74                  0.00000     6.26322   
  1389. RY*(  16) O  74                  0.00000    42.41313   
  1390. RY*(  17) O  74                  0.00000     6.48769   
  1391. RY*(  18) O  74                  0.00001     3.19256   
  1392. RY*(  19) O  74                  0.00000     6.49265   
  1393. RY*(  20) O  74                  0.00000     5.39263   
  1394. RY*(  21) O  74                  0.00000     5.42149   
  1395. RY*(  22) O  74                  0.00000     5.34546   
  1396. RY*(  23) O  74                  0.00000     5.43642   
  1397. RY*(  24) O  74                  0.00000     5.31668   
  1398. RY*(  25) O  74                  0.00000     5.51207   
  1399. RY*(  26) O  74                  0.00000     5.72378   
  1400. RY*(   1) H  75                  0.00056     0.83902   
  1401. RY*(   2) H  75                  0.00023     2.08850   
  1402. RY*(   3) H  75                  0.00017     2.33842   
  1403. RY*(   4) H  75                  0.00008     2.37579   
  1404. RY*(   5) H  75                  0.00001     3.46520   
  1405. RY*(   1) C  76                  0.00202     1.66551   
  1406. RY*(   2) C  76                  0.00095     1.24337   
  1407. RY*(   3) C  76                  0.00051     0.70268   
  1408. RY*(   4) C  76                  0.00041     1.67623   
  1409. RY*(   5) C  76                  0.00026     2.42648   
  1410. RY*(   6) C  76                  0.00017     1.91114   
  1411. RY*(   7) C  76                  0.00010     2.33665   
  1412. RY*(   8) C  76                  0.00007     2.20006   
  1413. RY*(   9) C  76                  0.00005     2.47604   
  1414. RY*(  10) C  76                  0.00004     1.74237   
  1415. RY*(  11) C  76                  0.00002     1.60469   
  1416. RY*(  12) C  76                  0.00000    21.23714   
  1417. RY*(  13) C  76                  0.00000     2.08405   
  1418. RY*(  14) C  76                  0.00001     1.90828   
  1419. RY*(  15) C  76                  0.00000     3.20284   
  1420. RY*(  16) C  76                  0.00001     1.54763   
  1421. RY*(  17) C  76                  0.00001     2.53894   
  1422. RY*(  18) C  76                  0.00001     3.42249   
  1423. RY*(  19) C  76                  0.00000     3.57234   
  1424. RY*(  20) C  76                  0.00000     3.38357   
  1425. RY*(  21) C  76                  0.00000     3.63478   
  1426. RY*(  22) C  76                  0.00000     3.42711   
  1427. RY*(  23) C  76                  0.00000     3.42443   
  1428. RY*(  24) C  76                  0.00000     3.47456   
  1429. RY*(  25) C  76                  0.00001     4.20836   
  1430. RY*(  26) C  76                  0.00001     3.99561   
  1431. RY*(   1) H  77                  0.00041     0.65976   
  1432. RY*(   2) H  77                  0.00012     2.29081   
  1433. RY*(   3) H  77                  0.00009     2.26186   
  1434. RY*(   4) H  77                  0.00004     2.87732   
  1435. RY*(   5) H  77                  0.00001     3.11030   
  1436. RY*(   1) C  78                  0.00178     1.66767   
  1437. RY*(   2) C  78                  0.00120     1.42807   
  1438. RY*(   3) C  78                  0.00071     0.65361   
  1439. RY*(   4) C  78                  0.00066     1.26018   
  1440. RY*(   5) C  78                  0.00043     1.95821   
  1441. RY*(   6) C  78                  0.00022     1.69715   
  1442. RY*(   7) C  78                  0.00019     1.98650   
  1443. RY*(   8) C  78                  0.00013     1.48840   
  1444. RY*(   9) C  78                  0.00011     2.21927   
  1445. RY*(  10) C  78                  0.00008     2.18635   
  1446. RY*(  11) C  78                  0.00006     2.22087   
  1447. RY*(  12) C  78                  0.00005     2.77906   
  1448. RY*(  13) C  78                  0.00002     2.00233   
  1449. RY*(  14) C  78                  0.00002     1.83983   
  1450. RY*(  15) C  78                  0.00003     2.40721   
  1451. RY*(  16) C  78                  0.00000    21.24925   
  1452. RY*(  17) C  78                  0.00001     3.27520   
  1453. RY*(  18) C  78                  0.00000     3.25882   
  1454. RY*(  19) C  78                  0.00000     3.57739   
  1455. RY*(  20) C  78                  0.00000     3.38481   
  1456. RY*(  21) C  78                  0.00000     3.45818   
  1457. RY*(  22) C  78                  0.00000     3.67033   
  1458. RY*(  23) C  78                  0.00000     3.48911   
  1459. RY*(  24) C  78                  0.00000     3.50865   
  1460. RY*(  25) C  78                  0.00000     4.08546   
  1461. RY*(  26) C  78                  0.00000     3.86623   
  1462. RY*(   1) H  79                  0.00045     0.62815   
  1463. RY*(   2) H  79                  0.00014     2.38999   
  1464. RY*(   3) H  79                  0.00009     2.30370   
  1465. RY*(   4) H  79                  0.00005     2.90312   
  1466. RY*(   5) H  79                  0.00001     3.18210   
  1545. BD*(   1) C  64 - H  65          0.00507     0.37289   
  1546. BD*(   1) C  64 - H  66          0.00453     0.37377   
  1547. BD*(   1) C  64 - H  67          0.00231     0.37916   
  1548. BD*(   1) C  64 - C  68          0.00720     0.39932   
  1549. BD*(   1) C  68 - C  69          0.01149     0.55934   
  1550. BD*(   2) C  68 - C  69          0.17072     0.03829  1562(v),1556(v),1288(g)
                                                    1545(v),1546(v),1487(r)
                                                    1482(r)
  1551. BD*(   1) C  68 - C  76          0.01194     0.55118   
  1552. BD*(   1) C  69 - H  70          0.00710     0.41670   
  1553. BD*(   1) C  69 - C  71          0.00645     0.56081   
  1554. BD*(   1) C  71 - H  72          0.00678     0.40601   
  1555. BD*(   1) C  71 - C  73          0.01392     0.53440   
  1556. BD*(   2) C  71 - C  73          0.18843     0.02223  1562(v),1550(v),1320(g)
                                                    1468(r),1353(g),1471(r)
                                                    1487(r),155(r),156(r),151(r)
                                                    157(r)
  1557. BD*(   1) C  73 - O  74          0.01401     0.31031   
  1558. BD*(   1) C  73 - C  78          0.01323     0.52782   
  1559. BD*(   1) O  74 - H  75          0.00410     0.37398   
  1560. BD*(   1) C  76 - H  77          0.00720     0.41597   
  1561. BD*(   1) C  76 - C  78          0.00563     0.57631   
  1562. BD*(   2) C  76 - C  78          0.15737     0.03589  1550(v),1556(v),1407(g)
                                                    1438(g),1468(r)
  1563. BD*(   1) C  78 - H  79          0.00649     0.42873   
       -------------------------------
              Total Lewis   28.20717  ( 97.6158%)
        Valence non-Lewis    0.64397  (  2.2286%)
        Rydberg non-Lewis    0.04498  (  0.1557%)
       -------------------------------
            Total unit  3   28.89612  (100.0000%)
           Charge unit  3    0.10388
 Unable to Open any file for archive entry.
 1\1\GINC-BGN1014\SP\UAPFD\def2TZVP\C37H36Fe1N4O1(5)\BEBJONES\23-Jul-20
 24\0\\# apfd/def2TZVP guess=read scf=maxcycle=999 geom=check pop=nbo\\
 1h7k_II_Q\\0,5\Fe,0,58.7440146169,15.0540008893,17.120905528\N,0,58.46
 93722793,13.8383576989,15.5763227025\N,0,57.3159530506,14.1247761378,1
 8.1710905388\N,0,58.9404298212,16.3656845716,18.6172677697\N,0,60.1117
 590155,16.0318519983,16.0679185698\C,0,58.9512897638,13.9653793182,14.
 3091412949\C,0,58.4784726657,12.8898376921,13.4680549806\C,0,57.572872
 7798,12.2006827373,14.2103453154\C,0,57.5176478089,12.8612596236,15.49
 59243061\C,0,56.5173542989,13.1133915613,17.7221910848\C,0,55.64159125
 83,12.6491514038,18.766089511\C,0,55.8386705105,13.4858056173,19.83336
 17135\C,0,56.8282607887,14.451909071,19.4019198251\C,0,58.244746447,16
 .4101632306,19.7916687508\C,0,58.8713116891,17.3103900706,20.724598069
 8\C,0,59.8637985167,17.9469392219,20.0283943879\C,0,59.8559039758,17.3
 714038833,18.6973775635\C,0,60.9071288587,17.0422059273,16.5123259639\
 C,0,61.8167643567,17.4753218824,15.4744888839\C,0,61.6128905892,16.644
 0121138,14.4185022843\C,0,60.5248637711,15.7694554328,14.7960831396\C,
 0,59.9454430994,14.852063178,13.9410267724\H,0,60.3120107275,14.807883
 2243,12.9273344203\C,0,56.6205882456,12.5116766896,16.4813230636\H,0,5
 5.9185716399,11.7254647996,16.2523849185\C,0,57.2451273652,15.52449749
 43,20.1597655059\H,0,56.777036224,15.6702244126,21.1205770658\C,0,60.8
 40573284,17.6232277484,17.7627193267\H,0,61.5540481174,18.4008648287,1
 7.986996469\C,0,56.771930256,10.998207215,13.8491842183\H,0,57.0585085
 297,10.6241790463,12.8694052865\H,0,55.7083579034,11.2372017511,13.825
 0754017\H,0,56.9262988396,10.2063160651,14.5816971652\C,0,58.920159445
 9,12.6675233276,12.0631422334\H,0,59.996415601,12.4991693254,12.022797
 7984\H,0,58.6910061942,13.5373529674,11.4476626505\H,0,58.4201831801,1
 1.8032800405,11.6331797198\C,0,54.7693309471,11.4466605517,18.67792667
 74\H,0,55.2581247816,10.657327467,18.1089942456\H,0,53.8263495707,11.6
 859238876,18.1840995316\H,0,54.5487571071,11.0734110541,19.675918817\C
 ,0,55.2265905165,13.470060735,21.1441388934\H,0,55.8549150815,13.81684
 92477,21.9566146911\C,0,53.9852026737,13.0784035172,21.4110210712\H,0,
 53.5993322946,13.0799475233,22.4167863962\H,0,53.3021663045,12.7713460
 626,20.6386827752\C,0,58.403568763,17.56921546,22.1136200911\H,0,58.77
 77654843,16.8059195551,22.7977504969\H,0,57.315756683,17.5622299096,22
 .1627406648\H,0,58.7615149182,18.5390514583,22.4527620045\C,0,60.76637
 08984,18.9879507711,20.4672798782\H,0,61.0317561183,19.7214248086,19.7
 149472749\C,0,61.2766127122,19.1000129097,21.6890911214\H,0,61.0838412
 022,18.3732292134,22.45888611\H,0,61.9320557391,19.9129743205,21.95324
 55183\C,0,62.796219905,18.5868602142,15.6276337124\H,0,63.4914237789,1
 8.3776857668,16.4408980974\H,0,62.2799585125,19.5194446652,15.85482238
 18\H,0,63.3678845009,18.7266070883,14.7136617268\C,0,62.2817642287,16.
 623533072,13.0874299595\H,0,63.1056639882,17.3320173802,13.0589594594\
 H,0,61.5765763942,16.885545515,12.2980212482\H,0,62.67517972,15.629985
 1779,12.8739245037\C,0,59.8508905113,8.7062003405,15.4075494269\H,0,60
 .8271733024,8.2301885495,15.3228882418\H,0,59.4862639888,8.8971936589,
 14.3996017027\H,0,59.1720982474,8.0152819501,15.9007261067\C,0,59.9606
 790287,9.9914647603,16.1704694451\C,0,59.3166258956,10.1680121124,17.3
 855062148\H,0,58.7286681398,9.3634434164,17.8027830727\C,0,59.40103657
 13,11.3688464767,18.0704583241\H,0,58.8710932235,11.5007248665,19.0039
 029163\C,0,60.135172126,12.4132867106,17.5335757501\O,0,60.1922704073,
 13.6537480576,18.1448955871\H,0,59.7846745119,13.579270256,19.02200069
 09\C,0,60.7185892033,11.0421809932,15.6613746773\H,0,61.2288641656,10.
 9174985566,14.7179491543\C,0,60.8155734059,12.2418785513,16.3339983838
 \H,0,61.3762889311,13.072051214,15.9352187575\\Version=ES64L-G16RevC.0
 2\State=5-A\HF=-2988.7718656\S2=6.085845\S2-1=0.\S2A=6.002178\RMSD=3.0
 08e-09\Dipole=0.4096575,-0.9572447,-0.5686179\Quadrupole=-5.9672475,1.
 9769767,3.9902707,9.6536445,-2.769607,3.4928149\PG=C01 [X(C37H36Fe1N4O
 1)]\\@
 The archive entry for this job was punched.


 MICHAEL FARADAY, ASKED BY A POLITICIAN WHAT GOOD
 HIS ELECTRICAL DISCOVERIES WERE, REPLIED 
 "AT PRESENT I DO NOT KNOW, BUT ONE DAY YOU WILL BE
 ABLE TO TAX THEM."
 Job cpu time:       1 days  2 hours 45 minutes  9.7 seconds.
 Elapsed time:       0 days  0 hours 24 minutes 46.4 seconds.
 File lengths (MBytes):  RWF=   2254 Int=      0 D2E=      0 Chk=    205 Scr=      1
 Normal termination of Gaussian 16 at Tue Jul 23 19:41:39 2024.
