 Entering Gaussian System, Link 0=g16
 Input=1hrc01.com
 Output=1hrc01.log
 Initial command:
 /sw/chem/gaussian/g16_C02/a100/g16/l1.exe "/local/bebjones_7946894/Gau-1689782.inp" -scrdir="/local/bebjones_7946894/"
 Entering Link 1 = /sw/chem/gaussian/g16_C02/a100/g16/l1.exe PID=   1689783.
  
 Copyright (c) 1988-2021, Gaussian, Inc.  All Rights Reserved.
  
 This is part of the Gaussian(R) 16 program.  It is based on
 the Gaussian(R) 09 system (copyright 2009, Gaussian, Inc.),
 the Gaussian(R) 03 system (copyright 2003, Gaussian, Inc.),
 the Gaussian(R) 98 system (copyright 1998, Gaussian, Inc.),
 the Gaussian(R) 94 system (copyright 1995, Gaussian, Inc.),
 the Gaussian 92(TM) system (copyright 1992, Gaussian, Inc.),
 the Gaussian 90(TM) system (copyright 1990, Gaussian, Inc.),
 the Gaussian 88(TM) system (copyright 1988, Gaussian, Inc.),
 the Gaussian 86(TM) system (copyright 1986, Carnegie Mellon
 University), and the Gaussian 82(TM) system (copyright 1983,
 Carnegie Mellon University). Gaussian is a federally registered
 trademark of Gaussian, Inc.
  
 This software contains proprietary and confidential information,
 including trade secrets, belonging to Gaussian, Inc.
  
 This software is provided under written license and may be
 used, copied, transmitted, or stored only in accord with that
 written license.
  
 The following legend is applicable only to US Government
 contracts under FAR:
  
                    RESTRICTED RIGHTS LEGEND
  
 Use, reproduction and disclosure by the US Government is
 subject to restrictions as set forth in subparagraphs (a)
 and (c) of the Commercial Computer Software - Restricted
 Rights clause in FAR 52.227-19.
  
 Gaussian, Inc.
 340 Quinnipiac St., Bldg. 40, Wallingford CT 06492
  
  
 ---------------------------------------------------------------
 Warning -- This program may not be used in any manner that
 competes with the business of Gaussian, Inc. or will provide
 assistance to any competitor of Gaussian, Inc.  The licensee
 of this program is prohibited from giving any competitor of
 Gaussian, Inc. access to this program.  By using this program,
 the user acknowledges that Gaussian, Inc. is engaged in the
 business of creating and licensing software in the field of
 computational chemistry and represents and warrants to the
 licensee that it is not a competitor of Gaussian, Inc. and that
 it will not use this program in any manner prohibited above.
 ---------------------------------------------------------------
  

 Cite this work as:
 Gaussian 16, Revision C.02,
 M. J. Frisch, G. W. Trucks, H. B. Schlegel, G. E. Scuseria, 
 M. A. Robb, J. R. Cheeseman, G. Scalmani, V. Barone, 
 G. A. Petersson, H. Nakatsuji, X. Li, M. Caricato, A. V. Marenich, 
 J. Bloino, B. G. Janesko, R. Gomperts, B. Mennucci, H. P. Hratchian, 
 J. V. Ortiz, A. F. Izmaylov, J. L. Sonnenberg, D. Williams-Young, 
 F. Ding, F. Lipparini, F. Egidi, J. Goings, B. Peng, A. Petrone, 
 T. Henderson, D. Ranasinghe, V. G. Zakrzewski, J. Gao, N. Rega, 
 G. Zheng, W. Liang, M. Hada, M. Ehara, K. Toyota, R. Fukuda, 
 J. Hasegawa, M. Ishida, T. Nakajima, Y. Honda, O. Kitao, H. Nakai, 
 T. Vreven, K. Throssell, J. A. Montgomery, Jr., J. E. Peralta, 
 F. Ogliaro, M. J. Bearpark, J. J. Heyd, E. N. Brothers, K. N. Kudin, 
 V. N. Staroverov, T. A. Keith, R. Kobayashi, J. Normand, 
 K. Raghavachari, A. P. Rendell, J. C. Burant, S. S. Iyengar, 
 J. Tomasi, M. Cossi, J. M. Millam, M. Klene, C. Adamo, R. Cammi, 
 J. W. Ochterski, R. L. Martin, K. Morokuma, O. Farkas, 
 J. B. Foresman, and D. J. Fox, Gaussian, Inc., Wallingford CT, 2019.
 
 ******************************************
 Gaussian 16:  ES64L-G16RevC.02  7-Dec-2021
                23-Jul-2024 
 ******************************************
 %mem=16GB
 %CPU=0-71
 SetSPE:  set environment variable "OMP_PROC_BIND" = "true"
 SetSPE:  set environment variable "OMP_PLACES" = "{0},{1},{2},{3},{4},{5},{6},{7},{8},{9},{10},{11},{12},{13},{14},{15},{16},{17},{18},{19},{20},{21},{22},{23},{24},{25},{26},{27},{28},{29},{30},{31},{32},{33},{34},{35},{36},{37},{38},{39},{40},{41},{42},{43},{44},{45},{46},{47},{48},{49},{50},{51},{52},{53},{54},{55},{56},{57},{58},{59},{60},{61},{62},{63},{64},{65},{66},{67},{68},{69},{70},{71}"
 Will use up to   72 processors via shared memory.
 %gpucpu=0,1,2,3=0,1,2,3
 Will use    4 GPUs:
 Thread  CPU   GPU
      0    0     0
      1    1     1
      2    2     2
      3    3     3
      4    4    -1
      5    5    -1
      6    6    -1
      7    7    -1
      8    8    -1
      9    9    -1
     10   10    -1
     11   11    -1
     12   12    -1
     13   13    -1
     14   14    -1
     15   15    -1
     16   16    -1
     17   17    -1
     18   18    -1
     19   19    -1
     20   20    -1
     21   21    -1
     22   22    -1
     23   23    -1
     24   24    -1
     25   25    -1
     26   26    -1
     27   27    -1
     28   28    -1
     29   29    -1
     30   30    -1
     31   31    -1
     32   32    -1
     33   33    -1
     34   34    -1
     35   35    -1
     36   36    -1
     37   37    -1
     38   38    -1
     39   39    -1
     40   40    -1
     41   41    -1
     42   42    -1
     43   43    -1
     44   44    -1
     45   45    -1
     46   46    -1
     47   47    -1
     48   48    -1
     49   49    -1
     50   50    -1
     51   51    -1
     52   52    -1
     53   53    -1
     54   54    -1
     55   55    -1
     56   56    -1
     57   57    -1
     58   58    -1
     59   59    -1
     60   60    -1
     61   61    -1
     62   62    -1
     63   63    -1
     64   64    -1
     65   65    -1
     66   66    -1
     67   67    -1
     68   68    -1
     69   69    -1
     70   70    -1
     71   71    -1
 SetGPE:  set environment variable "OMP_PROC_BIND" = "true"
 SetGPE:  set environment variable "OMP_PLACES" = "{0},{1},{2},{3},{4},{5},{6},{7},{8},{9},{10},{11},{12},{13},{14},{15},{16},{17},{18},{19},{20},{21},{22},{23},{24},{25},{26},{27},{28},{29},{30},{31},{32},{33},{34},{35},{36},{37},{38},{39},{40},{41},{42},{43},{44},{45},{46},{47},{48},{49},{50},{51},{52},{53},{54},{55},{56},{57},{58},{59},{60},{61},{62},{63},{64},{65},{66},{67},{68},{69},{70},{71}"
 %chk=1hrc_II_O.chk
 Properties for Device   0
 Minimum vector length:                              32
 Maximum vector length:                            1024
 Number of SMPs:                                    108
 Maximum number of threads per SMP:                2048
 Number of ASync Engines:                             5
 Memory:                                           9207742464
 Properties for Device   1
 Minimum vector length:                              32
 Maximum vector length:                            1024
 Number of SMPs:                                    108
 Maximum number of threads per SMP:                2048
 Number of ASync Engines:                             5
 Memory:                                           9207742464
 Properties for Device   2
 Minimum vector length:                              32
 Maximum vector length:                            1024
 Number of SMPs:                                    108
 Maximum number of threads per SMP:                2048
 Number of ASync Engines:                             5
 Memory:                                           9207742464
 Properties for Device   3
 Minimum vector length:                              32
 Maximum vector length:                            1024
 Number of SMPs:                                    108
 Maximum number of threads per SMP:                2048
 Number of ASync Engines:                             5
 Memory:                                           9207742464
   8286968217 words of memory will be used on each GPU.
 ------------------------------------------
 # polar def2tzvp apfd int=(grid=ultrafine)
 ------------------------------------------
 1/38=1,172=1/1;
 2/12=2,17=6,18=5,40=1/2;
 3/5=44,7=101,11=2,25=1,30=1,74=-44,75=-5/1,2,3;
 4//1;
 5/5=2,38=5,98=1/2;
 8/6=4,10=90,11=11/1;
 10/6=1,13=10/2;
 6/7=2,8=2,9=2,10=2,28=1/1;
 99/5=1,9=1/99;
 ---------
 1hrc_II_S
 ---------
 Symbolic Z-matrix:
 Charge =  0 Multiplicity = 1
 Fe                    44.65661   28.0131   5.87735 
 N                     44.85746   26.46521   7.14341 
 N                     43.98141   29.08138   7.47166 
 N                     44.41886   29.64467   4.76079 
 N                     45.40774   26.99972   4.39198 
 C                     45.42153   25.28047   6.79837 
 C                     45.24311   24.31172   7.86095 
 C                     44.54942   24.93904   8.84773 
 C                     44.34782   26.29881   8.38891 
 C                     43.57367   28.58825   8.67794 
 C                     43.05947   29.64905   9.51768 
 C                     43.16222   30.79294   8.79153 
 C                     43.70825   30.4085   7.50886 
 C                     44.17492   30.91992   5.16189 
 C                     44.14743   31.81719   4.02198 
 C                     44.44567   31.0424   2.93009 
 C                     44.64232   29.70409   3.41916 
 C                     45.47745   27.41146   3.0948 
 C                     46.13783   26.39311   2.29352 
 C                     46.48952   25.39442   3.16386 
 C                     45.99761   25.78301   4.45948 
 C                     46.06343   25.00196   5.60538 
 H                     46.54794   24.04314   5.51529 
 C                     43.6579   27.27299   9.08689 
 H                     43.24792   27.0128   10.0496 
 C                     43.87987   31.29181   6.45847 
 H                     43.66268   32.33411   6.6549 
 C                     45.04038   28.63664   2.62283 
 H                     45.17558   28.84261   1.57491 
 C                     45.72712   22.90558   7.80313 
 H                     46.80297   22.88206   7.63343 
 H                     45.24284   22.36713   6.98693 
 H                     45.51438   22.3818   8.7327 
 C                     44.08029   24.41252   10.16215 
 H                     42.99596   24.48523   10.25017 
 H                     44.51913   24.97847   10.9836 
 H                     44.36163   23.37072   10.28491 
 C                     47.18251   24.11179   2.85644 
 H                     46.52908   23.26767   3.07456 
 H                     48.08792   23.99298   3.45304 
 H                     47.45398   24.06203   1.80557 
 C                     46.36669   26.41813   0.86234 
 H                     47.31636   26.01756   0.52475 
 C                     45.49248   26.84534  -0.0411 
 H                     44.51643   27.1989   0.24285 
 H                     45.70784   26.83264  -1.09692 
 C                     44.59197   31.46866   1.51509 
 H                     43.67524   31.28149   0.95262 
 H                     45.40114   30.92748   1.02878 
 H                     44.80956   32.53261   1.46757 
 C                     43.86408   33.23396   4.08393 
 H                     44.17401   33.73462   4.99346 
 C                     43.26004   33.95102   3.13994 
 H                     42.8789   33.51229   2.23457 
 H                     43.10289   35.01215   3.24949 
 C                     42.82662   32.19019   9.17446 
 H                     42.10437   32.61312   8.47829 
 H                     43.71788   32.81846   9.16227 
 H                     42.40281   32.21956   10.17348 
 C                     42.57039   29.45809   10.91128 
 H                     41.82974   28.66035   10.95284 
 H                     42.11468   30.37133   11.28853 
 H                     43.39528   29.18861   11.57369 
 C                     49.90242   30.0422   5.74945 
 H                     50.73566   29.38533   5.99804 
 H                     50.04552   30.98512   6.27762 
 H                     49.91843   30.23788   4.68217 
 N                     48.31303   29.09906   7.43091 
 H                     48.91797   29.22887   8.22525 
 C                     48.60616   29.42614   6.13211 
 C                     47.05826   28.59899   7.45293 
 H                     46.55505   28.23819   8.32586 
 N                     46.53652   28.59352   6.25364 
 C                     47.49014   29.096    5.41607 
 H                     47.32834   29.17796   4.36028 
 C                     40.5798   28.74311   6.71504 
 H                     41.27267   28.81342   7.54796 
 H                     39.97753   27.84681   6.84329 
 H                     39.92885   29.61445   6.72699 
 C                     41.34046   28.68297   5.4058 
 H                     41.95917   29.56775   5.2681 
 H                     40.65932   28.57281   4.56291 
 S                     42.44689   27.21424   5.39267 
 C                     42.2843   26.79258   3.6274 
 H                     42.58797   27.63176   3.00992 
 H                     41.24913   26.52273   3.43486 
 H                     42.92814   25.9421   3.43269 
 
 Stoichiometry    C37H42FeN6S
 Framework group  C1[X(C37H42FeN6S)]
 Deg. of freedom   255
 Full point group                 C1      NOp   1
 Largest Abelian subgroup         C1      NOp   1
 Largest concise Abelian subgroup C1      NOp   1
                         Standard orientation:                         
 ---------------------------------------------------------------------
 Center     Atomic      Atomic             Coordinates (Angstroms)
 Number     Number       Type             X           Y           Z
 ---------------------------------------------------------------------
      1         26           0       -0.211975   -0.130086   -0.093598
      2          7           0       -1.897905   -1.221562   -0.019214
      3          7           0       -1.398169    1.507394    0.131206
      4          7           0        1.361482    1.089865   -0.128498
      5          7           0        0.908734   -1.720779   -0.199384
      6          6           0       -1.914569   -2.578059    0.002462
      7          6           0       -3.271584   -3.065293   -0.140754
      8          6           0       -4.068313   -1.970058   -0.259706
      9          6           0       -3.188078   -0.824356   -0.147142
     10          6           0       -2.753744    1.567297   -0.021689
     11          6           0       -3.224847    2.929138    0.113573
     12          6           0       -2.124417    3.690988    0.348081
     13          6           0       -0.995532    2.787609    0.321378
     14          6           0        1.418356    2.411375    0.182960
     15          6           0        2.782310    2.898351    0.095010
     16          6           0        3.549039    1.805463   -0.219949
     17          6           0        2.648159    0.688691   -0.320811
     18          6           0        2.255975   -1.739925   -0.403445
     19          6           0        2.734111   -3.113287   -0.382286
     20          6           0        1.637930   -3.892706   -0.118731
     21          6           0        0.508588   -3.004047   -0.038210
     22          6           0       -0.811272   -3.403310    0.123049
     23          1           0       -0.992276   -4.461276    0.223738
     24          6           0       -3.593507    0.494391   -0.240579
     25          1           0       -4.641873    0.692901   -0.395865
     26          6           0        0.317816    3.206211    0.434964
     27          1           0        0.480965    4.257983    0.633242
     28          6           0        3.056090   -0.620335   -0.549012
     29          1           0        4.112392   -0.778340   -0.683566
     30          6           0       -3.646023   -4.505283   -0.173427
     31          1           0       -3.304174   -5.006100    0.731632
     32          1           0       -3.186549   -5.001114   -1.029974
     33          1           0       -4.724857   -4.625739   -0.246170
     34          6           0       -5.545963   -1.885308   -0.445127
     35          1           0       -5.796785   -1.360171   -1.367145
     36          1           0       -6.008414   -1.345671    0.381067
     37          1           0       -5.988545   -2.876203   -0.487789
     38          6           0        1.574509   -5.376632   -0.001185
     39          1           0        0.947391   -5.791561   -0.789617
     40          1           0        1.151180   -5.684650    0.955757
     41          1           0        2.564578   -5.813959   -0.096092
     42          6           0        4.090872   -3.570910   -0.608220
     43          1           0        4.424829   -4.395724    0.011819
     44          6           0        4.912873   -3.088951   -1.532880
     45          1           0        4.605840   -2.309076   -2.208035
     46          1           0        5.910834   -3.472573   -1.667780
     47          6           0        5.023033    1.736216   -0.386846
     48          1           0        5.301051    1.790617   -1.441143
     49          1           0        5.415636    0.805008    0.016698
     50          1           0        5.495777    2.565384    0.133326
     51          6           0        3.193360    4.267737    0.312261
     52          1           0        2.603181    4.826179    1.029044
     53          6           0        4.207673    4.882982   -0.290064
     54          1           0        4.803803    4.408536   -1.049656
     55          1           0        4.467928    5.903466   -0.058597
     56          6           0       -2.022928    5.151224    0.610729
     57          1           0       -1.364009    5.624159   -0.115443
     58          1           0       -1.619570    5.337182    1.606686
     59          1           0       -3.000853    5.618214    0.546628
     60          6           0       -4.655420    3.336638    0.041681
     61          1           0       -5.120291    2.949697   -0.864334
     62          1           0       -4.747923    4.420817    0.040373
     63          1           0       -5.208656    2.947245    0.898514
     64          6           0        1.601938   -0.509216    5.218474
     65          1           0        1.285907   -1.352484    5.832151
     66          1           0        1.491463    0.399957    5.809857
     67          1           0        2.650463   -0.633335    4.967821
     68          7           0       -0.566965   -0.237018    4.008200
     69          1           0       -1.134271   -0.152950    4.835777
     70          6           0        0.791355   -0.420792    3.976949
     71          6           0       -0.998415   -0.161510    2.730247
     72          1           0       -2.018668   -0.037575    2.431715
     73          7           0       -0.000894   -0.280027    1.892719
     74          6           0        1.120894   -0.452423    2.651197
     75          1           0        2.084939   -0.601029    2.208341
     76          6           0       -1.450127    2.380456   -3.258906
     77          1           0       -2.058455    2.387456   -2.359659
     78          1           0       -2.005056    1.874961   -4.045703
     79          1           0       -1.260128    3.408036   -3.560730
     80          6           0       -0.139154    1.666674   -2.997787
     81          1           0        0.423169    2.152912   -2.202829
     82          1           0        0.465806    1.617416   -3.902302
     83         16           0       -0.464136   -0.067224   -2.478644
     84          6           0        0.962664   -0.847563   -3.300671
     85          1           0        1.888809   -0.403748   -2.949948
     86          1           0        0.851275   -0.717544   -4.374056
     87          1           0        0.945787   -1.903469   -3.054645
 ---------------------------------------------------------------------
 Rotational constants (GHZ):           0.0837013           0.0816416           0.0590341
 Standard basis: def2TZVP (5D, 7F)
 There are  1894 symmetry adapted cartesian basis functions of A   symmetry.
 There are  1667 symmetry adapted basis functions of A   symmetry.
  1667 basis functions,  2700 primitive gaussians,  1894 cartesian basis functions
   174 alpha electrons      174 beta electrons
       nuclear repulsion energy      7166.6599791475 Hartrees.
 NAtoms=   87 NActive=   87 NUniq=   87 SFac= 1.00D+00 NAtFMM=   60 NAOKFM=T Big=T
 Integral buffers will be    131072 words long.
 Raffenetti 2 integral format.
 Two-electron integral symmetry is turned on.
 R6APFD:  NTU= -4 IXU= 1 FactS= 1.050
 Nuclear repulsion after empirical dispersion term =     7166.4757675018 Hartrees.
 One-electron integrals computed using PRISM.
   1 Symmetry operations used in ECPInt.
 ECPInt:  NShTT=  224115 NPrTT=  692067 LenC2=  178802 LenP2D=  364099.
 LDataN:  DoStor=T MaxTD1= 6 Len=  172
 Number of processors reduced to  21 by ecpmxn.
 NBasis=  1667 RedAO= T EigKep=  3.47D-06  NBF=  1667
 NBsUse=  1667 1.00D-06 EigRej= -1.00D+00 NBFU=  1667
 ExpMin= 4.20D-02 ExpMax= 3.01D+05 ExpMxC= 2.91D+03 IAcc=3 IRadAn=         5 AccDes= 0.00D+00
 Harris functional with IExCor= 3731 and IRadAn=       5 diagonalized for initial guess.
 HarFok:  IExCor= 3731 AccDes= 0.00D+00 IRadAn=         5 IDoV= 1 UseB2=F ITyADJ=14
 ICtDFT=  3500011 ScaDFX=  1.000000  1.000000  1.000000  1.000000
 FoFCou: FMM=F IPFlag=           0 FMFlag=      100000 FMFlg1=        2001
         NFxFlg=           0 DoJE=T BraDBF=F KetDBF=T FulRan=T
         wScrn=  0.000000 ICntrl=       500 IOpCl=  0 I1Cent=   200000004 NGrid=           0
         NMat0=    1 NMatS0=      1 NMatT0=    0 NMatD0=    1 NMtDS0=    0 NMtDT0=    0
 Petite list used in FoFCou.
 Requested convergence on RMS density matrix=1.00D-08 within 128 cycles.
 Requested convergence on MAX density matrix=1.00D-06.
 Requested convergence on             energy=1.00D-06.
 No special actions if energy rises.
 EnCoef did     2 forward-backward iterations
 EnCoef did   100 forward-backward iterations
 EnCoef did   100 forward-backward iterations
 EnCoef did   100 forward-backward iterations
 EnCoef did   100 forward-backward iterations
 EnCoef did     6 forward-backward iterations
 EnCoef did     6 forward-backward iterations
 EnCoef did     3 forward-backward iterations
 EnCoef did     5 forward-backward iterations
 Restarting incremental Fock formation.
 SCF Done:  E(RAPFD) =  -3424.84561035     A.U. after   29 cycles
            NFock= 29  Conv=0.16D-08     -V/T= 2.0033
 DoSCS=F DFT=T ScalE2(SS,OS)=  1.000000  1.000000
 Range of M.O.s used for correlation:     1  1667
 NBasis=  1667 NAE=   174 NBE=   174 NFC=     0 NFV=     0
 NROrb=   1667 NOA=   174 NOB=   174 NVA=  1493 NVB=  1493

 **** Warning!!: The largest alpha MO coefficient is  0.50298832D+02

          Differentiating once with respect to electric field.
                with respect to dipole field.
          Electric field/nuclear overlap derivatives assumed to be zero.
          There are     3 degrees of freedom in the 1st order CPHF.  IDoFFX=0 NUNeed=     3.
      3 vectors produced by pass  0 Test12= 8.66D-12 3.33D-08 XBig12= 1.89D+03 2.21D+01.
 AX will form     3 AO Fock derivatives at one time.
      3 vectors produced by pass  1 Test12= 8.66D-12 3.33D-08 XBig12= 1.35D+03 7.16D+00.
      3 vectors produced by pass  2 Test12= 8.66D-12 3.33D-08 XBig12= 4.12D+02 3.38D+00.
      3 vectors produced by pass  3 Test12= 8.66D-12 3.33D-08 XBig12= 3.97D+02 5.97D+00.
      3 vectors produced by pass  4 Test12= 8.66D-12 3.33D-08 XBig12= 3.46D+02 3.34D+00.
      3 vectors produced by pass  5 Test12= 8.66D-12 3.33D-08 XBig12= 1.42D+02 2.11D+00.
      3 vectors produced by pass  6 Test12= 8.66D-12 3.33D-08 XBig12= 7.54D+01 1.80D+00.
      3 vectors produced by pass  7 Test12= 8.66D-12 3.33D-08 XBig12= 4.18D+01 1.27D+00.
      3 vectors produced by pass  8 Test12= 8.66D-12 3.33D-08 XBig12= 1.78D+01 6.69D-01.
      3 vectors produced by pass  9 Test12= 8.66D-12 3.33D-08 XBig12= 6.39D+00 4.96D-01.
      3 vectors produced by pass 10 Test12= 8.66D-12 3.33D-08 XBig12= 2.48D+00 2.84D-01.
      3 vectors produced by pass 11 Test12= 8.66D-12 3.33D-08 XBig12= 1.38D+00 2.39D-01.
      3 vectors produced by pass 12 Test12= 8.66D-12 3.33D-08 XBig12= 6.66D-01 1.87D-01.
      3 vectors produced by pass 13 Test12= 8.66D-12 3.33D-08 XBig12= 3.34D-01 8.95D-02.
      3 vectors produced by pass 14 Test12= 8.66D-12 3.33D-08 XBig12= 1.23D-01 4.64D-02.
      3 vectors produced by pass 15 Test12= 8.66D-12 3.33D-08 XBig12= 3.99D-02 3.52D-02.
      3 vectors produced by pass 16 Test12= 8.66D-12 3.33D-08 XBig12= 1.45D-02 2.22D-02.
      3 vectors produced by pass 17 Test12= 8.66D-12 3.33D-08 XBig12= 6.34D-03 1.46D-02.
      3 vectors produced by pass 18 Test12= 8.66D-12 3.33D-08 XBig12= 1.51D-03 7.80D-03.
      3 vectors produced by pass 19 Test12= 8.66D-12 3.33D-08 XBig12= 3.38D-04 3.62D-03.
      3 vectors produced by pass 20 Test12= 8.66D-12 3.33D-08 XBig12= 9.02D-05 2.21D-03.
      3 vectors produced by pass 21 Test12= 8.66D-12 3.33D-08 XBig12= 2.31D-05 1.28D-03.
      3 vectors produced by pass 22 Test12= 8.66D-12 3.33D-08 XBig12= 5.43D-06 6.29D-04.
      3 vectors produced by pass 23 Test12= 8.66D-12 3.33D-08 XBig12= 1.40D-06 2.41D-04.
      3 vectors produced by pass 24 Test12= 8.66D-12 3.33D-08 XBig12= 4.56D-07 1.45D-04.
      3 vectors produced by pass 25 Test12= 8.66D-12 3.33D-08 XBig12= 9.97D-08 4.76D-05.
      3 vectors produced by pass 26 Test12= 8.66D-12 3.33D-08 XBig12= 1.72D-08 1.70D-05.
      3 vectors produced by pass 27 Test12= 8.66D-12 3.33D-08 XBig12= 2.67D-09 7.22D-06.
      3 vectors produced by pass 28 Test12= 8.66D-12 3.33D-08 XBig12= 5.06D-10 2.36D-06.
      3 vectors produced by pass 29 Test12= 8.66D-12 3.33D-08 XBig12= 9.77D-11 1.36D-06.
      3 vectors produced by pass 30 Test12= 8.66D-12 3.33D-08 XBig12= 2.00D-11 7.22D-07.
      3 vectors produced by pass 31 Test12= 8.66D-12 3.33D-08 XBig12= 3.70D-12 2.50D-07.
      2 vectors produced by pass 32 Test12= 8.66D-12 3.33D-08 XBig12= 3.94D-13 8.21D-08.
 InvSVY:  IOpt=1 It=  1 EMax= 2.13D-14
 Solved reduced A of dimension    98 with     3 vectors.
 Isotropic polarizability for W=    0.000000      606.62 Bohr**3.
 End of Minotr F.D. properties file   721 does not exist.
 End of Minotr F.D. properties file   722 does not exist.
 End of Minotr F.D. properties file   788 does not exist.

 **********************************************************************

            Population analysis using the SCF Density.

 **********************************************************************

 Orbital symmetries:
       Occupied  (A) (A) (A) (A) (A) (A) (A) (A) (A) (A) (A) (A)
                 (A) (A) (A) (A) (A) (A) (A) (A) (A) (A) (A) (A)
                 (A) (A) (A) (A) (A) (A) (A) (A) (A) (A) (A) (A)
                 (A) (A) (A) (A) (A) (A) (A) (A) (A) (A) (A) (A)
                 (A) (A) (A) (A) (A) (A) (A) (A) (A) (A) (A) (A)
                 (A) (A) (A) (A) (A) (A) (A) (A) (A) (A) (A) (A)
                 (A) (A) (A) (A) (A) (A) (A) (A) (A) (A) (A) (A)
                 (A) (A) (A) (A) (A) (A) (A) (A) (A) (A) (A) (A)
                 (A) (A) (A) (A) (A) (A) (A) (A) (A) (A) (A) (A)
                 (A) (A) (A) (A) (A) (A) (A) (A) (A) (A) (A) (A)
                 (A) (A) (A) (A) (A) (A) (A) (A) (A) (A) (A) (A)
                 (A) (A) (A) (A) (A) (A) (A) (A) (A) (A) (A) (A)
                 (A) (A) (A) (A) (A) (A) (A) (A) (A) (A) (A) (A)
                 (A) (A) (A) (A) (A) (A) (A) (A) (A) (A) (A) (A)
                 (A) (A) (A) (A) (A) (A)
       Virtual   (A) (A) (A) (A) (A) (A) (A) (A) (A) (A) (A) (A)
                 (A) (A) (A) (A) (A) (A) (A) (A) (A) (A) (A) (A)
                 (A) (A) (A) (A) (A) (A) (A) (A) (A) (A) (A) (A)
                 (A) (A) (A) (A) (A) (A) (A) (A) (A) (A) (A) (A)
                 (A) (A) (A) (A) (A) (A) (A) (A) (A) (A) (A) (A)
                 (A) (A) (A) (A) (A) (A) (A) (A) (A) (A) (A) (A)
                 (A) (A) (A) (A) (A) (A) (A) (A) (A) (A) (A) (A)
                 (A) (A) (A) (A) (A) (A) (A) (A) (A) (A) (A) (A)
                 (A) (A) (A) (A) (A) (A) (A) (A) (A) (A) (A) (A)
                 (A) (A) (A) (A) (A) (A) (A) (A) (A) (A) (A) (A)
                 (A) (A) (A) (A) (A) (A) (A) (A) (A) (A) (A) (A)
                 (A) (A) (A) (A) (A) (A) (A) (A) (A) (A) (A) (A)
                 (A) (A) (A) (A) (A) (A) (A) (A) (A) (A) (A) (A)
                 (A) (A) (A) (A) (A) (A) (A) (A) (A) (A) (A) (A)
                 (A) (A) (A) (A) (A) (A) (A) (A) (A) (A) (A) (A)
                 (A) (A) (A) (A) (A) (A) (A) (A) (A) (A) (A) (A)
                 (A) (A) (A) (A) (A) (A) (A) (A) (A) (A) (A) (A)
                 (A) (A) (A) (A) (A) (A) (A) (A) (A) (A) (A) (A)
                 (A) (A) (A) (A) (A) (A) (A) (A) (A) (A) (A) (A)
                 (A) (A) (A) (A) (A) (A) (A) (A) (A) (A) (A) (A)
                 (A) (A) (A) (A) (A) (A) (A) (A) (A) (A) (A) (A)
                 (A) (A) (A) (A) (A) (A) (A) (A) (A) (A) (A) (A)
                 (A) (A) (A) (A) (A) (A) (A) (A) (A) (A) (A) (A)
                 (A) (A) (A) (A) (A) (A) (A) (A) (A) (A) (A) (A)
                 (A) (A) (A) (A) (A) (A) (A) (A) (A) (A) (A) (A)
                 (A) (A) (A) (A) (A) (A) (A) (A) (A) (A) (A) (A)
                 (A) (A) (A) (A) (A) (A) (A) (A) (A) (A) (A) (A)
                 (A) (A) (A) (A) (A) (A) (A) (A) (A) (A) (A) (A)
                 (A) (A) (A) (A) (A) (A) (A) (A) (A) (A) (A) (A)
                 (A) (A) (A) (A) (A) (A) (A) (A) (A) (A) (A) (A)
                 (A) (A) (A) (A) (A) (A) (A) (A) (A) (A) (A) (A)
                 (A) (A) (A) (A) (A) (A) (A) (A) (A) (A) (A) (A)
                 (A) (A) (A) (A) (A) (A) (A) (A) (A) (A) (A) (A)
                 (A) (A) (A) (A) (A) (A) (A) (A) (A) (A) (A) (A)
                 (A) (A) (A) (A) (A) (A) (A) (A) (A) (A) (A) (A)
                 (A) (A) (A) (A) (A) (A) (A) (A) (A) (A) (A) (A)
                 (A) (A) (A) (A) (A) (A) (A) (A) (A) (A) (A) (A)
                 (A) (A) (A) (A) (A) (A) (A) (A) (A) (A) (A) (A)
                 (A) (A) (A) (A) (A) (A) (A) (A) (A) (A) (A) (A)
                 (A) (A) (A) (A) (A) (A) (A) (A) (A) (A) (A) (A)
                 (A) (A) (A) (A) (A) (A) (A) (A) (A) (A) (A) (A)
                 (A) (A) (A) (A) (A) (A) (A) (A) (A) (A) (A) (A)
                 (A) (A) (A) (A) (A) (A) (A) (A) (A) (A) (A) (A)
                 (A) (A) (A) (A) (A) (A) (A) (A) (A) (A) (A) (A)
                 (A) (A) (A) (A) (A) (A) (A) (A) (A) (A) (A) (A)
                 (A) (A) (A) (A) (A) (A) (A) (A) (A) (A) (A) (A)
                 (A) (A) (A) (A) (A) (A) (A) (A) (A) (A) (A) (A)
                 (A) (A) (A) (A) (A) (A) (A) (A) (A) (A) (A) (A)
                 (A) (A) (A) (A) (A) (A) (A) (A) (A) (A) (A) (A)
                 (A) (A) (A) (A) (A) (A) (A) (A) (A) (A) (A) (A)
                 (A) (A) (A) (A) (A) (A) (A) (A) (A) (A) (A) (A)
                 (A) (A) (A) (A) (A) (A) (A) (A) (A) (A) (A) (A)
                 (A) (A) (A) (A) (A) (A) (A) (A) (A) (A) (A) (A)
                 (A) (A) (A) (A) (A) (A) (A) (A) (A) (A) (A) (A)
                 (A) (A) (A) (A) (A) (A) (A) (A) (A) (A) (A) (A)
                 (A) (A) (A) (A) (A) (A) (A) (A) (A) (A) (A) (A)
                 (A) (A) (A) (A) (A) (A) (A) (A) (A) (A) (A) (A)
                 (A) (A) (A) (A) (A) (A) (A) (A) (A) (A) (A) (A)
                 (A) (A) (A) (A) (A) (A) (A) (A) (A) (A) (A) (A)
                 (A) (A) (A) (A) (A) (A) (A) (A) (A) (A) (A) (A)
                 (A) (A) (A) (A) (A) (A) (A) (A) (A) (A) (A) (A)
                 (A) (A) (A) (A) (A) (A) (A) (A) (A) (A) (A) (A)
                 (A) (A) (A) (A) (A) (A) (A) (A) (A) (A) (A) (A)
                 (A) (A) (A) (A) (A) (A) (A) (A) (A) (A) (A) (A)
                 (A) (A) (A) (A) (A) (A) (A) (A) (A) (A) (A) (A)
                 (A) (A) (A) (A) (A) (A) (A) (A) (A) (A) (A) (A)
                 (A) (A) (A) (A) (A) (A) (A) (A) (A) (A) (A) (A)
                 (A) (A) (A) (A) (A) (A) (A) (A) (A) (A) (A) (A)
                 (A) (A) (A) (A) (A) (A) (A) (A) (A) (A) (A) (A)
                 (A) (A) (A) (A) (A) (A) (A) (A) (A) (A) (A) (A)
                 (A) (A) (A) (A) (A) (A) (A) (A) (A) (A) (A) (A)
                 (A) (A) (A) (A) (A) (A) (A) (A) (A) (A) (A) (A)
                 (A) (A) (A) (A) (A) (A) (A) (A) (A) (A) (A) (A)
                 (A) (A) (A) (A) (A) (A) (A) (A) (A) (A) (A) (A)
                 (A) (A) (A) (A) (A) (A) (A) (A) (A) (A) (A) (A)
                 (A) (A) (A) (A) (A) (A) (A) (A) (A) (A) (A) (A)
                 (A) (A) (A) (A) (A) (A) (A) (A) (A) (A) (A) (A)
                 (A) (A) (A) (A) (A) (A) (A) (A) (A) (A) (A) (A)
                 (A) (A) (A) (A) (A) (A) (A) (A) (A) (A) (A) (A)
                 (A) (A) (A) (A) (A) (A) (A) (A) (A) (A) (A) (A)
                 (A) (A) (A) (A) (A) (A) (A) (A) (A) (A) (A) (A)
                 (A) (A) (A) (A) (A) (A) (A) (A) (A) (A) (A) (A)
                 (A) (A) (A) (A) (A) (A) (A) (A) (A) (A) (A) (A)
                 (A) (A) (A) (A) (A) (A) (A) (A) (A) (A) (A) (A)
                 (A) (A) (A) (A) (A) (A) (A) (A) (A) (A) (A) (A)
                 (A) (A) (A) (A) (A) (A) (A) (A) (A) (A) (A) (A)
                 (A) (A) (A) (A) (A) (A) (A) (A) (A) (A) (A) (A)
                 (A) (A) (A) (A) (A) (A) (A) (A) (A) (A) (A) (A)
                 (A) (A) (A) (A) (A) (A) (A) (A) (A) (A) (A) (A)
                 (A) (A) (A) (A) (A) (A) (A) (A) (A) (A) (A) (A)
                 (A) (A) (A) (A) (A) (A) (A) (A) (A) (A) (A) (A)
                 (A) (A) (A) (A) (A) (A) (A) (A) (A) (A) (A) (A)
                 (A) (A) (A) (A) (A) (A) (A) (A) (A) (A) (A) (A)
                 (A) (A) (A) (A) (A) (A) (A) (A) (A) (A) (A) (A)
                 (A) (A) (A) (A) (A) (A) (A) (A) (A) (A) (A) (A)
                 (A) (A) (A) (A) (A) (A) (A) (A) (A) (A) (A) (A)
                 (A) (A) (A) (A) (A) (A) (A) (A) (A) (A) (A) (A)
                 (A) (A) (A) (A) (A) (A) (A) (A) (A) (A) (A) (A)
                 (A) (A) (A) (A) (A) (A) (A) (A) (A) (A) (A) (A)
                 (A) (A) (A) (A) (A) (A) (A) (A) (A) (A) (A) (A)
                 (A) (A) (A) (A) (A) (A) (A) (A) (A) (A) (A) (A)
                 (A) (A) (A) (A) (A) (A) (A) (A) (A) (A) (A) (A)
                 (A) (A) (A) (A) (A) (A) (A) (A) (A) (A) (A) (A)
                 (A) (A) (A) (A) (A) (A) (A) (A) (A) (A) (A) (A)
                 (A) (A) (A) (A) (A) (A) (A) (A) (A) (A) (A) (A)
                 (A) (A) (A) (A) (A) (A) (A) (A) (A) (A) (A) (A)
                 (A) (A) (A) (A) (A) (A) (A) (A) (A) (A) (A) (A)
                 (A) (A) (A) (A) (A) (A) (A) (A) (A) (A) (A) (A)
                 (A) (A) (A) (A) (A) (A) (A) (A) (A) (A) (A) (A)
                 (A) (A) (A) (A) (A) (A) (A) (A) (A) (A) (A) (A)
                 (A) (A) (A) (A) (A) (A) (A) (A) (A) (A) (A) (A)
                 (A) (A) (A) (A) (A) (A) (A) (A) (A) (A) (A) (A)
                 (A) (A) (A) (A) (A) (A) (A) (A) (A) (A) (A) (A)
                 (A) (A) (A) (A) (A) (A) (A) (A) (A) (A) (A) (A)
                 (A) (A) (A) (A) (A) (A) (A) (A) (A) (A) (A) (A)
                 (A) (A) (A) (A) (A) (A) (A) (A) (A) (A) (A) (A)
                 (A) (A) (A) (A) (A) (A) (A) (A) (A) (A) (A) (A)
                 (A) (A) (A) (A) (A) (A) (A) (A) (A) (A) (A) (A)
                 (A) (A) (A) (A) (A) (A) (A) (A) (A) (A) (A) (A)
                 (A) (A) (A) (A) (A) (A) (A) (A) (A) (A) (A) (A)
                 (A) (A) (A) (A) (A) (A) (A) (A) (A) (A) (A) (A)
                 (A) (A) (A) (A) (A) (A) (A) (A) (A) (A) (A) (A)
                 (A) (A) (A) (A) (A) (A) (A) (A) (A) (A) (A) (A)
                 (A) (A) (A) (A) (A) (A) (A) (A) (A) (A) (A) (A)
                 (A) (A) (A) (A) (A)
 The electronic state is 1-A.
 Alpha  occ. eigenvalues -- -256.17388 -88.94040 -30.02499 -25.86635 -25.86277
 Alpha  occ. eigenvalues --  -25.86225 -14.41436 -14.35822 -14.33244 -14.33114
 Alpha  occ. eigenvalues --  -14.32965 -14.32804 -10.25036 -10.23505 -10.21050
 Alpha  occ. eigenvalues --  -10.20953 -10.20888 -10.20681 -10.20678 -10.20670
 Alpha  occ. eigenvalues --  -10.20665 -10.20647 -10.20599 -10.20514 -10.20500
 Alpha  occ. eigenvalues --  -10.20372 -10.19695 -10.19509 -10.18949 -10.18840
 Alpha  occ. eigenvalues --  -10.18647 -10.18621 -10.18581 -10.18515 -10.18501
 Alpha  occ. eigenvalues --  -10.18477 -10.18430 -10.18423 -10.18403 -10.18402
 Alpha  occ. eigenvalues --  -10.18334 -10.18285 -10.18242 -10.18185 -10.18177
 Alpha  occ. eigenvalues --  -10.18170 -10.18145 -10.18048 -10.17196  -7.96699
 Alpha  occ. eigenvalues --   -5.91293  -5.91000  -5.90467  -3.39926  -2.16500
 Alpha  occ. eigenvalues --   -2.15834  -2.15741  -1.05061  -0.96836  -0.95889
 Alpha  occ. eigenvalues --   -0.95804  -0.94846  -0.90606  -0.82137  -0.81815
 Alpha  occ. eigenvalues --   -0.81447  -0.81385  -0.80589  -0.80206  -0.80013
 Alpha  occ. eigenvalues --   -0.79506  -0.79340  -0.76816  -0.75692  -0.74554
 Alpha  occ. eigenvalues --   -0.74146  -0.73780  -0.73045  -0.71649  -0.70687
 Alpha  occ. eigenvalues --   -0.69928  -0.68081  -0.67760  -0.67653  -0.64977
 Alpha  occ. eigenvalues --   -0.64254  -0.64133  -0.63799  -0.61035  -0.60599
 Alpha  occ. eigenvalues --   -0.60188  -0.58674  -0.57394  -0.56525  -0.55793
 Alpha  occ. eigenvalues --   -0.54289  -0.54079  -0.53277  -0.52012  -0.51144
 Alpha  occ. eigenvalues --   -0.50572  -0.50251  -0.48452  -0.47954  -0.47618
 Alpha  occ. eigenvalues --   -0.47343  -0.47121  -0.46750  -0.46081  -0.44656
 Alpha  occ. eigenvalues --   -0.44604  -0.44308  -0.44231  -0.43659  -0.43616
 Alpha  occ. eigenvalues --   -0.43303  -0.43204  -0.43080  -0.43016  -0.42735
 Alpha  occ. eigenvalues --   -0.42573  -0.42365  -0.42272  -0.41950  -0.41931
 Alpha  occ. eigenvalues --   -0.41532  -0.41399  -0.41348  -0.41172  -0.40174
 Alpha  occ. eigenvalues --   -0.40155  -0.39934  -0.39493  -0.39316  -0.39148
 Alpha  occ. eigenvalues --   -0.38839  -0.38620  -0.38251  -0.37788  -0.37672
 Alpha  occ. eigenvalues --   -0.37527  -0.36985  -0.36812  -0.36605  -0.36096
 Alpha  occ. eigenvalues --   -0.35779  -0.35412  -0.35046  -0.34398  -0.34101
 Alpha  occ. eigenvalues --   -0.33855  -0.33674  -0.33158  -0.31944  -0.31610
 Alpha  occ. eigenvalues --   -0.31328  -0.30924  -0.29861  -0.29448  -0.28876
 Alpha  occ. eigenvalues --   -0.28396  -0.26667  -0.26489  -0.24867  -0.24276
 Alpha  occ. eigenvalues --   -0.23671  -0.22836  -0.22201  -0.21985  -0.19095
 Alpha  occ. eigenvalues --   -0.17834  -0.17747  -0.17531  -0.17456
 Alpha virt. eigenvalues --   -0.06407  -0.06395  -0.01901   0.00465   0.01757
 Alpha virt. eigenvalues --    0.02002   0.02313   0.03173   0.03588   0.04049
 Alpha virt. eigenvalues --    0.04789   0.05092   0.05410   0.05580   0.05959
 Alpha virt. eigenvalues --    0.06160   0.06608   0.06858   0.07105   0.07821
 Alpha virt. eigenvalues --    0.07955   0.08217   0.08226   0.08797   0.09087
 Alpha virt. eigenvalues --    0.09170   0.09574   0.09754   0.09943   0.10247
 Alpha virt. eigenvalues --    0.10556   0.10865   0.11247   0.11467   0.11603
 Alpha virt. eigenvalues --    0.11976   0.12174   0.12292   0.12515   0.12612
 Alpha virt. eigenvalues --    0.12939   0.13179   0.13414   0.13510   0.13663
 Alpha virt. eigenvalues --    0.13819   0.14338   0.14443   0.14530   0.14774
 Alpha virt. eigenvalues --    0.14905   0.15013   0.15288   0.15364   0.15554
 Alpha virt. eigenvalues --    0.15772   0.15947   0.16175   0.16219   0.16334
 Alpha virt. eigenvalues --    0.16676   0.17152   0.17343   0.17532   0.17586
 Alpha virt. eigenvalues --    0.17798   0.17944   0.18143   0.18350   0.18755
 Alpha virt. eigenvalues --    0.19350   0.19542   0.19830   0.20037   0.20209
 Alpha virt. eigenvalues --    0.20537   0.20642   0.20780   0.21045   0.21330
 Alpha virt. eigenvalues --    0.21801   0.22039   0.22301   0.22384   0.22682
 Alpha virt. eigenvalues --    0.22962   0.23248   0.23569   0.23651   0.23919
 Alpha virt. eigenvalues --    0.24539   0.24689   0.25014   0.25346   0.25417
 Alpha virt. eigenvalues --    0.25763   0.25873   0.26057   0.26655   0.26705
 Alpha virt. eigenvalues --    0.26881   0.27012   0.27405   0.27999   0.28296
 Alpha virt. eigenvalues --    0.28380   0.28581   0.28788   0.28849   0.29185
 Alpha virt. eigenvalues --    0.29681   0.29850   0.29956   0.30226   0.30549
 Alpha virt. eigenvalues --    0.30684   0.30799   0.31026   0.31272   0.31390
 Alpha virt. eigenvalues --    0.31721   0.32194   0.32242   0.32685   0.33009
 Alpha virt. eigenvalues --    0.33131   0.33468   0.33787   0.34032   0.34235
 Alpha virt. eigenvalues --    0.34366   0.34739   0.35034   0.35094   0.35286
 Alpha virt. eigenvalues --    0.35801   0.35820   0.36411   0.36523   0.36924
 Alpha virt. eigenvalues --    0.37223   0.37571   0.37755   0.37883   0.38207
 Alpha virt. eigenvalues --    0.38343   0.38576   0.38752   0.39019   0.39656
 Alpha virt. eigenvalues --    0.39767   0.39836   0.40042   0.40283   0.40612
 Alpha virt. eigenvalues --    0.40840   0.40893   0.41027   0.41213   0.41471
 Alpha virt. eigenvalues --    0.41534   0.41800   0.41861   0.42179   0.42558
 Alpha virt. eigenvalues --    0.42795   0.42900   0.42989   0.43416   0.43553
 Alpha virt. eigenvalues --    0.43669   0.43866   0.43986   0.44238   0.44367
 Alpha virt. eigenvalues --    0.44496   0.44761   0.45102   0.45309   0.45497
 Alpha virt. eigenvalues --    0.45793   0.45977   0.46052   0.46207   0.46439
 Alpha virt. eigenvalues --    0.46461   0.46674   0.47030   0.47089   0.47199
 Alpha virt. eigenvalues --    0.47300   0.47674   0.47745   0.47976   0.48142
 Alpha virt. eigenvalues --    0.48295   0.48467   0.48705   0.48717   0.48868
 Alpha virt. eigenvalues --    0.49009   0.49290   0.49552   0.49722   0.49900
 Alpha virt. eigenvalues --    0.50020   0.50297   0.50525   0.50785   0.51036
 Alpha virt. eigenvalues --    0.51213   0.51292   0.51420   0.51576   0.51809
 Alpha virt. eigenvalues --    0.52009   0.52265   0.52433   0.52633   0.52924
 Alpha virt. eigenvalues --    0.53467   0.53667   0.53766   0.54038   0.54191
 Alpha virt. eigenvalues --    0.54285   0.54610   0.54889   0.54933   0.55178
 Alpha virt. eigenvalues --    0.55650   0.55856   0.55992   0.56259   0.56414
 Alpha virt. eigenvalues --    0.56745   0.56935   0.57128   0.57473   0.57639
 Alpha virt. eigenvalues --    0.57929   0.58226   0.58459   0.58950   0.59039
 Alpha virt. eigenvalues --    0.59556   0.59810   0.60076   0.60669   0.60792
 Alpha virt. eigenvalues --    0.61016   0.61078   0.61311   0.61558   0.62042
 Alpha virt. eigenvalues --    0.62256   0.62751   0.63089   0.63272   0.63337
 Alpha virt. eigenvalues --    0.64053   0.64279   0.64307   0.64659   0.64811
 Alpha virt. eigenvalues --    0.65230   0.65392   0.65696   0.66300   0.66396
 Alpha virt. eigenvalues --    0.66658   0.67214   0.67496   0.67688   0.68151
 Alpha virt. eigenvalues --    0.68271   0.68539   0.68744   0.69191   0.69640
 Alpha virt. eigenvalues --    0.69804   0.69917   0.70251   0.70739   0.70833
 Alpha virt. eigenvalues --    0.71600   0.71874   0.72221   0.72378   0.72617
 Alpha virt. eigenvalues --    0.72787   0.73126   0.73303   0.73405   0.73615
 Alpha virt. eigenvalues --    0.74188   0.74853   0.74895   0.75279   0.75663
 Alpha virt. eigenvalues --    0.75787   0.76151   0.76485   0.77057   0.77180
 Alpha virt. eigenvalues --    0.77444   0.77778   0.78183   0.78265   0.78929
 Alpha virt. eigenvalues --    0.79034   0.79372   0.79653   0.79994   0.80521
 Alpha virt. eigenvalues --    0.80548   0.80761   0.81214   0.81592   0.81963
 Alpha virt. eigenvalues --    0.82667   0.82789   0.83091   0.83196   0.83551
 Alpha virt. eigenvalues --    0.83780   0.84079   0.84386   0.85228   0.85554
 Alpha virt. eigenvalues --    0.85768   0.86031   0.86930   0.86977   0.87211
 Alpha virt. eigenvalues --    0.87372   0.87413   0.88096   0.88381   0.88756
 Alpha virt. eigenvalues --    0.89162   0.89771   0.90211   0.90342   0.90516
 Alpha virt. eigenvalues --    0.90904   0.91106   0.91229   0.92031   0.92553
 Alpha virt. eigenvalues --    0.92732   0.92913   0.93192   0.93459   0.93643
 Alpha virt. eigenvalues --    0.94051   0.94210   0.94639   0.94880   0.95124
 Alpha virt. eigenvalues --    0.95250   0.95496   0.95838   0.95911   0.96404
 Alpha virt. eigenvalues --    0.96754   0.97212   0.97233   0.98165   0.98365
 Alpha virt. eigenvalues --    0.98496   0.98961   0.99145   0.99646   1.00121
 Alpha virt. eigenvalues --    1.00354   1.00608   1.00721   1.01100   1.01758
 Alpha virt. eigenvalues --    1.01899   1.02051   1.02535   1.02651   1.02917
 Alpha virt. eigenvalues --    1.03348   1.03665   1.03922   1.04198   1.04385
 Alpha virt. eigenvalues --    1.04936   1.05206   1.05697   1.05887   1.06015
 Alpha virt. eigenvalues --    1.06376   1.06398   1.06702   1.07227   1.07647
 Alpha virt. eigenvalues --    1.08004   1.08606   1.08669   1.09058   1.09256
 Alpha virt. eigenvalues --    1.09585   1.10849   1.10978   1.11099   1.11498
 Alpha virt. eigenvalues --    1.11604   1.12109   1.12624   1.13100   1.13382
 Alpha virt. eigenvalues --    1.13785   1.14124   1.14317   1.14677   1.14827
 Alpha virt. eigenvalues --    1.15368   1.16127   1.16170   1.16461   1.17029
 Alpha virt. eigenvalues --    1.17221   1.17678   1.17953   1.18454   1.18722
 Alpha virt. eigenvalues --    1.19066   1.19388   1.19875   1.20313   1.20663
 Alpha virt. eigenvalues --    1.20736   1.21212   1.21679   1.22035   1.22178
 Alpha virt. eigenvalues --    1.22641   1.22932   1.23614   1.23700   1.24324
 Alpha virt. eigenvalues --    1.24569   1.25113   1.25523   1.25734   1.26152
 Alpha virt. eigenvalues --    1.26468   1.26682   1.27321   1.27425   1.28151
 Alpha virt. eigenvalues --    1.28315   1.28870   1.28886   1.29029   1.29466
 Alpha virt. eigenvalues --    1.29685   1.29958   1.30518   1.30669   1.31260
 Alpha virt. eigenvalues --    1.31490   1.32192   1.32530   1.33056   1.33362
 Alpha virt. eigenvalues --    1.34038   1.34637   1.34723   1.34900   1.35751
 Alpha virt. eigenvalues --    1.36429   1.36845   1.37271   1.37799   1.38050
 Alpha virt. eigenvalues --    1.38763   1.39322   1.39580   1.40228   1.40846
 Alpha virt. eigenvalues --    1.41502   1.41717   1.41894   1.42544   1.43321
 Alpha virt. eigenvalues --    1.43769   1.43916   1.44439   1.44579   1.45362
 Alpha virt. eigenvalues --    1.45811   1.46055   1.46682   1.47387   1.47549
 Alpha virt. eigenvalues --    1.47873   1.48203   1.48435   1.48535   1.49137
 Alpha virt. eigenvalues --    1.49643   1.50134   1.50343   1.50515   1.51230
 Alpha virt. eigenvalues --    1.51356   1.51410   1.51891   1.52279   1.52369
 Alpha virt. eigenvalues --    1.52558   1.52625   1.53045   1.53514   1.53624
 Alpha virt. eigenvalues --    1.54077   1.54212   1.54573   1.54677   1.55062
 Alpha virt. eigenvalues --    1.55529   1.55718   1.55870   1.55995   1.56369
 Alpha virt. eigenvalues --    1.56487   1.56575   1.56742   1.57117   1.57444
 Alpha virt. eigenvalues --    1.57694   1.57765   1.58134   1.58412   1.58645
 Alpha virt. eigenvalues --    1.58910   1.58997   1.59401   1.59529   1.60029
 Alpha virt. eigenvalues --    1.60141   1.60440   1.60770   1.61060   1.61304
 Alpha virt. eigenvalues --    1.61618   1.62020   1.62217   1.62417   1.62615
 Alpha virt. eigenvalues --    1.63026   1.63310   1.63928   1.63975   1.64426
 Alpha virt. eigenvalues --    1.64744   1.65055   1.65289   1.65393   1.65773
 Alpha virt. eigenvalues --    1.66131   1.66288   1.66536   1.67240   1.67740
 Alpha virt. eigenvalues --    1.67749   1.68053   1.68152   1.68494   1.68889
 Alpha virt. eigenvalues --    1.69252   1.69637   1.69743   1.70369   1.70481
 Alpha virt. eigenvalues --    1.70854   1.71068   1.71387   1.71782   1.71994
 Alpha virt. eigenvalues --    1.72156   1.72391   1.73071   1.73316   1.73566
 Alpha virt. eigenvalues --    1.73764   1.74185   1.74633   1.74878   1.75130
 Alpha virt. eigenvalues --    1.75363   1.75716   1.76249   1.76610   1.77345
 Alpha virt. eigenvalues --    1.77821   1.78147   1.78806   1.78926   1.79110
 Alpha virt. eigenvalues --    1.80131   1.80176   1.80666   1.81478   1.81665
 Alpha virt. eigenvalues --    1.82188   1.82691   1.83011   1.83587   1.83880
 Alpha virt. eigenvalues --    1.84331   1.84757   1.85119   1.85643   1.85901
 Alpha virt. eigenvalues --    1.86334   1.86475   1.87146   1.87416   1.87621
 Alpha virt. eigenvalues --    1.88016   1.88465   1.88669   1.88793   1.89471
 Alpha virt. eigenvalues --    1.89976   1.90041   1.90323   1.91356   1.91795
 Alpha virt. eigenvalues --    1.92029   1.92246   1.93057   1.93400   1.94325
 Alpha virt. eigenvalues --    1.94460   1.94717   1.95094   1.95589   1.96087
 Alpha virt. eigenvalues --    1.96250   1.96482   1.97101   1.97480   1.97964
 Alpha virt. eigenvalues --    1.98673   1.99109   1.99565   1.99804   2.00341
 Alpha virt. eigenvalues --    2.00494   2.00817   2.01130   2.01386   2.01630
 Alpha virt. eigenvalues --    2.02078   2.02221   2.02932   2.03112   2.03947
 Alpha virt. eigenvalues --    2.04105   2.04375   2.05031   2.05709   2.05936
 Alpha virt. eigenvalues --    2.06764   2.06866   2.07526   2.07757   2.08506
 Alpha virt. eigenvalues --    2.08619   2.09315   2.09548   2.09794   2.10414
 Alpha virt. eigenvalues --    2.10911   2.11043   2.11558   2.11910   2.12170
 Alpha virt. eigenvalues --    2.12480   2.13073   2.13478   2.13651   2.14620
 Alpha virt. eigenvalues --    2.14790   2.15116   2.15353   2.15841   2.16179
 Alpha virt. eigenvalues --    2.16660   2.16885   2.17114   2.17532   2.18167
 Alpha virt. eigenvalues --    2.18694   2.19232   2.19285   2.19629   2.19670
 Alpha virt. eigenvalues --    2.20477   2.20747   2.21139   2.21664   2.21788
 Alpha virt. eigenvalues --    2.22063   2.22403   2.22672   2.23073   2.23439
 Alpha virt. eigenvalues --    2.23753   2.25164   2.25317   2.25787   2.26105
 Alpha virt. eigenvalues --    2.26667   2.26943   2.27633   2.27727   2.28057
 Alpha virt. eigenvalues --    2.28549   2.29082   2.29322   2.29660   2.29997
 Alpha virt. eigenvalues --    2.30271   2.30589   2.31190   2.31739   2.31836
 Alpha virt. eigenvalues --    2.32296   2.32445   2.32993   2.33740   2.34135
 Alpha virt. eigenvalues --    2.34595   2.35001   2.35127   2.35751   2.36230
 Alpha virt. eigenvalues --    2.36771   2.36954   2.37349   2.37479   2.37860
 Alpha virt. eigenvalues --    2.38192   2.38387   2.38953   2.39113   2.39437
 Alpha virt. eigenvalues --    2.39923   2.40074   2.40807   2.41101   2.41506
 Alpha virt. eigenvalues --    2.42095   2.42670   2.43201   2.43403   2.43635
 Alpha virt. eigenvalues --    2.44227   2.44639   2.45150   2.45344   2.45558
 Alpha virt. eigenvalues --    2.46113   2.46503   2.46768   2.47070   2.47594
 Alpha virt. eigenvalues --    2.47710   2.47923   2.48724   2.48972   2.49275
 Alpha virt. eigenvalues --    2.49751   2.50193   2.50655   2.50854   2.51200
 Alpha virt. eigenvalues --    2.51632   2.52173   2.52402   2.52834   2.52990
 Alpha virt. eigenvalues --    2.53698   2.53972   2.54379   2.54657   2.55352
 Alpha virt. eigenvalues --    2.55509   2.55939   2.56169   2.56400   2.57123
 Alpha virt. eigenvalues --    2.57205   2.57443   2.57812   2.57977   2.58125
 Alpha virt. eigenvalues --    2.58857   2.59152   2.59261   2.59558   2.59907
 Alpha virt. eigenvalues --    2.60241   2.60410   2.60875   2.61116   2.61428
 Alpha virt. eigenvalues --    2.61812   2.61995   2.62832   2.63017   2.63312
 Alpha virt. eigenvalues --    2.63776   2.64396   2.64743   2.65051   2.65163
 Alpha virt. eigenvalues --    2.65483   2.65996   2.66132   2.66461   2.66692
 Alpha virt. eigenvalues --    2.67072   2.67220   2.67753   2.68085   2.68409
 Alpha virt. eigenvalues --    2.68611   2.69201   2.69437   2.69854   2.70164
 Alpha virt. eigenvalues --    2.70615   2.70802   2.71056   2.71734   2.71885
 Alpha virt. eigenvalues --    2.72319   2.72919   2.73393   2.73676   2.74160
 Alpha virt. eigenvalues --    2.74270   2.74762   2.75238   2.75470   2.76095
 Alpha virt. eigenvalues --    2.76317   2.76980   2.77056   2.77627   2.78061
 Alpha virt. eigenvalues --    2.78300   2.78742   2.79191   2.79808   2.79963
 Alpha virt. eigenvalues --    2.80260   2.80785   2.81140   2.81734   2.82047
 Alpha virt. eigenvalues --    2.82256   2.82790   2.82939   2.83251   2.83682
 Alpha virt. eigenvalues --    2.84010   2.84526   2.85156   2.85268   2.85515
 Alpha virt. eigenvalues --    2.85662   2.86029   2.86498   2.86944   2.87279
 Alpha virt. eigenvalues --    2.87593   2.88149   2.88853   2.88957   2.89750
 Alpha virt. eigenvalues --    2.89840   2.90365   2.90732   2.91142   2.91546
 Alpha virt. eigenvalues --    2.91844   2.92126   2.92342   2.92429   2.92963
 Alpha virt. eigenvalues --    2.93532   2.93920   2.94215   2.94643   2.94943
 Alpha virt. eigenvalues --    2.95430   2.95652   2.95941   2.96383   2.96625
 Alpha virt. eigenvalues --    2.97156   2.97708   2.97888   2.98397   2.98537
 Alpha virt. eigenvalues --    2.99105   2.99148   2.99529   2.99723   3.00294
 Alpha virt. eigenvalues --    3.00748   3.00925   3.01041   3.01461   3.01731
 Alpha virt. eigenvalues --    3.02151   3.02893   3.02985   3.03600   3.03842
 Alpha virt. eigenvalues --    3.04229   3.04774   3.05075   3.05307   3.05680
 Alpha virt. eigenvalues --    3.06130   3.06568   3.06858   3.07249   3.07703
 Alpha virt. eigenvalues --    3.07837   3.08286   3.08522   3.09097   3.09413
 Alpha virt. eigenvalues --    3.09996   3.10132   3.10693   3.10839   3.11004
 Alpha virt. eigenvalues --    3.11200   3.11471   3.11994   3.12144   3.12197
 Alpha virt. eigenvalues --    3.12617   3.12911   3.13154   3.13270   3.13866
 Alpha virt. eigenvalues --    3.14370   3.14643   3.14785   3.14932   3.15801
 Alpha virt. eigenvalues --    3.15824   3.16470   3.16554   3.16732   3.16857
 Alpha virt. eigenvalues --    3.17161   3.17481   3.18115   3.18221   3.18274
 Alpha virt. eigenvalues --    3.18761   3.19055   3.19667   3.19818   3.20010
 Alpha virt. eigenvalues --    3.20165   3.20802   3.20871   3.21240   3.21349
 Alpha virt. eigenvalues --    3.21844   3.22270   3.22381   3.22888   3.23192
 Alpha virt. eigenvalues --    3.23365   3.23513   3.24038   3.24725   3.24775
 Alpha virt. eigenvalues --    3.24867   3.25183   3.25358   3.25644   3.25962
 Alpha virt. eigenvalues --    3.26105   3.26516   3.26901   3.26971   3.27368
 Alpha virt. eigenvalues --    3.27397   3.27709   3.27933   3.28312   3.28627
 Alpha virt. eigenvalues --    3.28752   3.29023   3.29299   3.29420   3.29983
 Alpha virt. eigenvalues --    3.30318   3.30547   3.30741   3.30901   3.31058
 Alpha virt. eigenvalues --    3.31241   3.31441   3.31651   3.31788   3.32186
 Alpha virt. eigenvalues --    3.32610   3.32809   3.33078   3.33371   3.33778
 Alpha virt. eigenvalues --    3.34053   3.34460   3.34507   3.34847   3.35246
 Alpha virt. eigenvalues --    3.35354   3.35860   3.35967   3.36424   3.36600
 Alpha virt. eigenvalues --    3.36829   3.36865   3.37067   3.37733   3.37928
 Alpha virt. eigenvalues --    3.38107   3.38411   3.38440   3.38702   3.38993
 Alpha virt. eigenvalues --    3.39103   3.39382   3.40065   3.40130   3.40324
 Alpha virt. eigenvalues --    3.40568   3.40881   3.41141   3.41241   3.41911
 Alpha virt. eigenvalues --    3.41985   3.42642   3.42670   3.43310   3.43367
 Alpha virt. eigenvalues --    3.43714   3.44313   3.44608   3.44940   3.45018
 Alpha virt. eigenvalues --    3.45783   3.45983   3.46186   3.46682   3.47105
 Alpha virt. eigenvalues --    3.47679   3.48235   3.48403   3.48489   3.48698
 Alpha virt. eigenvalues --    3.49298   3.49817   3.50425   3.50986   3.51105
 Alpha virt. eigenvalues --    3.51613   3.51849   3.52011   3.52729   3.53261
 Alpha virt. eigenvalues --    3.53486   3.53817   3.54411   3.54876   3.55384
 Alpha virt. eigenvalues --    3.55666   3.55973   3.56559   3.56985   3.57368
 Alpha virt. eigenvalues --    3.57765   3.57900   3.58160   3.58664   3.59107
 Alpha virt. eigenvalues --    3.59359   3.59729   3.60212   3.60572   3.60975
 Alpha virt. eigenvalues --    3.61264   3.61777   3.62576   3.62685   3.62929
 Alpha virt. eigenvalues --    3.63376   3.63870   3.64395   3.64969   3.65236
 Alpha virt. eigenvalues --    3.65690   3.66007   3.66264   3.66751   3.67004
 Alpha virt. eigenvalues --    3.67453   3.67877   3.68772   3.69017   3.69172
 Alpha virt. eigenvalues --    3.69332   3.69874   3.70205   3.70789   3.70972
 Alpha virt. eigenvalues --    3.71129   3.71529   3.71942   3.72008   3.72391
 Alpha virt. eigenvalues --    3.72942   3.73140   3.73935   3.74379   3.74504
 Alpha virt. eigenvalues --    3.74882   3.74930   3.75590   3.75931   3.75992
 Alpha virt. eigenvalues --    3.76778   3.77064   3.78263   3.78460   3.79016
 Alpha virt. eigenvalues --    3.79794   3.80026   3.80466   3.80541   3.81486
 Alpha virt. eigenvalues --    3.81662   3.82485   3.82649   3.83268   3.83303
 Alpha virt. eigenvalues --    3.83910   3.84638   3.85054   3.85845   3.86136
 Alpha virt. eigenvalues --    3.86715   3.87595   3.88279   3.88752   3.89017
 Alpha virt. eigenvalues --    3.89175   3.90690   3.91088   3.91495   3.92282
 Alpha virt. eigenvalues --    3.92471   3.92682   3.93091   3.93680   3.94859
 Alpha virt. eigenvalues --    3.95753   3.95961   3.96482   3.96743   3.97905
 Alpha virt. eigenvalues --    3.98389   3.98712   3.98760   4.00120   4.00290
 Alpha virt. eigenvalues --    4.00504   4.01020   4.01534   4.02069   4.02467
 Alpha virt. eigenvalues --    4.03078   4.03375   4.04395   4.04466   4.05407
 Alpha virt. eigenvalues --    4.05735   4.06270   4.06684   4.06909   4.07511
 Alpha virt. eigenvalues --    4.08003   4.08577   4.09965   4.10385   4.11240
 Alpha virt. eigenvalues --    4.11965   4.12579   4.12771   4.13846   4.14950
 Alpha virt. eigenvalues --    4.15941   4.16269   4.16697   4.17198   4.17683
 Alpha virt. eigenvalues --    4.18474   4.18918   4.19453   4.20052   4.20604
 Alpha virt. eigenvalues --    4.20771   4.20940   4.21144   4.21676   4.22921
 Alpha virt. eigenvalues --    4.23420   4.23869   4.24598   4.25020   4.25529
 Alpha virt. eigenvalues --    4.25953   4.26738   4.26835   4.27668   4.27930
 Alpha virt. eigenvalues --    4.29167   4.29514   4.29733   4.30337   4.31385
 Alpha virt. eigenvalues --    4.31559   4.32168   4.32640   4.33368   4.33651
 Alpha virt. eigenvalues --    4.34525   4.34621   4.35172   4.36147   4.36337
 Alpha virt. eigenvalues --    4.36459   4.36794   4.37361   4.38074   4.38453
 Alpha virt. eigenvalues --    4.38684   4.39752   4.40229   4.40755   4.40929
 Alpha virt. eigenvalues --    4.41321   4.41399   4.42248   4.42599   4.43152
 Alpha virt. eigenvalues --    4.43553   4.43778   4.44049   4.44675   4.45090
 Alpha virt. eigenvalues --    4.45586   4.46044   4.46745   4.47515   4.47572
 Alpha virt. eigenvalues --    4.47996   4.48631   4.49045   4.49325   4.50187
 Alpha virt. eigenvalues --    4.51350   4.52050   4.52417   4.53632   4.54504
 Alpha virt. eigenvalues --    4.55045   4.55752   4.56110   4.56613   4.57081
 Alpha virt. eigenvalues --    4.57769   4.58473   4.58877   4.59466   4.60809
 Alpha virt. eigenvalues --    4.62219   4.64174   4.64679   4.65445   4.66743
 Alpha virt. eigenvalues --    4.67269   4.68720   4.69050   4.69233   4.70092
 Alpha virt. eigenvalues --    4.70786   4.71129   4.71811   4.72418   4.73053
 Alpha virt. eigenvalues --    4.73523   4.74044   4.75021   4.75436   4.76298
 Alpha virt. eigenvalues --    4.76904   4.77326   4.79109   4.80614   4.80952
 Alpha virt. eigenvalues --    4.82373   4.82892   4.83252   4.84316   4.84573
 Alpha virt. eigenvalues --    4.85304   4.86155   4.86857   4.87200   4.87503
 Alpha virt. eigenvalues --    4.87876   4.89060   4.89935   4.90171   4.91382
 Alpha virt. eigenvalues --    4.92165   4.93907   4.94162   4.95641   4.95753
 Alpha virt. eigenvalues --    4.96795   4.97492   4.98078   4.98132   4.99289
 Alpha virt. eigenvalues --    5.00400   5.00991   5.02545   5.02924   5.03593
 Alpha virt. eigenvalues --    5.03947   5.04727   5.05806   5.06912   5.07643
 Alpha virt. eigenvalues --    5.08519   5.08751   5.09429   5.10013   5.13010
 Alpha virt. eigenvalues --    5.13503   5.13675   5.14205   5.16274   5.18178
 Alpha virt. eigenvalues --    5.19553   5.20735   5.21158   5.22809   5.22993
 Alpha virt. eigenvalues --    5.23263   5.24640   5.27038   5.28557   5.29352
 Alpha virt. eigenvalues --    5.30070   5.30779   5.31924   5.32836   5.35195
 Alpha virt. eigenvalues --    5.37014   5.38916   5.39666   5.39852   5.40374
 Alpha virt. eigenvalues --    5.41048   5.42503   5.42976   5.43342   5.45343
 Alpha virt. eigenvalues --    5.47756   5.48954   5.50607   5.51481   5.51826
 Alpha virt. eigenvalues --    5.52775   5.54182   5.55574   5.57957   5.61451
 Alpha virt. eigenvalues --    5.62058   5.62799   5.63668   5.64320   5.64753
 Alpha virt. eigenvalues --    5.65925   5.67017   5.67214   5.68049   5.69799
 Alpha virt. eigenvalues --    5.71265   5.77508   5.78218   5.79322   5.82418
 Alpha virt. eigenvalues --    5.85971   5.87414   5.94053   5.94713   5.98381
 Alpha virt. eigenvalues --    5.99696   6.01794   6.02965   6.04115   6.04143
 Alpha virt. eigenvalues --    6.10466   6.14045   6.16067   6.16406   6.18201
 Alpha virt. eigenvalues --    6.19150   6.22846   6.28150   6.34501   6.36078
 Alpha virt. eigenvalues --    6.42009   9.29892   9.46960   9.57312  20.03534
 Alpha virt. eigenvalues --   22.35327  22.37326  22.41821  22.44291  22.46276
 Alpha virt. eigenvalues --   22.46713  22.49051  22.53850  22.54549  22.55196
 Alpha virt. eigenvalues --   22.61768  22.62618  22.81720  22.86646  22.87346
 Alpha virt. eigenvalues --   22.92930  22.96072  22.96907  22.98171  23.00068
 Alpha virt. eigenvalues --   23.03620  23.04576  23.12417  23.13908  23.28135
 Alpha virt. eigenvalues --   23.29369  23.31285  23.32942  23.43335  23.43611
 Alpha virt. eigenvalues --   23.51945  23.53051  23.56914  23.74593  23.79327
 Alpha virt. eigenvalues --   23.80219  23.89840  32.42542  32.85884  32.96015
 Alpha virt. eigenvalues --   33.05254  33.08192  33.15426
          Condensed to atoms (all electrons):
 Mulliken charges:
               1
     1  Fe  -0.473070
     2  N   -0.003398
     3  N   -0.001216
     4  N    0.008547
     5  N    0.060110
     6  C    0.208704
     7  C   -0.003458
     8  C   -0.058646
     9  C    0.189655
    10  C    0.127723
    11  C   -0.001263
    12  C   -0.016597
    13  C    0.182221
    14  C    0.181491
    15  C    0.072801
    16  C   -0.049023
    17  C    0.286073
    18  C    0.180019
    19  C    0.170100
    20  C   -0.090218
    21  C    0.219366
    22  C   -0.453824
    23  H    0.133318
    24  C   -0.375682
    25  H    0.132452
    26  C   -0.413469
    27  H    0.114114
    28  C   -0.643908
    29  H    0.145799
    30  C   -0.423299
    31  H    0.131442
    32  H    0.141105
    33  H    0.117798
    34  C   -0.421250
    35  H    0.137817
    36  H    0.132274
    37  H    0.119512
    38  C   -0.404298
    39  H    0.138688
    40  H    0.135124
    41  H    0.123618
    42  C   -0.256026
    43  H    0.115754
    44  C   -0.292832
    45  H    0.138655
    46  H    0.121931
    47  C   -0.447054
    48  H    0.138550
    49  H    0.130219
    50  H    0.156187
    51  C   -0.209592
    52  H    0.110195
    53  C   -0.286900
    54  H    0.138490
    55  H    0.121045
    56  C   -0.414720
    57  H    0.139617
    58  H    0.133315
    59  H    0.117973
    60  C   -0.429968
    61  H    0.135389
    62  H    0.120704
    63  H    0.136605
    64  C   -0.395695
    65  H    0.134631
    66  H    0.134845
    67  H    0.146073
    68  N   -0.230422
    69  H    0.233873
    70  C    0.178860
    71  C    0.012706
    72  H    0.172588
    73  N    0.074939
    74  C   -0.220914
    75  H    0.155489
    76  C   -0.346722
    77  H    0.147449
    78  H    0.111968
    79  H    0.110439
    80  C   -0.156058
    81  H    0.142238
    82  H    0.116437
    83  S    0.026210
    84  C   -0.377015
    85  H    0.147640
    86  H    0.152752
    87  H    0.152904
 Sum of Mulliken charges =  -0.00000
 Mulliken charges with hydrogens summed into heavy atoms:
               1
     1  Fe  -0.473070
     2  N   -0.003398
     3  N   -0.001216
     4  N    0.008547
     5  N    0.060110
     6  C    0.208704
     7  C   -0.003458
     8  C   -0.058646
     9  C    0.189655
    10  C    0.127723
    11  C   -0.001263
    12  C   -0.016597
    13  C    0.182221
    14  C    0.181491
    15  C    0.072801
    16  C   -0.049023
    17  C    0.286073
    18  C    0.180019
    19  C    0.170100
    20  C   -0.090218
    21  C    0.219366
    22  C   -0.320506
    24  C   -0.243230
    26  C   -0.299355
    28  C   -0.498110
    30  C   -0.032954
    34  C   -0.031647
    38  C   -0.006868
    42  C   -0.140273
    44  C   -0.032247
    47  C   -0.022099
    51  C   -0.099397
    53  C   -0.027365
    56  C   -0.023815
    60  C   -0.037271
    64  C    0.019855
    68  N    0.003451
    70  C    0.178860
    71  C    0.185294
    73  N    0.074939
    74  C   -0.065425
    76  C    0.023134
    80  C    0.102617
    83  S    0.026210
    84  C    0.076281
 Electronic spatial extent (au):  <R**2>=          21427.4840
 Charge=             -0.0000 electrons
 Dipole moment (field-independent basis, Debye):
    X=             -1.0396    Y=             -0.2564    Z=              3.7721  Tot=              3.9212
 Quadrupole moment (field-independent basis, Debye-Ang):
   XX=           -268.0483   YY=           -270.6877   ZZ=           -249.6317
   XY=             -2.7984   XZ=             -6.6103   YZ=             -2.4043
 Traceless Quadrupole moment (field-independent basis, Debye-Ang):
   XX=             -5.2591   YY=             -7.8985   ZZ=             13.1575
   XY=             -2.7984   XZ=             -6.6103   YZ=             -2.4043
 Octapole moment (field-independent basis, Debye-Ang**2):
  XXX=            -43.4364  YYY=            -17.1787  ZZZ=            132.8596  XYY=            -22.4749
  XXY=             -9.9133  XXZ=              0.6006  XZZ=             -8.9004  YZZ=             -1.4036
  YYZ=             13.2928  XYZ=             -9.9077
 Hexadecapole moment (field-independent basis, Debye-Ang**3):
 XXXX=         -12157.3664 YYYY=         -11679.9389 ZZZZ=          -4412.4076 XXXY=            -52.2429
 XXXZ=            -70.4370 YYYX=            -14.6398 YYYZ=             20.0077 ZZZX=           -107.7058
 ZZZY=            -70.0055 XXYY=          -3985.7901 XXZZ=          -2934.3596 YYZZ=          -2960.7611
 XXYZ=            -40.5581 YYXZ=             35.5981 ZZXY=             -5.7654
 N-N= 7.166475767502D+03 E-N=-2.238933552308D+04  KE= 3.413623235166D+03
  Exact polarizability:     725.705      11.501     707.081     -20.182       8.032     387.071
 Approx polarizability:    1393.821      19.944    1348.362     -61.340      28.207     610.980

 ----------------------------------------------------------------------

 Electric dipole moment (input orientation):
 (Debye = 10**-18 statcoulomb cm , SI units = C m)
                  (au)            (Debye)         (10**-30 SI)
   Tot        0.154271D+01      0.392117D+01      0.130796D+02
   x          0.129703D+01      0.329673D+01      0.109967D+02
   y          0.235752D+00      0.599222D+00      0.199879D+01
   z          0.801290D+00      0.203668D+01      0.679362D+01

 Dipole polarizability, Alpha (input orientation).
 (esu units = cm**3 , SI units = C**2 m**2 J**-1)
 Alpha(0;0):
               (au)            (10**-24 esu)      (10**-40 SI)
   iso        0.606619D+03      0.898916D+02      0.100018D+03
   aniso      0.332454D+03      0.492645D+02      0.548142D+02
   xx         0.436344D+03      0.646595D+02      0.719434D+02
   yx        -0.927769D+02     -0.137481D+02     -0.152968D+02
   yy         0.684093D+03      0.101372D+03      0.112792D+03
   zx        -0.699850D+02     -0.103707D+02     -0.115390D+02
   zy        -0.391472D+02     -0.580102D+01     -0.645450D+01
   zz         0.699420D+03      0.103643D+03      0.115319D+03

 First dipole hyperpolarizability, Beta (input orientation).
 ||, _|_  parallel and perpendicular components, (z) with respect to z axis,
 vector components x,y,z.  Values do not include the 1/n! factor of 1/2.
 (esu units = statvolt**-1 cm**4 , SI units = C**3 m**3 J**-2)
 Beta(0;0,0):
               (au)            (10**-30 esu)      (10**-50 SI)
   || (z)    -0.854925D+03     -0.738589D+01     -0.274120D+01
   _|_(z)    -0.284975D+03     -0.246196D+01     -0.913733D+00
   x          0.728522D+03      0.629387D+01      0.233591D+01
   y          0.236009D+04      0.203893D+02      0.756729D+01
   z         -0.427462D+04     -0.369294D+02     -0.137060D+02
   ||         0.987384D+03      0.853023D+01      0.316591D+01
   xxx        0.256592D+03      0.221676D+01      0.822727D+00
   xxy        0.580871D+02      0.501828D+00      0.186248D+00
   yxy       -0.131860D+03     -0.113916D+01     -0.422789D+00
   yyy        0.939440D+03      0.811603D+01      0.301219D+01
   xxz       -0.348498D+02     -0.301075D+00     -0.111741D+00
   yxz        0.265543D+03      0.229409D+01      0.851428D+00
   yyz       -0.619214D+03     -0.534952D+01     -0.198542D+01
   zxz        0.118108D+03      0.102036D+01      0.378698D+00
   zyz       -0.210832D+03     -0.182143D+01     -0.676004D+00
   zzz       -0.770811D+03     -0.665921D+01     -0.247150D+01

 ----------------------------------------------------------------------

 Dipole orientation:
    26         31.31475116         43.29023502         84.80859942
     7         29.75356206         40.01239204         85.92337149
     7         27.92867484         44.92544942         85.60919496
     7         32.58774191         46.68650609         83.80607714
     7         34.59571479         41.71357102         84.25139402
     6         31.06111792         37.81748143         86.13876834
     6         29.34739116         35.73659554         86.61850053
     6         26.97833720         36.72973150         86.66606822
     6         27.28628535         39.42453578         86.28810629
     6         25.67888934         43.72469439         86.00299303
     6         23.65557086         45.53815792         86.31660994
     6         24.73032832         47.85986500         86.09744847
     6         27.38146219         47.42769511         85.59497184
     6         31.50017931         48.98247700         84.18046749
     6         33.14010637         50.98559175         83.27705149
     6         35.30010214         49.81162149         82.45541529
     6         34.93566479         47.14879360         82.86141756
     6         36.66131558         42.84315190         83.20782169
     6         38.76447406         41.07419775         83.17646522
     6         37.89667660         38.90841352         84.30109971
     6         35.27899402         39.33591637         84.90346206
     6         33.64973486         37.54119587         85.90721405
     1         34.43571916         35.70573959         86.31169047
     6         25.32444814         41.14585838         86.15839106
     1         23.42216505         40.44922204         86.37680032
     6         29.08260188         49.34716639         85.09173374
     1         28.38445569         51.26453859         85.24046384
     6         36.77370117         45.32896423         82.40396835
     1         38.54234486         45.99323016         81.64967677
     6         30.15307759         33.05956778         86.92466063
     1         31.51369876         32.89289996         88.46059837
     1         31.04649031         32.37078002         85.19861638
     1         28.54490611         31.85054160         87.34780824
     6         24.50004334         35.44541891         87.05882689
     1         23.25278262         35.72856278         85.44344750
     1         23.54796661         36.19112731         88.72577036
     1         24.75578811         33.42655083         87.32546560
     6         39.29038204         36.49989080         84.72995277
     1         38.41838108         34.97068926         83.66212413
     1         39.27648194         35.96185962         86.71974032
     1         41.24229166         36.66739419         84.11543676
     6         41.26559352         41.49748989         82.14254878
     1         42.82568069         40.69789894         83.20434112
     6         41.74925973         42.69297392         79.99021363
     1         40.25524069         43.42480510         78.82028889
     1         43.64640654         42.93983370         79.29240293
     6         37.62796969         50.99000108         81.42209067
     1         37.62510017         50.95065850         79.35946456
     1         39.30482520         49.99417147         82.07408182
     1         37.75334015         52.94862130         82.02839414
     6         32.52894369         53.64914816         83.29681967
     1         31.31709487         54.26853516         84.82653339
     6         33.30372429         55.35249585         81.61763828
     1         34.42711081         54.85851080         79.99674090
     1         32.80130040         57.32040053         81.78191953
     6         23.55949956         50.40274454         86.34361038
     1         23.86809933         51.50613974         84.63492674
     1         24.37916451         51.43284657         87.92909956
     1         21.53927016         50.23661992         86.65931179
     6         20.97770262         44.85855962         86.85227920
     1         20.29065946         43.48056420         85.48595145
     1         19.77185966         46.52168420         86.76225787
     1         20.80193366         44.03402743         88.73521996
     6         36.49502664         46.26442607         93.60352678
     1         37.04708161         44.83724954         94.98168293
     1         35.64981020         47.84350160         94.62159548
     1         38.17562213         46.93416899         92.63788544
     7         32.36804611         44.27793326         92.45635365
     1         31.69660146         44.19342149         94.23464459
     6         34.67552854         45.21476413         91.74172841
     6         31.14491388         43.54161618         90.33998158
     1         29.30713840         42.69860206         90.29311251
     7         32.52395853         43.96113642         88.33231781
     6         34.73810177         44.98558763         89.17044290
     1         36.23891804         45.46883977         87.90074656
     6         25.74725467         45.05808902         79.36442144
     1         25.11287562         44.83766659         81.30307849
     1         25.07807066         43.44957349         78.27459161
     1         24.93119620         46.77994796         78.59354967
     6         28.60567426         45.20272374         79.27052015
     1         29.30832553         46.78991586         80.37386121
     1         29.27411572         45.35000789         77.32919382
    16         29.97937731         42.29687913         80.59137338
     6         32.68709397         42.04806681         78.47860908
     1         33.84092018         43.73931280         78.59733818
     1         31.98998369         41.76697720         76.56703304
     1         33.78299345         40.41893829         79.06481082

 Electric dipole moment (dipole orientation):
 (Debye = 10**-18 statcoulomb cm , SI units = C m)
                  (au)            (Debye)         (10**-30 SI)
   Tot        0.154271D+01      0.392117D+01      0.130796D+02
   x          0.000000D+00      0.000000D+00      0.000000D+00
   y          0.000000D+00      0.000000D+00      0.000000D+00
   z          0.154271D+01      0.392117D+01      0.130796D+02

 Dipole polarizability, Alpha (dipole orientation).
 (esu units = cm**3 , SI units = C**2 m**2 J**-1)
 Alpha(0;0):
               (au)            (10**-24 esu)      (10**-40 SI)
   iso        0.606619D+03      0.898916D+02      0.100018D+03
   aniso      0.332454D+03      0.492645D+02      0.548142D+02
   xx         0.689832D+03      0.102222D+03      0.113738D+03
   yx        -0.369778D+01     -0.547954D+00     -0.609681D+00
   yy         0.708100D+03      0.104930D+03      0.116750D+03
   zx        -0.822908D+02     -0.121942D+02     -0.135679D+02
   zy        -0.662487D+02     -0.981704D+01     -0.109229D+02
   zz         0.421924D+03      0.625227D+02      0.695659D+02

 First dipole hyperpolarizability, Beta (dipole orientation).
 ||, _|_  parallel and perpendicular components, (z) with respect to z axis,
 vector components x,y,z.  Values do not include the 1/n! factor of 1/2.
 (esu units = statvolt**-1 cm**4 , SI units = C**3 m**3 J**-2)
 Beta(0;0,0):
               (au)            (10**-30 esu)      (10**-50 SI)
   || (z)    -0.249419D+03     -0.215478D+01     -0.799727D+00
   _|_(z)    -0.831396D+02     -0.718261D+00     -0.266576D+00
   x          0.378393D+04      0.326902D+02      0.121326D+02
   y          0.291544D+04      0.251872D+02      0.934797D+01
   z         -0.124709D+04     -0.107739D+02     -0.399863D+01
   ||         0.987384D+03      0.853023D+01      0.316591D+01
   xxx        0.759666D+03      0.656292D+01      0.243576D+01
   xxy       -0.342470D+03     -0.295868D+01     -0.109808D+01
   yxy        0.292210D+03      0.252446D+01      0.936930D+00
   yyy        0.121340D+04      0.104828D+02      0.389060D+01
   xxz       -0.256251D+03     -0.221381D+01     -0.821632D+00
   yxz        0.444633D+02      0.384128D+00      0.142565D+00
   yyz       -0.318037D+03     -0.274759D+01     -0.101974D+01
   zxz        0.209433D+03      0.180934D+01      0.671519D+00
   zyz        0.100884D+03      0.871559D+00      0.323471D+00
   zzz        0.158590D+03      0.137009D+01      0.508495D+00

 ----------------------------------------------------------------------
 Unable to Open any file for archive entry.
 1\1\GINC-BGN1041\SP\RAPFD\def2TZVP\C37H42Fe1N6S1\BEBJONES\23-Jul-2024\
 0\\# polar def2tzvp apfd int=(grid=ultrafine)\\1hrc_II_S\\0,1\Fe,0,44.
 6566147757,28.0131016941,5.8773544757\N,0,44.857457521,26.4652096472,7
 .1434125225\N,0,43.9814052248,29.081380173,7.4716582428\N,0,44.4188559
 194,29.644673429,4.7607936601\N,0,45.407744429,26.9997163669,4.3919788
 716\C,0,45.4215319976,25.28047389,6.798371586\C,0,45.2431134944,24.311
 7206179,7.8609545436\C,0,44.5494158394,24.9390436373,8.8477256449\C,0,
 44.347818923,26.2988101097,8.3889100077\C,0,43.5736707277,28.588251620
 1,8.6779440888\C,0,43.059472736,29.6490451828,9.5176829144\C,0,43.1622
 224263,30.7929407179,8.7915272047\C,0,43.7082521069,30.4084959862,7.50
 88577817\C,0,44.1749158717,30.9199164301,5.1618929557\C,0,44.147429840
 2,31.8171876887,4.0219805044\C,0,44.4456691907,31.0424000235,2.9300859
 561\C,0,44.6423246711,29.7040899456,3.4191552961\C,0,45.4774519827,27.
 4114563405,3.0947984782\C,0,46.1378319763,26.3931071325,2.293520301\C,
 0,46.4895243425,25.3944165131,3.1638649825\C,0,45.9976097795,25.783010
 1402,4.4594834373\C,0,46.0634298266,25.0019579623,5.6053754756\H,0,46.
 5479425279,24.0431429923,5.5152872732\C,0,43.6579009952,27.2729919915,
 9.0868934209\H,0,43.2479167687,27.0127983191,10.0495992978\C,0,43.8798
 735248,31.2918075486,6.4584673031\H,0,43.6626782124,32.3341101155,6.65
 49043229\C,0,45.0403823622,28.6366390549,2.6228312095\H,0,45.175578476
 6,28.8426109692,1.574908902\C,0,45.7271182146,22.9055778288,7.80313339
 52\H,0,46.8029691888,22.8820595342,7.6334252591\H,0,45.2428378861,22.3
 67130727,6.9869319733\H,0,45.5143825511,22.3818025083,8.732696383\C,0,
 44.0802921112,24.412519038,10.162147882\H,0,42.9959649518,24.485229636
 5,10.250166904\H,0,44.519129653,24.9784700259,10.9836020284\H,0,44.361
 6340968,23.3707187446,10.2849133336\C,0,47.1825051427,24.1117861472,2.
 8564397648\H,0,46.5290800361,23.2676724389,3.0745610016\H,0,48.0879177
 297,23.9929791394,3.4530411374\H,0,47.4539798197,24.062025611,1.805571
 3663\C,0,46.3666878849,26.4181322393,0.8623442222\H,0,47.3163568981,26
 .0175648042,0.5247526431\C,0,45.4924769244,26.845335395,-0.0411033343\
 H,0,44.5164277861,27.1988962672,0.2428526178\H,0,45.7078448321,26.8326
[...]
   157. CR (   1) N  73                  1.99932   -14.14513  170(r),172(r),1327(v),171(r)
                                                    1384(v),1561(r),1562(r)
                                                    1563(r),181(r),185(r),188(r)
                                                    180(r)
   158. CR (   1) C  74                  1.99896   -10.05863  1646(v),1301(v),1650(g)
                                                    1411(v),1304(v),1359(v)
                                                    1360(v),172(r),170(r)
                                                    1563(r)
   175. LP (   1) N  68                  1.57996    -0.28186  1654(v),1651(v),1330(v)
                                                    1302(v),1296(v),182(r)
   176. LP (   1) N  73                  1.61182    -0.35200  170(r),172(r),1649(v),171(r)
                                                    1650(v),1652(v),1327(v)
                                                    1656(v),1653(g),1361(g)
                                                    1384(v),1655(g),1563(r)
                                                    183(r),1562(r),1561(r)
                                                    1572(r),1574(r),205(r)
                                                    197(r),1569(r),1571(r)
                                                    234(r),192(r),260(r),208(r)
                                                    1566(r),1573(r),1567(r)
                                                    286(r),1568(r),231(r),287(r)
                                                    1564(r),257(r),189(r),232(r)
                                                    190(r),265(r),233(r),293(r)
                                                    239(r),194(r)
  1229. RY*(   1) C  64                  0.00117     1.16900   
  1230. RY*(   2) C  64                  0.00079     2.00195   
  1231. RY*(   3) C  64                  0.00051     1.33571   
  1232. RY*(   4) C  64                  0.00012     1.27094   
  1233. RY*(   5) C  64                  0.00009     2.15987   
  1234. RY*(   6) C  64                  0.00007     1.34104   
  1235. RY*(   7) C  64                  0.00001     1.69903   
  1236. RY*(   8) C  64                  0.00001     1.89341   
  1237. RY*(   9) C  64                  0.00001     1.42384   
  1238. RY*(  10) C  64                  0.00001     2.30970   
  1239. RY*(  11) C  64                  0.00001     1.38286   
  1240. RY*(  12) C  64                  0.00000     3.24602   
  1241. RY*(  13) C  64                  0.00000     2.54853   
  1242. RY*(  14) C  64                  0.00000     2.77007   
  1243. RY*(  15) C  64                  0.00000     2.32000   
  1244. RY*(  16) C  64                  0.00000     3.15374   
  1245. RY*(  17) C  64                  0.00000     2.53452   
  1246. RY*(  18) C  64                  0.00000    21.59161   
  1247. RY*(  19) C  64                  0.00000     2.72041   
  1248. RY*(  20) C  64                  0.00000     3.68001   
  1249. RY*(  21) C  64                  0.00001     3.44771   
  1250. RY*(  22) C  64                  0.00000     3.33539   
  1251. RY*(  23) C  64                  0.00000     3.73483   
  1252. RY*(  24) C  64                  0.00000     3.36431   
  1253. RY*(  25) C  64                  0.00000     3.37727   
  1254. RY*(  26) C  64                  0.00000     3.25727   
  1255. RY*(   1) H  65                  0.00074     0.99823   
  1256. RY*(   2) H  65                  0.00015     1.69921   
  1257. RY*(   3) H  65                  0.00008     1.97732   
  1258. RY*(   4) H  65                  0.00006     2.00472   
  1259. RY*(   5) H  65                  0.00000     2.88222   
  1260. RY*(   1) H  66                  0.00075     1.01359   
  1261. RY*(   2) H  66                  0.00015     1.66878   
  1262. RY*(   3) H  66                  0.00008     1.98078   
  1263. RY*(   4) H  66                  0.00006     2.01048   
  1264. RY*(   5) H  66                  0.00000     2.88061   
  1265. RY*(   1) H  67                  0.00024     1.39355   
  1266. RY*(   2) H  67                  0.00012     1.73590   
  1267. RY*(   3) H  67                  0.00008     2.05893   
  1268. RY*(   4) H  67                  0.00002     1.61356   
  1269. RY*(   5) H  67                  0.00001     2.84626   
  1270. RY*(   1) N  68                  0.00279     0.68276   
  1271. RY*(   2) N  68                  0.00223     1.77458   
  1272. RY*(   3) N  68                  0.00097     2.07522   
  1273. RY*(   4) N  68                  0.00078     2.14970   
  1274. RY*(   5) N  68                  0.00051     1.22251   
  1275. RY*(   6) N  68                  0.00026     2.28016   
  1276. RY*(   7) N  68                  0.00021     1.80768   
  1277. RY*(   8) N  68                  0.00006     2.27584   
  1278. RY*(   9) N  68                  0.00007     2.47532   
  1279. RY*(  10) N  68                  0.00006     3.63908   
  1280. RY*(  11) N  68                  0.00004     3.04508   
  1281. RY*(  12) N  68                  0.00000    30.74563   
  1282. RY*(  13) N  68                  0.00001     4.30407   
  1283. RY*(  14) N  68                  0.00001     2.28413   
  1284. RY*(  15) N  68                  0.00000     3.56079   
  1285. RY*(  16) N  68                  0.00000     2.12863   
  1286. RY*(  17) N  68                  0.00000     4.59554   
  1287. RY*(  18) N  68                  0.00001     3.80510   
  1288. RY*(  19) N  68                  0.00001     3.64629   
  1289. RY*(  20) N  68                  0.00000     4.68571   
  1290. RY*(  21) N  68                  0.00000     4.81652   
  1291. RY*(  22) N  68                  0.00000     4.36262   
  1292. RY*(  23) N  68                  0.00000     4.46261   
  1293. RY*(  24) N  68                  0.00000     4.31438   
  1294. RY*(  25) N  68                  0.00000     4.49474   
  1295. RY*(  26) N  68                  0.00000     4.42459   
  1296. RY*(   1) H  69                  0.00058     2.15358   
  1297. RY*(   2) H  69                  0.00040     2.14102   
  1298. RY*(   3) H  69                  0.00033     1.00150   
  1299. RY*(   4) H  69                  0.00021     2.56146   
  1300. RY*(   5) H  69                  0.00001     3.09243   
  1301. RY*(   1) C  70                  0.00398     1.69670   
  1302. RY*(   2) C  70                  0.00261     0.99591   
  1303. RY*(   3) C  70                  0.00191     1.51226   
  1304. RY*(   4) C  70                  0.00162     2.06469   
  1305. RY*(   5) C  70                  0.00124     1.76856   
  1306. RY*(   6) C  70                  0.00114     1.73231   
  1307. RY*(   7) C  70                  0.00037     2.86798   
  1308. RY*(   8) C  70                  0.00019     2.77266   
  1309. RY*(   9) C  70                  0.00017     2.52138   
  1310. RY*(  10) C  70                  0.00007     3.59960   
  1311. RY*(  11) C  70                  0.00003     2.54342   
  1312. RY*(  12) C  70                  0.00001     1.50930   
  1313. RY*(  13) C  70                  0.00000    21.45263   
  1314. RY*(  14) C  70                  0.00001     1.63308   
  1315. RY*(  15) C  70                  0.00001     2.82927   
  1316. RY*(  16) C  70                  0.00001     1.99059   
  1317. RY*(  17) C  70                  0.00001     3.47207   
  1318. RY*(  18) C  70                  0.00001     1.08480   
  1319. RY*(  19) C  70                  0.00001     1.88452   
  1320. RY*(  20) C  70                  0.00000     4.04278   
  1321. RY*(  21) C  70                  0.00000     3.74116   
  1322. RY*(  22) C  70                  0.00000     3.46237   
  1323. RY*(  23) C  70                  0.00000     3.84389   
  1324. RY*(  24) C  70                  0.00000     3.34340   
  1325. RY*(  25) C  70                  0.00000     3.50480   
  1326. RY*(  26) C  70                  0.00000     3.51499   
  1327. RY*(   1) C  71                  0.00411     1.49445   
  1328. RY*(   2) C  71                  0.00344     0.70795   
  1329. RY*(   3) C  71                  0.00208     1.33010   
  1330. RY*(   4) C  71                  0.00126     2.58903   
  1331. RY*(   5) C  71                  0.00107     1.24779   
  1332. RY*(   6) C  71                  0.00045     1.71639   
  1333. RY*(   7) C  71                  0.00028     1.68901   
  1334. RY*(   8) C  71                  0.00014     2.36690   
  1335. RY*(   9) C  71                  0.00008     3.19615   
  1336. RY*(  10) C  71                  0.00007     2.19525   
  1337. RY*(  11) C  71                  0.00002     2.60264   
  1338. RY*(  12) C  71                  0.00003     1.62684   
  1339. RY*(  13) C  71                  0.00003     3.50123   
  1340. RY*(  14) C  71                  0.00002     2.97881   
  1341. RY*(  15) C  71                  0.00001     2.58848   
  1342. RY*(  16) C  71                  0.00000     3.48312   
  1343. RY*(  17) C  71                  0.00000     2.85473   
  1344. RY*(  18) C  71                  0.00000    21.53702   
  1345. RY*(  19) C  71                  0.00000     3.17463   
  1346. RY*(  20) C  71                  0.00001     3.86941   
  1347. RY*(  21) C  71                  0.00001     4.09789   
  1348. RY*(  22) C  71                  0.00000     3.58085   
  1349. RY*(  23) C  71                  0.00000     3.74220   
  1350. RY*(  24) C  71                  0.00000     3.54132   
  1351. RY*(  25) C  71                  0.00000     3.56987   
  1352. RY*(  26) C  71                  0.00000     3.34842   
  1353. RY*(   1) H  72                  0.00074     0.64888   
  1354. RY*(   2) H  72                  0.00035     2.42878   
  1355. RY*(   3) H  72                  0.00021     2.11246   
  1356. RY*(   4) H  72                  0.00013     2.44277   
  1357. RY*(   5) H  72                  0.00001     3.18300   
  1358. RY*(   1) N  73                  0.01118     0.85751   
  1359. RY*(   2) N  73                  0.01020     1.25725   
  1360. RY*(   3) N  73                  0.00642     1.36503   
  1361. RY*(   4) N  73                  0.00110     1.67462   
  1362. RY*(   5) N  73                  0.00074     1.71958   
  1363. RY*(   6) N  73                  0.00059     2.03018   
  1364. RY*(   7) N  73                  0.00040     3.11735   
  1365. RY*(   8) N  73                  0.00037     3.30636   
  1366. RY*(   9) N  73                  0.00015     2.82933   
  1367. RY*(  10) N  73                  0.00010     2.53766   
  1368. RY*(  11) N  73                  0.00010     3.42338   
  1369. RY*(  12) N  73                  0.00008     3.63779   
  1370. RY*(  13) N  73                  0.00005     3.42616   
  1371. RY*(  14) N  73                  0.00005     3.80477   
  1372. RY*(  15) N  73                  0.00003     4.81177   
  1373. RY*(  16) N  73                  0.00001     4.36325   
  1374. RY*(  17) N  73                  0.00000     4.84917   
  1375. RY*(  18) N  73                  0.00000    31.47912   
  1376. RY*(  19) N  73                  0.00001     4.04929   
  1377. RY*(  20) N  73                  0.00000     4.47658   
  1378. RY*(  21) N  73                  0.00001     4.72246   
  1379. RY*(  22) N  73                  0.00000     4.14594   
  1380. RY*(  23) N  73                  0.00000     4.78351   
  1381. RY*(  24) N  73                  0.00000     4.66728   
  1382. RY*(  25) N  73                  0.00000     4.69490   
  1383. RY*(  26) N  73                  0.00000     4.56572   
  1384. RY*(   1) C  74                  0.00413     1.50090   
  1385. RY*(   2) C  74                  0.00269     0.73237   
  1386. RY*(   3) C  74                  0.00180     1.79000   
  1387. RY*(   4) C  74                  0.00065     1.61350   
  1388. RY*(   5) C  74                  0.00062     1.88305   
  1389. RY*(   6) C  74                  0.00052     1.88655   
  1390. RY*(   7) C  74                  0.00045     2.29542   
  1391. RY*(   8) C  74                  0.00026     1.53413   
  1392. RY*(   9) C  74                  0.00025     1.68915   
  1393. RY*(  10) C  74                  0.00015     1.98183   
  1394. RY*(  11) C  74                  0.00011     1.04534   
  1395. RY*(  12) C  74                  0.00007     2.21070   
  1396. RY*(  13) C  74                  0.00006     2.00935   
  1397. RY*(  14) C  74                  0.00004     3.18809   
  1398. RY*(  15) C  74                  0.00003     1.38946   
  1399. RY*(  16) C  74                  0.00002     3.22799   
  1400. RY*(  17) C  74                  0.00001     3.56497   
  1401. RY*(  18) C  74                  0.00001     4.03029   
  1402. RY*(  19) C  74                  0.00000    21.86830   
  1403. RY*(  20) C  74                  0.00001     4.04547   
  1404. RY*(  21) C  74                  0.00000     3.29057   
  1405. RY*(  22) C  74                  0.00000     3.46806   
  1406. RY*(  23) C  74                  0.00000     3.76852   
  1407. RY*(  24) C  74                  0.00000     3.36749   
  1408. RY*(  25) C  74                  0.00000     3.70974   
  1409. RY*(  26) C  74                  0.00000     3.48960   
  1410. RY*(   1) H  75                  0.00052     0.61410   
  1411. RY*(   2) H  75                  0.00034     2.40266   
  1412. RY*(   3) H  75                  0.00025     2.32023   
  1413. RY*(   4) H  75                  0.00007     2.75487   
  1414. RY*(   5) H  75                  0.00001     3.15203   
  1643. BD*(   1) C  64 - H  65          0.01205     0.36034   
  1644. BD*(   1) C  64 - H  66          0.01175     0.35960   
  1645. BD*(   1) C  64 - H  67          0.00349     0.37426   
  1646. BD*(   1) C  64 - C  70          0.01377     0.38977   
  1647. BD*(   1) N  68 - H  69          0.01459     0.36820   
  1648. BD*(   1) N  68 - C  70          0.02699     0.43051   
  1649. BD*(   1) N  68 - C  71          0.02322     0.45222   
  1650. BD*(   1) C  70 - C  74          0.02107     0.56537   
  1651. BD*(   2) C  70 - C  74          0.30070     0.03625  1654(v),1643(v),1644(v)
                                                    1390(g),1305(g)
  1652. BD*(   1) C  71 - H  72          0.01817     0.39631   
  1653. BD*(   1) C  71 - N  73          0.01678     0.54015   
  1654. BD*(   2) C  71 - N  73          0.41090    -0.00098  1651(v),1328(g),1573(r)
                                                    1358(g),171(r),1570(r)
                                                    170(r),1562(r)
  1655. BD*(   1) N  73 - C  74          0.01673     0.48153   
  1656. BD*(   1) C  74 - H  75          0.01437     0.43151   
       -------------------------------
              Total Lewis   42.68589  ( 97.7286%)
        Valence non-Lewis    0.90457  (  2.0710%)
        Rydberg non-Lewis    0.08754  (  0.2004%)
       -------------------------------
            Total unit  2   43.67801  (100.0000%)
           Charge unit  2    0.32199
 Unable to Open any file for archive entry.
 1\1\GINC-BGN1041\SP\RAPFD\def2TZVP\C37H42Fe1N6S1\BEBJONES\23-Jul-2024\
 0\\# apfd/def2TZVP int=(grid=ultrafine) geom=check guess=read pop=nbo 
 scf=qc\\1hrc_II_S_nbo\\0,1\Fe,0,44.6566147757,28.0131016941,5.87735447
 57\N,0,44.857457521,26.4652096472,7.1434125225\N,0,43.9814052248,29.08
 1380173,7.4716582428\N,0,44.4188559194,29.644673429,4.7607936601\N,0,4
 5.407744429,26.9997163669,4.3919788716\C,0,45.4215319976,25.28047389,6
 .798371586\C,0,45.2431134944,24.3117206179,7.8609545436\C,0,44.5494158
 394,24.9390436373,8.8477256449\C,0,44.347818923,26.2988101097,8.388910
 0077\C,0,43.5736707277,28.5882516201,8.6779440888\C,0,43.059472736,29.
 6490451828,9.5176829144\C,0,43.1622224263,30.7929407179,8.7915272047\C
 ,0,43.7082521069,30.4084959862,7.5088577817\C,0,44.1749158717,30.91991
 64301,5.1618929557\C,0,44.1474298402,31.8171876887,4.0219805044\C,0,44
 .4456691907,31.0424000235,2.9300859561\C,0,44.6423246711,29.7040899456
 ,3.4191552961\C,0,45.4774519827,27.4114563405,3.0947984782\C,0,46.1378
 319763,26.3931071325,2.293520301\C,0,46.4895243425,25.3944165131,3.163
 8649825\C,0,45.9976097795,25.7830101402,4.4594834373\C,0,46.0634298266
 ,25.0019579623,5.6053754756\H,0,46.5479425279,24.0431429923,5.51528727
 32\C,0,43.6579009952,27.2729919915,9.0868934209\H,0,43.2479167687,27.0
 127983191,10.0495992978\C,0,43.8798735248,31.2918075486,6.4584673031\H
 ,0,43.6626782124,32.3341101155,6.6549043229\C,0,45.0403823622,28.63663
 90549,2.6228312095\H,0,45.1755784766,28.8426109692,1.574908902\C,0,45.
 7271182146,22.9055778288,7.8031333952\H,0,46.8029691888,22.8820595342,
 7.6334252591\H,0,45.2428378861,22.367130727,6.9869319733\H,0,45.514382
 5511,22.3818025083,8.732696383\C,0,44.0802921112,24.412519038,10.16214
 7882\H,0,42.9959649518,24.4852296365,10.250166904\H,0,44.519129653,24.
 9784700259,10.9836020284\H,0,44.3616340968,23.3707187446,10.2849133336
 \C,0,47.1825051427,24.1117861472,2.8564397648\H,0,46.5290800361,23.267
 6724389,3.0745610016\H,0,48.0879177297,23.9929791394,3.4530411374\H,0,
 47.4539798197,24.062025611,1.8055713663\C,0,46.3666878849,26.418132239
 3,0.8623442222\H,0,47.3163568981,26.0175648042,0.5247526431\C,0,45.492
 4769244,26.845335395,-0.0411033343\H,0,44.5164277861,27.1988962672,0.2
 428526178\H,0,45.7078448321,26.8326376922,-1.0969188763\C,0,44.5919715
 073,31.4686592125,1.5150916478\H,0,43.675242847,31.2814893271,0.952621
 6541\H,0,45.4011425858,30.9274782242,1.0287813788\H,0,44.8095557935,32
 .532606326,1.4675720708\C,0,43.8640841889,33.2339638383,4.0839298632\H
 ,0,44.1740066586,33.7346225592,4.9934551192\C,0,43.2600398504,33.95102
 22889,3.1399436978\H,0,42.8789036831,33.5122881579,2.2345725152\H,0,43
 .1028897781,35.0121540124,3.2494903911\C,0,42.8266205534,32.1901903853
 ,9.1744608244\H,0,42.104371849,32.6131219035,8.4782894909\H,0,43.71787
 93226,32.818455103,9.1622679689\H,0,42.4028055584,32.219562111,10.1734
 822635\C,0,42.5703938383,29.4580904594,10.9112756211\H,0,41.8297396297
 ,28.6603465605,10.9528354671\H,0,42.1146796828,30.3713297913,11.288528
 2786\H,0,43.3952822893,29.1886066614,11.5736945448\C,0,49.9024240815,3
 0.0422041037,5.7494494736\H,0,50.7356645372,29.3853273832,5.9980447526
 \H,0,50.0455220785,30.9851213878,6.277620458\H,0,49.9184272616,30.2378
 78403,4.6821664738\N,0,48.3130311777,29.0990570806,7.4309058742\H,0,48
 .9179745048,29.2288737973,8.2252471832\C,0,48.6061649975,29.4261433547
 ,6.1321113529\C,0,47.0582551598,28.5989902205,7.4529294716\H,0,46.5550
 518014,28.2381884032,8.3258589006\N,0,46.5365157983,28.5935155687,6.25
 36357862\C,0,47.4901444092,29.0959993483,5.4160679436\H,0,47.328340447
 8,29.1779603136,4.3602792248\C,0,40.5798036397,28.7431058744,6.7150388
 063\H,0,41.2726658666,28.8134169703,7.547957917\H,0,39.9775344837,27.8
 468113957,6.8432920484\H,0,39.9288514947,29.6144479806,6.7269870319\C,
 0,41.3404608694,28.6829665285,5.4058018125\H,0,41.959166362,29.5677456
 217,5.268096774\H,0,40.6593231566,28.5728071201,4.5629089166\S,0,42.44
 68922799,27.2142383993,5.3926658065\C,0,42.284301118,26.7925793913,3.6
 273950664\H,0,42.5879679597,27.6317632577,3.0099165657\H,0,41.24912947
 44,26.5227291868,3.4348644256\H,0,42.9281352461,25.94209797,3.43268677
 5\\Version=ES64L-G16RevC.02\State=1-A\HF=-3424.8456104\RMSD=6.887e-10\
 Dipole=1.2970343,0.2357519,0.8012898\Quadrupole=6.7752127,-7.4930364,0
 .7178237,1.5187693,6.6472041,2.5759395\PG=C01 [X(C37H42Fe1N6S1)]\\@
 The archive entry for this job was punched.


 YOU CAN WIPE THE SLATE CLEAN, BUT YOU'LL STILL
 HAVE TO EAT A LITTLE CHALK DUST.
 Job cpu time:       0 days  1 hours  1 minutes  5.8 seconds.
 Elapsed time:       0 days  0 hours  1 minutes 12.4 seconds.
 File lengths (MBytes):  RWF=    938 Int=      0 D2E=      0 Chk=    161 Scr=      1
 Normal termination of Gaussian 16 at Tue Jul 23 03:14:38 2024.
