 Entering Gaussian System, Link 0=g16
 Input=1hrc05.com
 Output=1hrc05.log
 Initial command:
 /sw/chem/gaussian/g16_C02/a100/g16/l1.exe "/local/bebjones_7947871/Gau-1431030.inp" -scrdir="/local/bebjones_7947871/"
 Entering Link 1 = /sw/chem/gaussian/g16_C02/a100/g16/l1.exe PID=   1431031.
  
 Copyright (c) 1988-2021, Gaussian, Inc.  All Rights Reserved.
  
 This is part of the Gaussian(R) 16 program.  It is based on
 the Gaussian(R) 09 system (copyright 2009, Gaussian, Inc.),
 the Gaussian(R) 03 system (copyright 2003, Gaussian, Inc.),
 the Gaussian(R) 98 system (copyright 1998, Gaussian, Inc.),
 the Gaussian(R) 94 system (copyright 1995, Gaussian, Inc.),
 the Gaussian 92(TM) system (copyright 1992, Gaussian, Inc.),
 the Gaussian 90(TM) system (copyright 1990, Gaussian, Inc.),
 the Gaussian 88(TM) system (copyright 1988, Gaussian, Inc.),
 the Gaussian 86(TM) system (copyright 1986, Carnegie Mellon
 University), and the Gaussian 82(TM) system (copyright 1983,
 Carnegie Mellon University). Gaussian is a federally registered
 trademark of Gaussian, Inc.
  
 This software contains proprietary and confidential information,
 including trade secrets, belonging to Gaussian, Inc.
  
 This software is provided under written license and may be
 used, copied, transmitted, or stored only in accord with that
 written license.
  
 The following legend is applicable only to US Government
 contracts under FAR:
  
                    RESTRICTED RIGHTS LEGEND
  
 Use, reproduction and disclosure by the US Government is
 subject to restrictions as set forth in subparagraphs (a)
 and (c) of the Commercial Computer Software - Restricted
 Rights clause in FAR 52.227-19.
  
 Gaussian, Inc.
 340 Quinnipiac St., Bldg. 40, Wallingford CT 06492
  
  
 ---------------------------------------------------------------
 Warning -- This program may not be used in any manner that
 competes with the business of Gaussian, Inc. or will provide
 assistance to any competitor of Gaussian, Inc.  The licensee
 of this program is prohibited from giving any competitor of
 Gaussian, Inc. access to this program.  By using this program,
 the user acknowledges that Gaussian, Inc. is engaged in the
 business of creating and licensing software in the field of
 computational chemistry and represents and warrants to the
 licensee that it is not a competitor of Gaussian, Inc. and that
 it will not use this program in any manner prohibited above.
 ---------------------------------------------------------------
  

 Cite this work as:
 Gaussian 16, Revision C.02,
 M. J. Frisch, G. W. Trucks, H. B. Schlegel, G. E. Scuseria, 
 M. A. Robb, J. R. Cheeseman, G. Scalmani, V. Barone, 
 G. A. Petersson, H. Nakatsuji, X. Li, M. Caricato, A. V. Marenich, 
 J. Bloino, B. G. Janesko, R. Gomperts, B. Mennucci, H. P. Hratchian, 
 J. V. Ortiz, A. F. Izmaylov, J. L. Sonnenberg, D. Williams-Young, 
 F. Ding, F. Lipparini, F. Egidi, J. Goings, B. Peng, A. Petrone, 
 T. Henderson, D. Ranasinghe, V. G. Zakrzewski, J. Gao, N. Rega, 
 G. Zheng, W. Liang, M. Hada, M. Ehara, K. Toyota, R. Fukuda, 
 J. Hasegawa, M. Ishida, T. Nakajima, Y. Honda, O. Kitao, H. Nakai, 
 T. Vreven, K. Throssell, J. A. Montgomery, Jr., J. E. Peralta, 
 F. Ogliaro, M. J. Bearpark, J. J. Heyd, E. N. Brothers, K. N. Kudin, 
 V. N. Staroverov, T. A. Keith, R. Kobayashi, J. Normand, 
 K. Raghavachari, A. P. Rendell, J. C. Burant, S. S. Iyengar, 
 J. Tomasi, M. Cossi, J. M. Millam, M. Klene, C. Adamo, R. Cammi, 
 J. W. Ochterski, R. L. Martin, K. Morokuma, O. Farkas, 
 J. B. Foresman, and D. J. Fox, Gaussian, Inc., Wallingford CT, 2019.
 
 ******************************************
 Gaussian 16:  ES64L-G16RevC.02  7-Dec-2021
                23-Jul-2024 
 ******************************************
 %mem=16GB
 %CPU=0-71
 SetSPE:  set environment variable "OMP_PROC_BIND" = "true"
 SetSPE:  set environment variable "OMP_PLACES" = "{0},{1},{2},{3},{4},{5},{6},{7},{8},{9},{10},{11},{12},{13},{14},{15},{16},{17},{18},{19},{20},{21},{22},{23},{24},{25},{26},{27},{28},{29},{30},{31},{32},{33},{34},{35},{36},{37},{38},{39},{40},{41},{42},{43},{44},{45},{46},{47},{48},{49},{50},{51},{52},{53},{54},{55},{56},{57},{58},{59},{60},{61},{62},{63},{64},{65},{66},{67},{68},{69},{70},{71}"
 Will use up to   72 processors via shared memory.
 %gpucpu=0,1,2,3=0,1,2,3
 Will use    4 GPUs:
 Thread  CPU   GPU
      0    0     0
      1    1     1
      2    2     2
      3    3     3
      4    4    -1
      5    5    -1
      6    6    -1
      7    7    -1
      8    8    -1
      9    9    -1
     10   10    -1
     11   11    -1
     12   12    -1
     13   13    -1
     14   14    -1
     15   15    -1
     16   16    -1
     17   17    -1
     18   18    -1
     19   19    -1
     20   20    -1
     21   21    -1
     22   22    -1
     23   23    -1
     24   24    -1
     25   25    -1
     26   26    -1
     27   27    -1
     28   28    -1
     29   29    -1
     30   30    -1
     31   31    -1
     32   32    -1
     33   33    -1
     34   34    -1
     35   35    -1
     36   36    -1
     37   37    -1
     38   38    -1
     39   39    -1
     40   40    -1
     41   41    -1
     42   42    -1
     43   43    -1
     44   44    -1
     45   45    -1
     46   46    -1
     47   47    -1
     48   48    -1
     49   49    -1
     50   50    -1
     51   51    -1
     52   52    -1
     53   53    -1
     54   54    -1
     55   55    -1
     56   56    -1
     57   57    -1
     58   58    -1
     59   59    -1
     60   60    -1
     61   61    -1
     62   62    -1
     63   63    -1
     64   64    -1
     65   65    -1
     66   66    -1
     67   67    -1
     68   68    -1
     69   69    -1
     70   70    -1
     71   71    -1
 SetGPE:  set environment variable "OMP_PROC_BIND" = "true"
 SetGPE:  set environment variable "OMP_PLACES" = "{0},{1},{2},{3},{4},{5},{6},{7},{8},{9},{10},{11},{12},{13},{14},{15},{16},{17},{18},{19},{20},{21},{22},{23},{24},{25},{26},{27},{28},{29},{30},{31},{32},{33},{34},{35},{36},{37},{38},{39},{40},{41},{42},{43},{44},{45},{46},{47},{48},{49},{50},{51},{52},{53},{54},{55},{56},{57},{58},{59},{60},{61},{62},{63},{64},{65},{66},{67},{68},{69},{70},{71}"
 %oldchk=1hrc_II_Sre.chk
 %chk=1hrc_II_Qn.chk
 Properties for Device   0
 Minimum vector length:                              32
 Maximum vector length:                            1024
 Number of SMPs:                                    108
 Maximum number of threads per SMP:                2048
 Number of ASync Engines:                             5
 Memory:                                           9207742464
 Properties for Device   1
 Minimum vector length:                              32
 Maximum vector length:                            1024
 Number of SMPs:                                    108
 Maximum number of threads per SMP:                2048
 Number of ASync Engines:                             5
 Memory:                                           9207742464
 Properties for Device   2
 Minimum vector length:                              32
 Maximum vector length:                            1024
 Number of SMPs:                                    108
 Maximum number of threads per SMP:                2048
 Number of ASync Engines:                             5
 Memory:                                           9207742464
 Properties for Device   3
 Minimum vector length:                              32
 Maximum vector length:                            1024
 Number of SMPs:                                    108
 Maximum number of threads per SMP:                2048
 Number of ASync Engines:                             5
 Memory:                                           9207742464
   8286968217 words of memory will be used on each GPU.
 Copying data from "1hrc_II_Sre.chk" to current chk file "1hrc_II_Qn.chk"
 IOpt=  2 FromEx=T IUOpen= 4 IOptOp= 5 NList=   0 IFRang= 0 IUIn= 4 IUOut= 2.
 --------------------------------------------------------------
 # apfd/def2TZVP guess=read scf=maxcycle=999 geom=check pop=nbo
 --------------------------------------------------------------
 1/29=2,38=1,172=1/1;
 2/12=2,40=1/2;
 3/5=44,7=101,11=2,14=-4,25=1,30=1,74=-44,116=-2/1,2,3;
 4/5=1/1;
 5/5=2,7=999,38=6/2;
 6/7=2,8=2,9=2,10=2,28=1,40=1/1,7;
 99/5=1,9=1/99;
 ---------
 1hrc_II_Q
 ---------
 Structure from the checkpoint file:  "1hrc_II_Qn.chk"
 Charge =  0 Multiplicity = 5
 Z-Matrix found in chk file.
 Fe,0,44.6566147757,28.0131016941,5.8773544757
 N,0,44.857457521,26.4652096472,7.1434125225
 N,0,43.9814052248,29.081380173,7.4716582428
 N,0,44.4188559194,29.644673429,4.7607936601
 N,0,45.407744429,26.9997163669,4.3919788716
 C,0,45.4215319976,25.28047389,6.798371586
 C,0,45.2431134944,24.3117206179,7.8609545436
 C,0,44.5494158394,24.9390436373,8.8477256449
 C,0,44.347818923,26.2988101097,8.3889100077
 C,0,43.5736707277,28.5882516201,8.6779440888
 C,0,43.059472736,29.6490451828,9.5176829144
 C,0,43.1622224263,30.7929407179,8.7915272047
 C,0,43.7082521069,30.4084959862,7.5088577817
 C,0,44.1749158717,30.9199164301,5.1618929557
 C,0,44.1474298402,31.8171876887,4.0219805044
 C,0,44.4456691907,31.0424000235,2.9300859561
 C,0,44.6423246711,29.7040899456,3.4191552961
 C,0,45.4774519827,27.4114563405,3.0947984782
 C,0,46.1378319763,26.3931071325,2.293520301
 C,0,46.4895243425,25.3944165131,3.1638649825
 C,0,45.9976097795,25.7830101402,4.4594834373
 C,0,46.0634298266,25.0019579623,5.6053754756
 H,0,46.5479425279,24.0431429923,5.5152872732
 C,0,43.6579009952,27.2729919915,9.0868934209
 H,0,43.2479167687,27.0127983191,10.0495992978
 C,0,43.8798735248,31.2918075486,6.4584673031
 H,0,43.6626782124,32.3341101155,6.6549043229
 C,0,45.0403823622,28.6366390549,2.6228312095
 H,0,45.1755784766,28.8426109692,1.574908902
 C,0,45.7271182146,22.9055778288,7.8031333952
 H,0,46.8029691888,22.8820595342,7.6334252591
 H,0,45.2428378861,22.367130727,6.9869319733
 H,0,45.5143825511,22.3818025083,8.732696383
 C,0,44.0802921112,24.412519038,10.162147882
 H,0,42.9959649518,24.4852296365,10.250166904
 H,0,44.519129653,24.9784700259,10.9836020284
 H,0,44.3616340968,23.3707187446,10.2849133336
 C,0,47.1825051427,24.1117861472,2.8564397648
 H,0,46.5290800361,23.2676724389,3.0745610016
 H,0,48.0879177297,23.9929791394,3.4530411374
 H,0,47.4539798197,24.062025611,1.8055713663
 C,0,46.3666878849,26.4181322393,0.8623442222
 H,0,47.3163568981,26.0175648042,0.5247526431
 C,0,45.4924769244,26.845335395,-0.0411033343
 H,0,44.5164277861,27.1988962672,0.2428526178
 H,0,45.7078448321,26.8326376922,-1.0969188763
 C,0,44.5919715073,31.4686592125,1.5150916478
 H,0,43.675242847,31.2814893271,0.9526216541
 H,0,45.4011425858,30.9274782242,1.0287813788
 H,0,44.8095557935,32.532606326,1.4675720708
 C,0,43.8640841889,33.2339638383,4.0839298632
 H,0,44.1740066586,33.7346225592,4.9934551192
 C,0,43.2600398504,33.9510222889,3.1399436978
 H,0,42.8789036831,33.5122881579,2.2345725152
 H,0,43.1028897781,35.0121540124,3.2494903911
 C,0,42.8266205534,32.1901903853,9.1744608244
 H,0,42.104371849,32.6131219035,8.4782894909
 H,0,43.7178793226,32.818455103,9.1622679689
 H,0,42.4028055584,32.219562111,10.1734822635
 C,0,42.5703938383,29.4580904594,10.9112756211
 H,0,41.8297396297,28.6603465605,10.9528354671
 H,0,42.1146796828,30.3713297913,11.2885282786
 H,0,43.3952822893,29.1886066614,11.5736945448
 C,0,49.9024240815,30.0422041037,5.7494494736
 H,0,50.7356645372,29.3853273832,5.9980447526
 H,0,50.0455220785,30.9851213878,6.277620458
 H,0,49.9184272616,30.237878403,4.6821664738
 N,0,48.3130311777,29.0990570806,7.4309058742
 H,0,48.9179745048,29.2288737973,8.2252471832
 C,0,48.6061649975,29.4261433547,6.1321113529
 C,0,47.0582551598,28.5989902205,7.4529294716
 H,0,46.5550518014,28.2381884032,8.3258589006
 N,0,46.5365157983,28.5935155687,6.2536357862
 C,0,47.4901444092,29.0959993483,5.4160679436
 H,0,47.3283404478,29.1779603136,4.3602792248
 C,0,40.5798036397,28.7431058744,6.7150388063
 H,0,41.2726658666,28.8134169703,7.547957917
 H,0,39.9775344837,27.8468113957,6.8432920484
 H,0,39.9288514947,29.6144479806,6.7269870319
 C,0,41.3404608694,28.6829665285,5.4058018125
 H,0,41.959166362,29.5677456217,5.268096774
 H,0,40.6593231566,28.5728071201,4.5629089166
 S,0,42.4468922799,27.2142383993,5.3926658065
 C,0,42.284301118,26.7925793913,3.6273950664
 H,0,42.5879679597,27.6317632577,3.0099165657
 H,0,41.2491294744,26.5227291868,3.4348644256
 H,0,42.9281352461,25.94209797,3.432686775
 Recover connectivity data from disk.
 Stoichiometry    C37H42FeN6S(5)
 Framework group  C1[X(C37H42FeN6S)]
 Deg. of freedom   255
 Full point group                 C1      NOp   1
 Largest Abelian subgroup         C1      NOp   1
 Largest concise Abelian subgroup C1      NOp   1
                         Standard orientation:                         
 ---------------------------------------------------------------------
 Center     Atomic      Atomic             Coordinates (Angstroms)
 Number     Number       Type             X           Y           Z
 ---------------------------------------------------------------------
      1         26           0       -0.211975   -0.130086   -0.093598
      2          7           0       -1.897905   -1.221562   -0.019214
      3          7           0       -1.398169    1.507394    0.131206
      4          7           0        1.361482    1.089865   -0.128498
      5          7           0        0.908734   -1.720779   -0.199384
      6          6           0       -1.914569   -2.578059    0.002462
      7          6           0       -3.271584   -3.065293   -0.140754
      8          6           0       -4.068313   -1.970058   -0.259706
      9          6           0       -3.188078   -0.824356   -0.147142
     10          6           0       -2.753744    1.567297   -0.021689
     11          6           0       -3.224847    2.929138    0.113573
     12          6           0       -2.124417    3.690988    0.348081
     13          6           0       -0.995532    2.787609    0.321378
     14          6           0        1.418356    2.411375    0.182960
     15          6           0        2.782310    2.898351    0.095010
     16          6           0        3.549039    1.805463   -0.219949
     17          6           0        2.648159    0.688691   -0.320811
     18          6           0        2.255975   -1.739925   -0.403445
     19          6           0        2.734111   -3.113287   -0.382286
     20          6           0        1.637930   -3.892706   -0.118731
     21          6           0        0.508588   -3.004047   -0.038210
     22          6           0       -0.811272   -3.403310    0.123049
     23          1           0       -0.992276   -4.461276    0.223738
     24          6           0       -3.593507    0.494391   -0.240579
     25          1           0       -4.641873    0.692901   -0.395865
     26          6           0        0.317816    3.206211    0.434964
     27          1           0        0.480965    4.257983    0.633242
     28          6           0        3.056090   -0.620335   -0.549012
     29          1           0        4.112392   -0.778340   -0.683566
     30          6           0       -3.646023   -4.505283   -0.173427
     31          1           0       -3.304174   -5.006100    0.731632
     32          1           0       -3.186549   -5.001114   -1.029974
     33          1           0       -4.724857   -4.625739   -0.246170
     34          6           0       -5.545963   -1.885308   -0.445127
     35          1           0       -5.796785   -1.360171   -1.367145
     36          1           0       -6.008414   -1.345671    0.381067
     37          1           0       -5.988545   -2.876203   -0.487789
     38          6           0        1.574509   -5.376632   -0.001185
     39          1           0        0.947391   -5.791561   -0.789617
     40          1           0        1.151180   -5.684650    0.955757
     41          1           0        2.564578   -5.813959   -0.096092
     42          6           0        4.090872   -3.570910   -0.608220
     43          1           0        4.424829   -4.395724    0.011819
     44          6           0        4.912873   -3.088951   -1.532880
     45          1           0        4.605840   -2.309076   -2.208035
     46          1           0        5.910834   -3.472573   -1.667780
     47          6           0        5.023033    1.736216   -0.386846
     48          1           0        5.301051    1.790617   -1.441143
     49          1           0        5.415636    0.805008    0.016698
     50          1           0        5.495777    2.565384    0.133326
     51          6           0        3.193360    4.267737    0.312261
     52          1           0        2.603181    4.826179    1.029044
     53          6           0        4.207673    4.882982   -0.290064
     54          1           0        4.803803    4.408536   -1.049656
     55          1           0        4.467928    5.903466   -0.058597
     56          6           0       -2.022928    5.151224    0.610729
     57          1           0       -1.364009    5.624159   -0.115443
     58          1           0       -1.619570    5.337182    1.606686
     59          1           0       -3.000853    5.618214    0.546628
     60          6           0       -4.655420    3.336638    0.041681
     61          1           0       -5.120291    2.949697   -0.864334
     62          1           0       -4.747923    4.420817    0.040373
     63          1           0       -5.208656    2.947245    0.898514
     64          6           0        1.601938   -0.509216    5.218474
     65          1           0        1.285907   -1.352484    5.832151
     66          1           0        1.491463    0.399957    5.809857
     67          1           0        2.650463   -0.633335    4.967821
     68          7           0       -0.566965   -0.237018    4.008200
     69          1           0       -1.134271   -0.152950    4.835777
     70          6           0        0.791355   -0.420792    3.976949
     71          6           0       -0.998415   -0.161510    2.730247
     72          1           0       -2.018668   -0.037575    2.431715
     73          7           0       -0.000894   -0.280027    1.892719
     74          6           0        1.120894   -0.452423    2.651197
     75          1           0        2.084939   -0.601029    2.208341
     76          6           0       -1.450127    2.380456   -3.258906
     77          1           0       -2.058455    2.387456   -2.359659
     78          1           0       -2.005056    1.874961   -4.045703
     79          1           0       -1.260128    3.408036   -3.560730
     80          6           0       -0.139154    1.666674   -2.997787
     81          1           0        0.423169    2.152912   -2.202829
     82          1           0        0.465806    1.617416   -3.902302
     83         16           0       -0.464136   -0.067224   -2.478644
     84          6           0        0.962664   -0.847563   -3.300671
     85          1           0        1.888809   -0.403748   -2.949948
     86          1           0        0.851275   -0.717544   -4.374056
     87          1           0        0.945787   -1.903469   -3.054645
 ---------------------------------------------------------------------
 Rotational constants (GHZ):           0.0837013           0.0816416           0.0590341
 Standard basis: def2TZVP (5D, 7F)
 There are  1894 symmetry adapted cartesian basis functions of A   symmetry.
 There are  1667 symmetry adapted basis functions of A   symmetry.
  1667 basis functions,  2700 primitive gaussians,  1894 cartesian basis functions
   176 alpha electrons      172 beta electrons
       nuclear repulsion energy      7166.6599791475 Hartrees.
 NAtoms=   87 NActive=   87 NUniq=   87 SFac= 1.00D+00 NAtFMM=   60 NAOKFM=T Big=T
 Integral buffers will be    131072 words long.
 Raffenetti 2 integral format.
 Two-electron integral symmetry is turned on.
 R6APFD:  NTU= -4 IXU= 1 FactS= 1.050
 Nuclear repulsion after empirical dispersion term =     7166.4757675018 Hartrees.
 One-electron integrals computed using PRISM.
   1 Symmetry operations used in ECPInt.
 ECPInt:  NShTT=  224115 NPrTT=  692067 LenC2=  178802 LenP2D=  364099.
 LDataN:  DoStor=T MaxTD1= 6 Len=  172
 Number of processors reduced to  21 by ecpmxn.
 NBasis=  1667 RedAO= T EigKep=  3.47D-06  NBF=  1667
 NBsUse=  1667 1.00D-06 EigRej= -1.00D+00 NBFU=  1667
 Initial guess from the checkpoint file:  "1hrc_II_Qn.chk"
 B after Tr=     0.000000   -0.000000   -0.000000
         Rot=    1.000000   -0.000000    0.000000    0.000000 Ang=   0.00 deg.
 Initial guess <Sx>= 0.0000 <Sy>= 0.0000 <Sz>= 2.0000 <S**2>= 6.1537 S= 2.0305
 Requested convergence on RMS density matrix=1.00D-08 within 999 cycles.
 Requested convergence on MAX density matrix=1.00D-06.
 Requested convergence on             energy=1.00D-06.
 No special actions if energy rises.
 Restarting incremental Fock formation.
 SCF Done:  E(UAPFD) =  -3424.81493498     A.U. after   35 cycles
            NFock= 35  Conv=0.92D-09     -V/T= 2.0029
 <Sx>= 0.0000 <Sy>= 0.0000 <Sz>= 2.0000 <S**2>= 6.1659 S= 2.0330
 <L.S>=  0.00000000000    
 Annihilation of the first spin contaminant:
 S**2 before annihilation     6.1659,   after     6.0009

 **********************************************************************

            Population analysis using the SCF Density.

 **********************************************************************

 Orbital symmetries:
 Alpha Orbitals:
       Occupied  (A) (A) (A) (A) (A) (A) (A) (A) (A) (A) (A) (A)
                 (A) (A) (A) (A) (A) (A) (A) (A) (A) (A) (A) (A)
                 (A) (A) (A) (A) (A) (A) (A) (A) (A) (A) (A) (A)
                 (A) (A) (A) (A) (A) (A) (A) (A) (A) (A) (A) (A)
                 (A) (A) (A) (A) (A) (A) (A) (A) (A) (A) (A) (A)
                 (A) (A) (A) (A) (A) (A) (A) (A) (A) (A) (A) (A)
                 (A) (A) (A) (A) (A) (A) (A) (A) (A) (A) (A) (A)
                 (A) (A) (A) (A) (A) (A) (A) (A) (A) (A) (A) (A)
                 (A) (A) (A) (A) (A) (A) (A) (A) (A) (A) (A) (A)
                 (A) (A) (A) (A) (A) (A) (A) (A) (A) (A) (A) (A)
                 (A) (A) (A) (A) (A) (A) (A) (A) (A) (A) (A) (A)
                 (A) (A) (A) (A) (A) (A) (A) (A) (A) (A) (A) (A)
                 (A) (A) (A) (A) (A) (A) (A) (A) (A) (A) (A) (A)
                 (A) (A) (A) (A) (A) (A) (A) (A) (A) (A) (A) (A)
                 (A) (A) (A) (A) (A) (A) (A) (A)
       Virtual   (A) (A) (A) (A) (A) (A) (A) (A) (A) (A) (A) (A)
                 (A) (A) (A) (A) (A) (A) (A) (A) (A) (A) (A) (A)
                 (A) (A) (A) (A) (A) (A) (A) (A) (A) (A) (A) (A)
                 (A) (A) (A) (A) (A) (A) (A) (A) (A) (A) (A) (A)
                 (A) (A) (A) (A) (A) (A) (A) (A) (A) (A) (A) (A)
                 (A) (A) (A) (A) (A) (A) (A) (A) (A) (A) (A) (A)
                 (A) (A) (A) (A) (A) (A) (A) (A) (A) (A) (A) (A)
                 (A) (A) (A) (A) (A) (A) (A) (A) (A) (A) (A) (A)
                 (A) (A) (A) (A) (A) (A) (A) (A) (A) (A) (A) (A)
                 (A) (A) (A) (A) (A) (A) (A) (A) (A) (A) (A) (A)
                 (A) (A) (A) (A) (A) (A) (A) (A) (A) (A) (A) (A)
                 (A) (A) (A) (A) (A) (A) (A) (A) (A) (A) (A) (A)
                 (A) (A) (A) (A) (A) (A) (A) (A) (A) (A) (A) (A)
                 (A) (A) (A) (A) (A) (A) (A) (A) (A) (A) (A) (A)
                 (A) (A) (A) (A) (A) (A) (A) (A) (A) (A) (A) (A)
                 (A) (A) (A) (A) (A) (A) (A) (A) (A) (A) (A) (A)
                 (A) (A) (A) (A) (A) (A) (A) (A) (A) (A) (A) (A)
                 (A) (A) (A) (A) (A) (A) (A) (A) (A) (A) (A) (A)
                 (A) (A) (A) (A) (A) (A) (A) (A) (A) (A) (A) (A)
                 (A) (A) (A) (A) (A) (A) (A) (A) (A) (A) (A) (A)
                 (A) (A) (A) (A) (A) (A) (A) (A) (A) (A) (A) (A)
                 (A) (A) (A) (A) (A) (A) (A) (A) (A) (A) (A) (A)
                 (A) (A) (A) (A) (A) (A) (A) (A) (A) (A) (A) (A)
                 (A) (A) (A) (A) (A) (A) (A) (A) (A) (A) (A) (A)
                 (A) (A) (A) (A) (A) (A) (A) (A) (A) (A) (A) (A)
                 (A) (A) (A) (A) (A) (A) (A) (A) (A) (A) (A) (A)
                 (A) (A) (A) (A) (A) (A) (A) (A) (A) (A) (A) (A)
                 (A) (A) (A) (A) (A) (A) (A) (A) (A) (A) (A) (A)
                 (A) (A) (A) (A) (A) (A) (A) (A) (A) (A) (A) (A)
                 (A) (A) (A) (A) (A) (A) (A) (A) (A) (A) (A) (A)
                 (A) (A) (A) (A) (A) (A) (A) (A) (A) (A) (A) (A)
                 (A) (A) (A) (A) (A) (A) (A) (A) (A) (A) (A) (A)
                 (A) (A) (A) (A) (A) (A) (A) (A) (A) (A) (A) (A)
                 (A) (A) (A) (A) (A) (A) (A) (A) (A) (A) (A) (A)
                 (A) (A) (A) (A) (A) (A) (A) (A) (A) (A) (A) (A)
                 (A) (A) (A) (A) (A) (A) (A) (A) (A) (A) (A) (A)
                 (A) (A) (A) (A) (A) (A) (A) (A) (A) (A) (A) (A)
                 (A) (A) (A) (A) (A) (A) (A) (A) (A) (A) (A) (A)
                 (A) (A) (A) (A) (A) (A) (A) (A) (A) (A) (A) (A)
                 (A) (A) (A) (A) (A) (A) (A) (A) (A) (A) (A) (A)
                 (A) (A) (A) (A) (A) (A) (A) (A) (A) (A) (A) (A)
                 (A) (A) (A) (A) (A) (A) (A) (A) (A) (A) (A) (A)
                 (A) (A) (A) (A) (A) (A) (A) (A) (A) (A) (A) (A)
                 (A) (A) (A) (A) (A) (A) (A) (A) (A) (A) (A) (A)
                 (A) (A) (A) (A) (A) (A) (A) (A) (A) (A) (A) (A)
                 (A) (A) (A) (A) (A) (A) (A) (A) (A) (A) (A) (A)
                 (A) (A) (A) (A) (A) (A) (A) (A) (A) (A) (A) (A)
                 (A) (A) (A) (A) (A) (A) (A) (A) (A) (A) (A) (A)
                 (A) (A) (A) (A) (A) (A) (A) (A) (A) (A) (A) (A)
                 (A) (A) (A) (A) (A) (A) (A) (A) (A) (A) (A) (A)
                 (A) (A) (A) (A) (A) (A) (A) (A) (A) (A) (A) (A)
                 (A) (A) (A) (A) (A) (A) (A) (A) (A) (A) (A) (A)
                 (A) (A) (A) (A) (A) (A) (A) (A) (A) (A) (A) (A)
                 (A) (A) (A) (A) (A) (A) (A) (A) (A) (A) (A) (A)
                 (A) (A) (A) (A) (A) (A) (A) (A) (A) (A) (A) (A)
                 (A) (A) (A) (A) (A) (A) (A) (A) (A) (A) (A) (A)
                 (A) (A) (A) (A) (A) (A) (A) (A) (A) (A) (A) (A)
                 (A) (A) (A) (A) (A) (A) (A) (A) (A) (A) (A) (A)
                 (A) (A) (A) (A) (A) (A) (A) (A) (A) (A) (A) (A)
                 (A) (A) (A) (A) (A) (A) (A) (A) (A) (A) (A) (A)
                 (A) (A) (A) (A) (A) (A) (A) (A) (A) (A) (A) (A)
                 (A) (A) (A) (A) (A) (A) (A) (A) (A) (A) (A) (A)
                 (A) (A) (A) (A) (A) (A) (A) (A) (A) (A) (A) (A)
                 (A) (A) (A) (A) (A) (A) (A) (A) (A) (A) (A) (A)
                 (A) (A) (A) (A) (A) (A) (A) (A) (A) (A) (A) (A)
                 (A) (A) (A) (A) (A) (A) (A) (A) (A) (A) (A) (A)
                 (A) (A) (A) (A) (A) (A) (A) (A) (A) (A) (A) (A)
                 (A) (A) (A) (A) (A) (A) (A) (A) (A) (A) (A) (A)
                 (A) (A) (A) (A) (A) (A) (A) (A) (A) (A) (A) (A)
                 (A) (A) (A) (A) (A) (A) (A) (A) (A) (A) (A) (A)
                 (A) (A) (A) (A) (A) (A) (A) (A) (A) (A) (A) (A)
                 (A) (A) (A) (A) (A) (A) (A) (A) (A) (A) (A) (A)
                 (A) (A) (A) (A) (A) (A) (A) (A) (A) (A) (A) (A)
                 (A) (A) (A) (A) (A) (A) (A) (A) (A) (A) (A) (A)
                 (A) (A) (A) (A) (A) (A) (A) (A) (A) (A) (A) (A)
                 (A) (A) (A) (A) (A) (A) (A) (A) (A) (A) (A) (A)
                 (A) (A) (A) (A) (A) (A) (A) (A) (A) (A) (A) (A)
                 (A) (A) (A) (A) (A) (A) (A) (A) (A) (A) (A) (A)
                 (A) (A) (A) (A) (A) (A) (A) (A) (A) (A) (A) (A)
                 (A) (A) (A) (A) (A) (A) (A) (A) (A) (A) (A) (A)
                 (A) (A) (A) (A) (A) (A) (A) (A) (A) (A) (A) (A)
                 (A) (A) (A) (A) (A) (A) (A) (A) (A) (A) (A) (A)
                 (A) (A) (A) (A) (A) (A) (A) (A) (A) (A) (A) (A)
                 (A) (A) (A) (A) (A) (A) (A) (A) (A) (A) (A) (A)
                 (A) (A) (A) (A) (A) (A) (A) (A) (A) (A) (A) (A)
                 (A) (A) (A) (A) (A) (A) (A) (A) (A) (A) (A) (A)
                 (A) (A) (A) (A) (A) (A) (A) (A) (A) (A) (A) (A)
                 (A) (A) (A) (A) (A) (A) (A) (A) (A) (A) (A) (A)
                 (A) (A) (A) (A) (A) (A) (A) (A) (A) (A) (A) (A)
                 (A) (A) (A) (A) (A) (A) (A) (A) (A) (A) (A) (A)
                 (A) (A) (A) (A) (A) (A) (A) (A) (A) (A) (A) (A)
                 (A) (A) (A) (A) (A) (A) (A) (A) (A) (A) (A) (A)
                 (A) (A) (A) (A) (A) (A) (A) (A) (A) (A) (A) (A)
                 (A) (A) (A) (A) (A) (A) (A) (A) (A) (A) (A) (A)
                 (A) (A) (A) (A) (A) (A) (A) (A) (A) (A) (A) (A)
                 (A) (A) (A) (A) (A) (A) (A) (A) (A) (A) (A) (A)
                 (A) (A) (A) (A) (A) (A) (A) (A) (A) (A) (A) (A)
                 (A) (A) (A) (A) (A) (A) (A) (A) (A) (A) (A) (A)
                 (A) (A) (A) (A) (A) (A) (A) (A) (A) (A) (A) (A)
                 (A) (A) (A) (A) (A) (A) (A) (A) (A) (A) (A) (A)
                 (A) (A) (A) (A) (A) (A) (A) (A) (A) (A) (A) (A)
                 (A) (A) (A) (A) (A) (A) (A) (A) (A) (A) (A) (A)
                 (A) (A) (A) (A) (A) (A) (A) (A) (A) (A) (A) (A)
                 (A) (A) (A) (A) (A) (A) (A) (A) (A) (A) (A) (A)
                 (A) (A) (A) (A) (A) (A) (A) (A) (A) (A) (A) (A)
                 (A) (A) (A) (A) (A) (A) (A) (A) (A) (A) (A) (A)
                 (A) (A) (A) (A) (A) (A) (A) (A) (A) (A) (A) (A)
                 (A) (A) (A) (A) (A) (A) (A) (A) (A) (A) (A) (A)
                 (A) (A) (A) (A) (A) (A) (A) (A) (A) (A) (A) (A)
                 (A) (A) (A) (A) (A) (A) (A) (A) (A) (A) (A) (A)
                 (A) (A) (A) (A) (A) (A) (A) (A) (A) (A) (A) (A)
                 (A) (A) (A) (A) (A) (A) (A) (A) (A) (A) (A) (A)
                 (A) (A) (A) (A) (A) (A) (A) (A) (A) (A) (A) (A)
                 (A) (A) (A) (A) (A) (A) (A) (A) (A) (A) (A) (A)
                 (A) (A) (A) (A) (A) (A) (A) (A) (A) (A) (A) (A)
                 (A) (A) (A) (A) (A) (A) (A) (A) (A) (A) (A) (A)
                 (A) (A) (A) (A) (A) (A) (A) (A) (A) (A) (A) (A)
                 (A) (A) (A) (A) (A) (A) (A) (A) (A) (A) (A) (A)
                 (A) (A) (A) (A) (A) (A) (A) (A) (A) (A) (A) (A)
                 (A) (A) (A) (A) (A) (A) (A) (A) (A) (A) (A) (A)
                 (A) (A) (A) (A) (A) (A) (A) (A) (A) (A) (A) (A)
                 (A) (A) (A) (A) (A) (A) (A) (A) (A) (A) (A) (A)
                 (A) (A) (A) (A) (A) (A) (A) (A) (A) (A) (A) (A)
                 (A) (A) (A) (A) (A) (A) (A) (A) (A) (A) (A) (A)
                 (A) (A) (A)
 Beta  Orbitals:
       Occupied  (A) (A) (A) (A) (A) (A) (A) (A) (A) (A) (A) (A)
                 (A) (A) (A) (A) (A) (A) (A) (A) (A) (A) (A) (A)
                 (A) (A) (A) (A) (A) (A) (A) (A) (A) (A) (A) (A)
                 (A) (A) (A) (A) (A) (A) (A) (A) (A) (A) (A) (A)
                 (A) (A) (A) (A) (A) (A) (A) (A) (A) (A) (A) (A)
                 (A) (A) (A) (A) (A) (A) (A) (A) (A) (A) (A) (A)
                 (A) (A) (A) (A) (A) (A) (A) (A) (A) (A) (A) (A)
                 (A) (A) (A) (A) (A) (A) (A) (A) (A) (A) (A) (A)
                 (A) (A) (A) (A) (A) (A) (A) (A) (A) (A) (A) (A)
                 (A) (A) (A) (A) (A) (A) (A) (A) (A) (A) (A) (A)
                 (A) (A) (A) (A) (A) (A) (A) (A) (A) (A) (A) (A)
                 (A) (A) (A) (A) (A) (A) (A) (A) (A) (A) (A) (A)
                 (A) (A) (A) (A) (A) (A) (A) (A) (A) (A) (A) (A)
                 (A) (A) (A) (A) (A) (A) (A) (A) (A) (A) (A) (A)
                 (A) (A) (A) (A)
       Virtual   (A) (A) (A) (A) (A) (A) (A) (A) (A) (A) (A) (A)
                 (A) (A) (A) (A) (A) (A) (A) (A) (A) (A) (A) (A)
                 (A) (A) (A) (A) (A) (A) (A) (A) (A) (A) (A) (A)
                 (A) (A) (A) (A) (A) (A) (A) (A) (A) (A) (A) (A)
                 (A) (A) (A) (A) (A) (A) (A) (A) (A) (A) (A) (A)
                 (A) (A) (A) (A) (A) (A) (A) (A) (A) (A) (A) (A)
                 (A) (A) (A) (A) (A) (A) (A) (A) (A) (A) (A) (A)
                 (A) (A) (A) (A) (A) (A) (A) (A) (A) (A) (A) (A)
                 (A) (A) (A) (A) (A) (A) (A) (A) (A) (A) (A) (A)
                 (A) (A) (A) (A) (A) (A) (A) (A) (A) (A) (A) (A)
                 (A) (A) (A) (A) (A) (A) (A) (A) (A) (A) (A) (A)
                 (A) (A) (A) (A) (A) (A) (A) (A) (A) (A) (A) (A)
                 (A) (A) (A) (A) (A) (A) (A) (A) (A) (A) (A) (A)
                 (A) (A) (A) (A) (A) (A) (A) (A) (A) (A) (A) (A)
                 (A) (A) (A) (A) (A) (A) (A) (A) (A) (A) (A) (A)
                 (A) (A) (A) (A) (A) (A) (A) (A) (A) (A) (A) (A)
                 (A) (A) (A) (A) (A) (A) (A) (A) (A) (A) (A) (A)
                 (A) (A) (A) (A) (A) (A) (A) (A) (A) (A) (A) (A)
                 (A) (A) (A) (A) (A) (A) (A) (A) (A) (A) (A) (A)
                 (A) (A) (A) (A) (A) (A) (A) (A) (A) (A) (A) (A)
                 (A) (A) (A) (A) (A) (A) (A) (A) (A) (A) (A) (A)
                 (A) (A) (A) (A) (A) (A) (A) (A) (A) (A) (A) (A)
                 (A) (A) (A) (A) (A) (A) (A) (A) (A) (A) (A) (A)
                 (A) (A) (A) (A) (A) (A) (A) (A) (A) (A) (A) (A)
                 (A) (A) (A) (A) (A) (A) (A) (A) (A) (A) (A) (A)
                 (A) (A) (A) (A) (A) (A) (A) (A) (A) (A) (A) (A)
                 (A) (A) (A) (A) (A) (A) (A) (A) (A) (A) (A) (A)
                 (A) (A) (A) (A) (A) (A) (A) (A) (A) (A) (A) (A)
                 (A) (A) (A) (A) (A) (A) (A) (A) (A) (A) (A) (A)
                 (A) (A) (A) (A) (A) (A) (A) (A) (A) (A) (A) (A)
                 (A) (A) (A) (A) (A) (A) (A) (A) (A) (A) (A) (A)
                 (A) (A) (A) (A) (A) (A) (A) (A) (A) (A) (A) (A)
                 (A) (A) (A) (A) (A) (A) (A) (A) (A) (A) (A) (A)
                 (A) (A) (A) (A) (A) (A) (A) (A) (A) (A) (A) (A)
                 (A) (A) (A) (A) (A) (A) (A) (A) (A) (A) (A) (A)
                 (A) (A) (A) (A) (A) (A) (A) (A) (A) (A) (A) (A)
                 (A) (A) (A) (A) (A) (A) (A) (A) (A) (A) (A) (A)
                 (A) (A) (A) (A) (A) (A) (A) (A) (A) (A) (A) (A)
                 (A) (A) (A) (A) (A) (A) (A) (A) (A) (A) (A) (A)
                 (A) (A) (A) (A) (A) (A) (A) (A) (A) (A) (A) (A)
                 (A) (A) (A) (A) (A) (A) (A) (A) (A) (A) (A) (A)
                 (A) (A) (A) (A) (A) (A) (A) (A) (A) (A) (A) (A)
                 (A) (A) (A) (A) (A) (A) (A) (A) (A) (A) (A) (A)
                 (A) (A) (A) (A) (A) (A) (A) (A) (A) (A) (A) (A)
                 (A) (A) (A) (A) (A) (A) (A) (A) (A) (A) (A) (A)
                 (A) (A) (A) (A) (A) (A) (A) (A) (A) (A) (A) (A)
                 (A) (A) (A) (A) (A) (A) (A) (A) (A) (A) (A) (A)
                 (A) (A) (A) (A) (A) (A) (A) (A) (A) (A) (A) (A)
                 (A) (A) (A) (A) (A) (A) (A) (A) (A) (A) (A) (A)
                 (A) (A) (A) (A) (A) (A) (A) (A) (A) (A) (A) (A)
                 (A) (A) (A) (A) (A) (A) (A) (A) (A) (A) (A) (A)
                 (A) (A) (A) (A) (A) (A) (A) (A) (A) (A) (A) (A)
                 (A) (A) (A) (A) (A) (A) (A) (A) (A) (A) (A) (A)
                 (A) (A) (A) (A) (A) (A) (A) (A) (A) (A) (A) (A)
                 (A) (A) (A) (A) (A) (A) (A) (A) (A) (A) (A) (A)
                 (A) (A) (A) (A) (A) (A) (A) (A) (A) (A) (A) (A)
                 (A) (A) (A) (A) (A) (A) (A) (A) (A) (A) (A) (A)
                 (A) (A) (A) (A) (A) (A) (A) (A) (A) (A) (A) (A)
                 (A) (A) (A) (A) (A) (A) (A) (A) (A) (A) (A) (A)
                 (A) (A) (A) (A) (A) (A) (A) (A) (A) (A) (A) (A)
                 (A) (A) (A) (A) (A) (A) (A) (A) (A) (A) (A) (A)
                 (A) (A) (A) (A) (A) (A) (A) (A) (A) (A) (A) (A)
                 (A) (A) (A) (A) (A) (A) (A) (A) (A) (A) (A) (A)
                 (A) (A) (A) (A) (A) (A) (A) (A) (A) (A) (A) (A)
                 (A) (A) (A) (A) (A) (A) (A) (A) (A) (A) (A) (A)
                 (A) (A) (A) (A) (A) (A) (A) (A) (A) (A) (A) (A)
                 (A) (A) (A) (A) (A) (A) (A) (A) (A) (A) (A) (A)
                 (A) (A) (A) (A) (A) (A) (A) (A) (A) (A) (A) (A)
                 (A) (A) (A) (A) (A) (A) (A) (A) (A) (A) (A) (A)
                 (A) (A) (A) (A) (A) (A) (A) (A) (A) (A) (A) (A)
                 (A) (A) (A) (A) (A) (A) (A) (A) (A) (A) (A) (A)
                 (A) (A) (A) (A) (A) (A) (A) (A) (A) (A) (A) (A)
                 (A) (A) (A) (A) (A) (A) (A) (A) (A) (A) (A) (A)
                 (A) (A) (A) (A) (A) (A) (A) (A) (A) (A) (A) (A)
                 (A) (A) (A) (A) (A) (A) (A) (A) (A) (A) (A) (A)
                 (A) (A) (A) (A) (A) (A) (A) (A) (A) (A) (A) (A)
                 (A) (A) (A) (A) (A) (A) (A) (A) (A) (A) (A) (A)
                 (A) (A) (A) (A) (A) (A) (A) (A) (A) (A) (A) (A)
                 (A) (A) (A) (A) (A) (A) (A) (A) (A) (A) (A) (A)
                 (A) (A) (A) (A) (A) (A) (A) (A) (A) (A) (A) (A)
                 (A) (A) (A) (A) (A) (A) (A) (A) (A) (A) (A) (A)
                 (A) (A) (A) (A) (A) (A) (A) (A) (A) (A) (A) (A)
                 (A) (A) (A) (A) (A) (A) (A) (A) (A) (A) (A) (A)
                 (A) (A) (A) (A) (A) (A) (A) (A) (A) (A) (A) (A)
                 (A) (A) (A) (A) (A) (A) (A) (A) (A) (A) (A) (A)
                 (A) (A) (A) (A) (A) (A) (A) (A) (A) (A) (A) (A)
                 (A) (A) (A) (A) (A) (A) (A) (A) (A) (A) (A) (A)
                 (A) (A) (A) (A) (A) (A) (A) (A) (A) (A) (A) (A)
                 (A) (A) (A) (A) (A) (A) (A) (A) (A) (A) (A) (A)
                 (A) (A) (A) (A) (A) (A) (A) (A) (A) (A) (A) (A)
                 (A) (A) (A) (A) (A) (A) (A) (A) (A) (A) (A) (A)
                 (A) (A) (A) (A) (A) (A) (A) (A) (A) (A) (A) (A)
                 (A) (A) (A) (A) (A) (A) (A) (A) (A) (A) (A) (A)
                 (A) (A) (A) (A) (A) (A) (A) (A) (A) (A) (A) (A)
                 (A) (A) (A) (A) (A) (A) (A) (A) (A) (A) (A) (A)
                 (A) (A) (A) (A) (A) (A) (A) (A) (A) (A) (A) (A)
                 (A) (A) (A) (A) (A) (A) (A) (A) (A) (A) (A) (A)
                 (A) (A) (A) (A) (A) (A) (A) (A) (A) (A) (A) (A)
                 (A) (A) (A) (A) (A) (A) (A) (A) (A) (A) (A) (A)
                 (A) (A) (A) (A) (A) (A) (A) (A) (A) (A) (A) (A)
                 (A) (A) (A) (A) (A) (A) (A) (A) (A) (A) (A) (A)
                 (A) (A) (A) (A) (A) (A) (A) (A) (A) (A) (A) (A)
                 (A) (A) (A) (A) (A) (A) (A) (A) (A) (A) (A) (A)
                 (A) (A) (A) (A) (A) (A) (A) (A) (A) (A) (A) (A)
                 (A) (A) (A) (A) (A) (A) (A) (A) (A) (A) (A) (A)
                 (A) (A) (A) (A) (A) (A) (A) (A) (A) (A) (A) (A)
                 (A) (A) (A) (A) (A) (A) (A) (A) (A) (A) (A) (A)
                 (A) (A) (A) (A) (A) (A) (A) (A) (A) (A) (A) (A)
                 (A) (A) (A) (A) (A) (A) (A) (A) (A) (A) (A) (A)
                 (A) (A) (A) (A) (A) (A) (A) (A) (A) (A) (A) (A)
                 (A) (A) (A) (A) (A) (A) (A) (A) (A) (A) (A) (A)
                 (A) (A) (A) (A) (A) (A) (A) (A) (A) (A) (A) (A)
                 (A) (A) (A) (A) (A) (A) (A) (A) (A) (A) (A) (A)
                 (A) (A) (A) (A) (A) (A) (A) (A) (A) (A) (A) (A)
                 (A) (A) (A) (A) (A) (A) (A) (A) (A) (A) (A) (A)
                 (A) (A) (A) (A) (A) (A) (A) (A) (A) (A) (A) (A)
                 (A) (A) (A) (A) (A) (A) (A) (A) (A) (A) (A) (A)
                 (A) (A) (A) (A) (A) (A) (A) (A) (A) (A) (A) (A)
                 (A) (A) (A) (A) (A) (A) (A) (A) (A) (A) (A) (A)
                 (A) (A) (A) (A) (A) (A) (A) (A) (A) (A) (A) (A)
                 (A) (A) (A) (A) (A) (A) (A) (A) (A) (A) (A) (A)
                 (A) (A) (A) (A) (A) (A) (A) (A) (A) (A) (A) (A)
                 (A) (A) (A) (A) (A) (A) (A) (A) (A) (A) (A) (A)
                 (A) (A) (A) (A) (A) (A) (A) (A) (A) (A) (A) (A)
                 (A) (A) (A) (A) (A) (A) (A)
 The electronic state is 5-A.
 Alpha  occ. eigenvalues -- -256.18676 -88.92887 -30.08070 -25.92521 -25.90650
 Alpha  occ. eigenvalues --  -25.90432 -14.41338 -14.34630 -14.32387 -14.32328
 Alpha  occ. eigenvalues --  -14.32161 -14.32013 -10.24960 -10.23397 -10.21211
 Alpha  occ. eigenvalues --  -10.21108 -10.20878 -10.20869 -10.20839 -10.20790
 Alpha  occ. eigenvalues --  -10.20744 -10.20658 -10.20643 -10.20542 -10.20503
 Alpha  occ. eigenvalues --  -10.20136 -10.19715 -10.19588 -10.19036 -10.18954
 Alpha  occ. eigenvalues --  -10.18701 -10.18656 -10.18620 -10.18593 -10.18590
 Alpha  occ. eigenvalues --  -10.18556 -10.18543 -10.18509 -10.18505 -10.18480
 Alpha  occ. eigenvalues --  -10.18410 -10.18327 -10.18323 -10.18247 -10.18210
 Alpha  occ. eigenvalues --  -10.18192 -10.18187 -10.18123 -10.17047  -7.95719
 Alpha  occ. eigenvalues --   -5.90302  -5.90015  -5.89489  -3.53696  -2.33282
 Alpha  occ. eigenvalues --   -2.29243  -2.28874  -1.04929  -0.97062  -0.96050
 Alpha  occ. eigenvalues --   -0.96024  -0.95019  -0.90526  -0.82256  -0.81920
 Alpha  occ. eigenvalues --   -0.81570  -0.81201  -0.80702  -0.80376  -0.79933
 Alpha  occ. eigenvalues --   -0.79592  -0.79459  -0.76896  -0.75808  -0.74344
 Alpha  occ. eigenvalues --   -0.74231  -0.73879  -0.73126  -0.71587  -0.70832
 Alpha  occ. eigenvalues --   -0.70052  -0.68244  -0.67909  -0.67801  -0.64803
 Alpha  occ. eigenvalues --   -0.64331  -0.64171  -0.63878  -0.60984  -0.60718
 Alpha  occ. eigenvalues --   -0.60367  -0.58566  -0.57523  -0.56751  -0.55811
 Alpha  occ. eigenvalues --   -0.54391  -0.54228  -0.53459  -0.52397  -0.51355
 Alpha  occ. eigenvalues --   -0.50714  -0.50409  -0.49003  -0.48070  -0.47720
 Alpha  occ. eigenvalues --   -0.47509  -0.47257  -0.46746  -0.46230  -0.45088
 Alpha  occ. eigenvalues --   -0.44627  -0.44507  -0.44362  -0.43788  -0.43567
 Alpha  occ. eigenvalues --   -0.43480  -0.43320  -0.43245  -0.43067  -0.42843
 Alpha  occ. eigenvalues --   -0.42556  -0.42378  -0.42252  -0.42049  -0.41788
 Alpha  occ. eigenvalues --   -0.41641  -0.41470  -0.41381  -0.41265  -0.40837
 Alpha  occ. eigenvalues --   -0.40507  -0.40122  -0.39653  -0.39640  -0.39430
 Alpha  occ. eigenvalues --   -0.39025  -0.38893  -0.38695  -0.38519  -0.38379
 Alpha  occ. eigenvalues --   -0.37973  -0.37792  -0.37461  -0.37074  -0.36889
 Alpha  occ. eigenvalues --   -0.36822  -0.36173  -0.35676  -0.35465  -0.34646
 Alpha  occ. eigenvalues --   -0.34334  -0.33915  -0.33723  -0.33531  -0.33345
 Alpha  occ. eigenvalues --   -0.32053  -0.31518  -0.31443  -0.31230  -0.30371
 Alpha  occ. eigenvalues --   -0.29886  -0.29351  -0.28662  -0.27735  -0.26466
 Alpha  occ. eigenvalues --   -0.26246  -0.25782  -0.23619  -0.22735  -0.22255
 Alpha  occ. eigenvalues --   -0.21694  -0.21314  -0.18194  -0.17709  -0.17022
 Alpha  occ. eigenvalues --   -0.15770
 Alpha virt. eigenvalues --   -0.06751  -0.06643  -0.01947   0.00404   0.01782
 Alpha virt. eigenvalues --    0.02225   0.02630   0.03525   0.04022   0.04761
 Alpha virt. eigenvalues --    0.05084   0.05459   0.05814   0.05910   0.06561
 Alpha virt. eigenvalues --    0.06878   0.06986   0.07767   0.07813   0.08111
 Alpha virt. eigenvalues --    0.08183   0.08836   0.09094   0.09115   0.09560
 Alpha virt. eigenvalues --    0.09715   0.09916   0.10257   0.10530   0.10833
 Alpha virt. eigenvalues --    0.11197   0.11430   0.11556   0.11925   0.12158
 Alpha virt. eigenvalues --    0.12243   0.12539   0.12602   0.12909   0.13116
 Alpha virt. eigenvalues --    0.13330   0.13392   0.13612   0.13786   0.14307
 Alpha virt. eigenvalues --    0.14378   0.14513   0.14755   0.14876   0.15011
 Alpha virt. eigenvalues --    0.15241   0.15273   0.15485   0.15713   0.15878
 Alpha virt. eigenvalues --    0.16090   0.16159   0.16279   0.16586   0.17080
 Alpha virt. eigenvalues --    0.17288   0.17451   0.17561   0.17743   0.17895
 Alpha virt. eigenvalues --    0.18091   0.18318   0.18676   0.19322   0.19476
 Alpha virt. eigenvalues --    0.19809   0.20014   0.20150   0.20388   0.20543
 Alpha virt. eigenvalues --    0.20680   0.20960   0.21260   0.21746   0.22011
 Alpha virt. eigenvalues --    0.22232   0.22346   0.22558   0.22875   0.23219
 Alpha virt. eigenvalues --    0.23522   0.23566   0.23807   0.24414   0.24578
 Alpha virt. eigenvalues --    0.24848   0.25274   0.25331   0.25710   0.25791
 Alpha virt. eigenvalues --    0.25968   0.26474   0.26645   0.26753   0.26965
 Alpha virt. eigenvalues --    0.27220   0.27765   0.28012   0.28289   0.28396
 Alpha virt. eigenvalues --    0.28727   0.28751   0.29036   0.29580   0.29619
 Alpha virt. eigenvalues --    0.29828   0.30030   0.30431   0.30452   0.30609
 Alpha virt. eigenvalues --    0.30903   0.31191   0.31295   0.31603   0.31971
 Alpha virt. eigenvalues --    0.32069   0.32569   0.32890   0.33015   0.33378
 Alpha virt. eigenvalues --    0.33667   0.33922   0.34062   0.34258   0.34660
 Alpha virt. eigenvalues --    0.34807   0.34918   0.35118   0.35677   0.35725
 Alpha virt. eigenvalues --    0.36261   0.36430   0.36816   0.37076   0.37442
 Alpha virt. eigenvalues --    0.37633   0.37826   0.38117   0.38230   0.38396
 Alpha virt. eigenvalues --    0.38547   0.38899   0.39391   0.39602   0.39695
 Alpha virt. eigenvalues --    0.39936   0.40134   0.40549   0.40729   0.40823
 Alpha virt. eigenvalues --    0.40917   0.41090   0.41386   0.41444   0.41696
 Alpha virt. eigenvalues --    0.41787   0.42059   0.42385   0.42733   0.42797
 Alpha virt. eigenvalues --    0.42909   0.43260   0.43366   0.43523   0.43746
 Alpha virt. eigenvalues --    0.43768   0.44028   0.44187   0.44398   0.44599
 Alpha virt. eigenvalues --    0.44785   0.45188   0.45303   0.45663   0.45845
 Alpha virt. eigenvalues --    0.45965   0.46107   0.46207   0.46404   0.46621
 Alpha virt. eigenvalues --    0.46935   0.46958   0.47067   0.47185   0.47531
 Alpha virt. eigenvalues --    0.47599   0.47924   0.48053   0.48180   0.48390
 Alpha virt. eigenvalues --    0.48614   0.48658   0.48746   0.48949   0.49183
 Alpha virt. eigenvalues --    0.49457   0.49663   0.49848   0.49930   0.50191
 Alpha virt. eigenvalues --    0.50384   0.50679   0.50919   0.51148   0.51201
 Alpha virt. eigenvalues --    0.51361   0.51423   0.51681   0.51915   0.52224
 Alpha virt. eigenvalues --    0.52357   0.52559   0.52833   0.53368   0.53595
 Alpha virt. eigenvalues --    0.53706   0.53923   0.54108   0.54168   0.54418
 Alpha virt. eigenvalues --    0.54816   0.54845   0.55045   0.55581   0.55713
 Alpha virt. eigenvalues --    0.55844   0.56089   0.56337   0.56612   0.56789
 Alpha virt. eigenvalues --    0.57047   0.57358   0.57447   0.57866   0.58153
 Alpha virt. eigenvalues --    0.58318   0.58807   0.58941   0.59424   0.59637
 Alpha virt. eigenvalues --    0.59864   0.60551   0.60686   0.60924   0.61004
 Alpha virt. eigenvalues --    0.61175   0.61482   0.61952   0.62152   0.62599
 Alpha virt. eigenvalues --    0.62890   0.63166   0.63234   0.63888   0.64143
 Alpha virt. eigenvalues --    0.64212   0.64562   0.64608   0.65016   0.65228
 Alpha virt. eigenvalues --    0.65556   0.66125   0.66237   0.66491   0.67074
 Alpha virt. eigenvalues --    0.67337   0.67552   0.67917   0.68122   0.68428
 Alpha virt. eigenvalues --    0.68656   0.69034   0.69513   0.69600   0.69762
 Alpha virt. eigenvalues --    0.70123   0.70539   0.70719   0.71388   0.71640
 Alpha virt. eigenvalues --    0.72067   0.72146   0.72475   0.72671   0.72999
 Alpha virt. eigenvalues --    0.73188   0.73204   0.73524   0.73979   0.74605
 Alpha virt. eigenvalues --    0.74747   0.75052   0.75375   0.75659   0.75985
 Alpha virt. eigenvalues --    0.76244   0.76835   0.77086   0.77221   0.77604
 Alpha virt. eigenvalues --    0.78017   0.78105   0.78713   0.78840   0.79215
 Alpha virt. eigenvalues --    0.79513   0.79838   0.80283   0.80330   0.80572
 Alpha virt. eigenvalues --    0.81092   0.81443   0.81828   0.82582   0.82643
 Alpha virt. eigenvalues --    0.82961   0.83026   0.83352   0.83560   0.83920
 Alpha virt. eigenvalues --    0.84149   0.85008   0.85417   0.85668   0.85892
 Alpha virt. eigenvalues --    0.86771   0.86817   0.87106   0.87215   0.87239
 Alpha virt. eigenvalues --    0.87951   0.88176   0.88636   0.89080   0.89613
 Alpha virt. eigenvalues --    0.89981   0.90210   0.90415   0.90773   0.91017
 Alpha virt. eigenvalues --    0.91090   0.91919   0.92439   0.92579   0.92777
 Alpha virt. eigenvalues --    0.93030   0.93352   0.93447   0.93896   0.94079
 Alpha virt. eigenvalues --    0.94466   0.94767   0.94998   0.95132   0.95342
 Alpha virt. eigenvalues --    0.95643   0.95749   0.96255   0.96520   0.97017
 Alpha virt. eigenvalues --    0.97126   0.98035   0.98264   0.98354   0.98805
 Alpha virt. eigenvalues --    0.99038   0.99475   0.99925   1.00230   1.00501
 Alpha virt. eigenvalues --    1.00632   1.00982   1.01589   1.01727   1.01902
 Alpha virt. eigenvalues --    1.02423   1.02504   1.02791   1.03229   1.03513
 Alpha virt. eigenvalues --    1.03774   1.03973   1.04195   1.04748   1.05083
 Alpha virt. eigenvalues --    1.05507   1.05733   1.05921   1.06148   1.06267
 Alpha virt. eigenvalues --    1.06613   1.06994   1.07468   1.07664   1.08378
 Alpha virt. eigenvalues --    1.08506   1.08802   1.08998   1.09458   1.10560
 Alpha virt. eigenvalues --    1.10765   1.10907   1.11191   1.11427   1.11864
 Alpha virt. eigenvalues --    1.12344   1.12919   1.13311   1.13444   1.13786
 Alpha virt. eigenvalues --    1.13989   1.14541   1.14776   1.15213   1.15708
 Alpha virt. eigenvalues --    1.16017   1.16304   1.16891   1.17040   1.17550
 Alpha virt. eigenvalues --    1.17672   1.18222   1.18449   1.18892   1.19202
 Alpha virt. eigenvalues --    1.19746   1.20130   1.20555   1.20593   1.21042
 Alpha virt. eigenvalues --    1.21417   1.21697   1.21959   1.22498   1.22788
 Alpha virt. eigenvalues --    1.23407   1.23537   1.24112   1.24307   1.24950
 Alpha virt. eigenvalues --    1.25328   1.25618   1.26021   1.26334   1.26522
 Alpha virt. eigenvalues --    1.27117   1.27207   1.27848   1.28155   1.28578
 Alpha virt. eigenvalues --    1.28741   1.28841   1.29175   1.29537   1.29773
 Alpha virt. eigenvalues --    1.30256   1.30481   1.30846   1.31221   1.31766
 Alpha virt. eigenvalues --    1.32252   1.32657   1.33095   1.33824   1.33916
 Alpha virt. eigenvalues --    1.34482   1.34651   1.35331   1.35971   1.36344
 Alpha virt. eigenvalues --    1.37089   1.37653   1.37744   1.38370   1.38806
 Alpha virt. eigenvalues --    1.39330   1.39945   1.40474   1.41176   1.41317
 Alpha virt. eigenvalues --    1.41695   1.42215   1.43082   1.43231   1.43679
 Alpha virt. eigenvalues --    1.44142   1.44366   1.45205   1.45671   1.45738
 Alpha virt. eigenvalues --    1.46451   1.47020   1.47307   1.47686   1.47967
 Alpha virt. eigenvalues --    1.48235   1.48323   1.49019   1.49471   1.49756
 Alpha virt. eigenvalues --    1.50205   1.50245   1.51038   1.51127   1.51300
 Alpha virt. eigenvalues --    1.51708   1.52060   1.52296   1.52399   1.52445
 Alpha virt. eigenvalues --    1.52902   1.53085   1.53503   1.53648   1.54058
 Alpha virt. eigenvalues --    1.54279   1.54358   1.54905   1.55346   1.55578
 Alpha virt. eigenvalues --    1.55788   1.55865   1.56280   1.56365   1.56404
 Alpha virt. eigenvalues --    1.56645   1.56989   1.57169   1.57599   1.57617
 Alpha virt. eigenvalues --    1.57981   1.58114   1.58496   1.58641   1.58777
 Alpha virt. eigenvalues --    1.59237   1.59367   1.59852   1.59955   1.60320
 Alpha virt. eigenvalues --    1.60648   1.60918   1.61145   1.61444   1.61869
 Alpha virt. eigenvalues --    1.62103   1.62315   1.62452   1.62774   1.63164
 Alpha virt. eigenvalues --    1.63794   1.63856   1.64360   1.64568   1.64939
 Alpha virt. eigenvalues --    1.65144   1.65233   1.65639   1.66017   1.66181
 Alpha virt. eigenvalues --    1.66422   1.67172   1.67616   1.67666   1.67916
 Alpha virt. eigenvalues --    1.68032   1.68383   1.68788   1.69171   1.69527
 Alpha virt. eigenvalues --    1.69662   1.70166   1.70358   1.70733   1.70976
 Alpha virt. eigenvalues --    1.71272   1.71692   1.71857   1.71897   1.72219
 Alpha virt. eigenvalues --    1.72893   1.73149   1.73504   1.73638   1.74110
 Alpha virt. eigenvalues --    1.74524   1.74767   1.75065   1.75255   1.75586
 Alpha virt. eigenvalues --    1.76145   1.76465   1.77121   1.77688   1.78091
 Alpha virt. eigenvalues --    1.78715   1.78849   1.78996   1.80009   1.80095
 Alpha virt. eigenvalues --    1.80530   1.81372   1.81644   1.82084   1.82618
 Alpha virt. eigenvalues --    1.82874   1.83459   1.83740   1.84209   1.84630
 Alpha virt. eigenvalues --    1.85041   1.85540   1.85770   1.86211   1.86379
 Alpha virt. eigenvalues --    1.87073   1.87256   1.87512   1.87908   1.88320
 Alpha virt. eigenvalues --    1.88559   1.88714   1.89371   1.89862   1.89917
 Alpha virt. eigenvalues --    1.90170   1.91254   1.91630   1.91821   1.92133
 Alpha virt. eigenvalues --    1.92985   1.93314   1.94152   1.94353   1.94661
 Alpha virt. eigenvalues --    1.94896   1.95382   1.95973   1.96080   1.96392
 Alpha virt. eigenvalues --    1.97000   1.97358   1.97748   1.98545   1.98946
 Alpha virt. eigenvalues --    1.99386   1.99705   2.00104   2.00427   2.00653
 Alpha virt. eigenvalues --    2.00946   2.01278   2.01538   2.01897   2.02054
 Alpha virt. eigenvalues --    2.02632   2.03012   2.03803   2.03955   2.04213
 Alpha virt. eigenvalues --    2.04851   2.05535   2.05806   2.06559   2.06744
 Alpha virt. eigenvalues --    2.07411   2.07616   2.08363   2.08502   2.09127
 Alpha virt. eigenvalues --    2.09442   2.09707   2.10264   2.10695   2.10929
 Alpha virt. eigenvalues --    2.11452   2.11779   2.12062   2.12330   2.12958
 Alpha virt. eigenvalues --    2.13257   2.13482   2.14422   2.14696   2.14961
 Alpha virt. eigenvalues --    2.15257   2.15770   2.15979   2.16544   2.16677
 Alpha virt. eigenvalues --    2.16955   2.17386   2.18022   2.18543   2.19054
 Alpha virt. eigenvalues --    2.19171   2.19557   2.19583   2.20371   2.20611
 Alpha virt. eigenvalues --    2.20973   2.21474   2.21647   2.22010   2.22303
 Alpha virt. eigenvalues --    2.22328   2.22945   2.23253   2.23568   2.25027
 Alpha virt. eigenvalues --    2.25196   2.25577   2.25978   2.26459   2.26808
 Alpha virt. eigenvalues --    2.27447   2.27625   2.27934   2.28325   2.28902
 Alpha virt. eigenvalues --    2.29186   2.29529   2.29802   2.30112   2.30458
 Alpha virt. eigenvalues --    2.31036   2.31557   2.31685   2.32171   2.32319
 Alpha virt. eigenvalues --    2.32834   2.33546   2.33991   2.34477   2.34898
 Alpha virt. eigenvalues --    2.35034   2.35672   2.36146   2.36583   2.36777
 Alpha virt. eigenvalues --    2.37237   2.37394   2.37723   2.38072   2.38274
 Alpha virt. eigenvalues --    2.38818   2.38965   2.39278   2.39679   2.40012
 Alpha virt. eigenvalues --    2.40662   2.40984   2.41407   2.42018   2.42505
 Alpha virt. eigenvalues --    2.43105   2.43246   2.43330   2.44061   2.44391
 Alpha virt. eigenvalues --    2.44885   2.45159   2.45273   2.46022   2.46243
 Alpha virt. eigenvalues --    2.46491   2.46838   2.47460   2.47569   2.47795
 Alpha virt. eigenvalues --    2.48510   2.48923   2.49137   2.49651   2.50049
 Alpha virt. eigenvalues --    2.50335   2.50714   2.51021   2.51544   2.52056
 Alpha virt. eigenvalues --    2.52207   2.52757   2.52904   2.53603   2.53796
 Alpha virt. eigenvalues --    2.54213   2.54499   2.55172   2.55366   2.55851
 Alpha virt. eigenvalues --    2.56044   2.56221   2.56939   2.57064   2.57238
 Alpha virt. eigenvalues --    2.57664   2.57828   2.57853   2.58827   2.59077
 Alpha virt. eigenvalues --    2.59152   2.59415   2.59855   2.60129   2.60312
 Alpha virt. eigenvalues --    2.60761   2.61011   2.61276   2.61700   2.61891
 Alpha virt. eigenvalues --    2.62694   2.62765   2.63108   2.63613   2.64257
 Alpha virt. eigenvalues --    2.64615   2.64876   2.65064   2.65350   2.65940
 Alpha virt. eigenvalues --    2.66014   2.66340   2.66542   2.66919   2.67154
 Alpha virt. eigenvalues --    2.67664   2.67856   2.68218   2.68424   2.68987
 Alpha virt. eigenvalues --    2.69319   2.69677   2.70049   2.70473   2.70648
 Alpha virt. eigenvalues --    2.70861   2.71530   2.71680   2.72207   2.72872
 Alpha virt. eigenvalues --    2.73246   2.73572   2.73994   2.74090   2.74584
 Alpha virt. eigenvalues --    2.75088   2.75335   2.75831   2.76077   2.76704
 Alpha virt. eigenvalues --    2.76832   2.77491   2.77861   2.78183   2.78616
 Alpha virt. eigenvalues --    2.79013   2.79558   2.79761   2.80088   2.80549
 Alpha virt. eigenvalues --    2.80994   2.81478   2.81905   2.82104   2.82662
 Alpha virt. eigenvalues --    2.82733   2.83091   2.83521   2.83871   2.84356
 Alpha virt. eigenvalues --    2.85012   2.85138   2.85394   2.85508   2.85770
 Alpha virt. eigenvalues --    2.86393   2.86805   2.87166   2.87383   2.88052
 Alpha virt. eigenvalues --    2.88580   2.88798   2.89651   2.89724   2.90245
 Alpha virt. eigenvalues --    2.90655   2.91029   2.91312   2.91738   2.91973
 Alpha virt. eigenvalues --    2.92159   2.92196   2.92781   2.93367   2.93740
 Alpha virt. eigenvalues --    2.94070   2.94534   2.94747   2.95268   2.95476
 Alpha virt. eigenvalues --    2.95766   2.96299   2.96513   2.96937   2.97279
 Alpha virt. eigenvalues --    2.97801   2.98214   2.98283   2.98767   2.99015
 Alpha virt. eigenvalues --    2.99167   2.99654   2.99905   3.00625   3.00673
 Alpha virt. eigenvalues --    3.00907   3.01188   3.01552   3.01938   3.02786
 Alpha virt. eigenvalues --    3.02853   3.03475   3.03675   3.04028   3.04515
 Alpha virt. eigenvalues --    3.04930   3.05102   3.05528   3.06068   3.06445
 Alpha virt. eigenvalues --    3.06780   3.07109   3.07590   3.07756   3.08202
 Alpha virt. eigenvalues --    3.08357   3.08857   3.09302   3.09828   3.09998
 Alpha virt. eigenvalues --    3.10582   3.10676   3.10919   3.11082   3.11356
 Alpha virt. eigenvalues --    3.11882   3.12023   3.12098   3.12559   3.12774
 Alpha virt. eigenvalues --    3.13016   3.13122   3.13708   3.14271   3.14539
 Alpha virt. eigenvalues --    3.14628   3.14793   3.15658   3.15692   3.16346
 Alpha virt. eigenvalues --    3.16468   3.16639   3.16771   3.17117   3.17372
 Alpha virt. eigenvalues --    3.18021   3.18091   3.18175   3.18699   3.18992
 Alpha virt. eigenvalues --    3.19602   3.19704   3.19939   3.19995   3.20685
 Alpha virt. eigenvalues --    3.20787   3.21163   3.21257   3.21752   3.22133
 Alpha virt. eigenvalues --    3.22239   3.22773   3.23092   3.23242   3.23411
 Alpha virt. eigenvalues --    3.23914   3.24555   3.24631   3.24798   3.25088
 Alpha virt. eigenvalues --    3.25256   3.25532   3.25817   3.26029   3.26390
 Alpha virt. eigenvalues --    3.26764   3.26818   3.27253   3.27269   3.27573
 Alpha virt. eigenvalues --    3.27786   3.28126   3.28502   3.28622   3.28916
 Alpha virt. eigenvalues --    3.29196   3.29364   3.29879   3.30215   3.30456
 Alpha virt. eigenvalues --    3.30682   3.30817   3.30962   3.31159   3.31347
 Alpha virt. eigenvalues --    3.31532   3.31703   3.32065   3.32533   3.32688
 Alpha virt. eigenvalues --    3.33000   3.33274   3.33694   3.33968   3.34312
 Alpha virt. eigenvalues --    3.34403   3.34756   3.35144   3.35236   3.35771
 Alpha virt. eigenvalues --    3.35796   3.36287   3.36496   3.36722   3.36771
 Alpha virt. eigenvalues --    3.36915   3.37632   3.37818   3.37987   3.38279
 Alpha virt. eigenvalues --    3.38317   3.38617   3.38917   3.38968   3.39293
 Alpha virt. eigenvalues --    3.39948   3.40047   3.40231   3.40468   3.40796
 Alpha virt. eigenvalues --    3.41054   3.41160   3.41837   3.41887   3.42554
 Alpha virt. eigenvalues --    3.42603   3.43173   3.43342   3.43609   3.44186
 Alpha virt. eigenvalues --    3.44510   3.44822   3.44916   3.45652   3.45910
 Alpha virt. eigenvalues --    3.46063   3.46596   3.46983   3.47541   3.48135
 Alpha virt. eigenvalues --    3.48273   3.48353   3.48591   3.49005   3.49694
 Alpha virt. eigenvalues --    3.50309   3.50829   3.50948   3.51519   3.51717
 Alpha virt. eigenvalues --    3.51811   3.52516   3.53012   3.53334   3.53626
 Alpha virt. eigenvalues --    3.54247   3.54746   3.55211   3.55539   3.55731
 Alpha virt. eigenvalues --    3.56386   3.56883   3.57238   3.57658   3.57776
 Alpha virt. eigenvalues --    3.58096   3.58556   3.59026   3.59243   3.59585
 Alpha virt. eigenvalues --    3.60112   3.60419   3.60819   3.61150   3.61606
 Alpha virt. eigenvalues --    3.62350   3.62518   3.62784   3.63383   3.63701
 Alpha virt. eigenvalues --    3.64243   3.64813   3.65022   3.65480   3.65827
 Alpha virt. eigenvalues --    3.66171   3.66710   3.66748   3.67313   3.67633
 Alpha virt. eigenvalues --    3.68597   3.68898   3.68989   3.69256   3.69584
 Alpha virt. eigenvalues --    3.70087   3.70534   3.70849   3.71032   3.71391
 Alpha virt. eigenvalues --    3.71800   3.71873   3.72270   3.72818   3.73045
 Alpha virt. eigenvalues --    3.73758   3.74218   3.74350   3.74758   3.74802
 Alpha virt. eigenvalues --    3.75407   3.75779   3.75870   3.76561   3.76922
 Alpha virt. eigenvalues --    3.78085   3.78232   3.78817   3.79673   3.79832
 Alpha virt. eigenvalues --    3.80247   3.80350   3.81197   3.81413   3.82382
 Alpha virt. eigenvalues --    3.82462   3.83090   3.83271   3.83796   3.84305
 Alpha virt. eigenvalues --    3.84870   3.85524   3.85619   3.86522   3.87243
 Alpha virt. eigenvalues --    3.87836   3.88314   3.88332   3.88936   3.89543
 Alpha virt. eigenvalues --    3.90599   3.91018   3.91872   3.92273   3.92383
 Alpha virt. eigenvalues --    3.92867   3.93297   3.93921   3.95198   3.95442
 Alpha virt. eigenvalues --    3.96147   3.96374   3.97519   3.97877   3.98171
 Alpha virt. eigenvalues --    3.98321   3.99660   3.99982   4.00111   4.00581
 Alpha virt. eigenvalues --    4.01039   4.01224   4.01553   4.02364   4.02523
 Alpha virt. eigenvalues --    4.03774   4.04142   4.04446   4.04870   4.04929
 Alpha virt. eigenvalues --    4.05432   4.06074   4.06920   4.07329   4.08023
 Alpha virt. eigenvalues --    4.08904   4.09384   4.10173   4.11127   4.11358
 Alpha virt. eigenvalues --    4.11427   4.12519   4.12849   4.14301   4.14665
 Alpha virt. eigenvalues --    4.15503   4.15737   4.16184   4.16927   4.17493
 Alpha virt. eigenvalues --    4.17796   4.18525   4.19017   4.19722   4.20301
 Alpha virt. eigenvalues --    4.20660   4.20819   4.22163   4.22436   4.22949
 Alpha virt. eigenvalues --    4.23826   4.24187   4.24974   4.25433   4.25817
 Alpha virt. eigenvalues --    4.26252   4.26316   4.26911   4.27410   4.27652
 Alpha virt. eigenvalues --    4.28322   4.29515   4.29670   4.29794   4.30730
 Alpha virt. eigenvalues --    4.31427   4.31914   4.32915   4.33429   4.33790
 Alpha virt. eigenvalues --    4.34142   4.34532   4.35046   4.35332   4.36190
 Alpha virt. eigenvalues --    4.36246   4.37072   4.37699   4.37998   4.39072
 Alpha virt. eigenvalues --    4.39548   4.40197   4.40245   4.40508   4.41149
 Alpha virt. eigenvalues --    4.41591   4.41769   4.42687   4.42838   4.43097
 Alpha virt. eigenvalues --    4.43638   4.44279   4.44645   4.45192   4.45516
 Alpha virt. eigenvalues --    4.46171   4.47053   4.47159   4.47269   4.47617
 Alpha virt. eigenvalues --    4.48044   4.48428   4.48895   4.49941   4.50512
 Alpha virt. eigenvalues --    4.51326   4.52333   4.54227   4.54910   4.55294
 Alpha virt. eigenvalues --    4.55650   4.56361   4.56814   4.57571   4.58055
 Alpha virt. eigenvalues --    4.58667   4.59331   4.60544   4.61554   4.63706
 Alpha virt. eigenvalues --    4.64178   4.65171   4.66141   4.67017   4.68465
 Alpha virt. eigenvalues --    4.68790   4.69082   4.69688   4.70484   4.70810
 Alpha virt. eigenvalues --    4.71822   4.72276   4.72832   4.73351   4.73987
 Alpha virt. eigenvalues --    4.74905   4.75232   4.76015   4.76889   4.77126
 Alpha virt. eigenvalues --    4.78957   4.80308   4.80777   4.82120   4.82632
 Alpha virt. eigenvalues --    4.82856   4.84158   4.84386   4.85149   4.86098
 Alpha virt. eigenvalues --    4.86522   4.86914   4.87264   4.87414   4.88799
 Alpha virt. eigenvalues --    4.89575   4.89714   4.91113   4.91834   4.93677
 Alpha virt. eigenvalues --    4.93957   4.94886   4.95553   4.96516   4.97172
 Alpha virt. eigenvalues --    4.97840   4.97963   4.99053   5.00127   5.00819
 Alpha virt. eigenvalues --    5.02519   5.02662   5.03352   5.03835   5.04480
 Alpha virt. eigenvalues --    5.05588   5.06706   5.07454   5.08243   5.08542
 Alpha virt. eigenvalues --    5.09231   5.09906   5.12770   5.13423   5.13490
 Alpha virt. eigenvalues --    5.14056   5.16077   5.17974   5.19385   5.20564
 Alpha virt. eigenvalues --    5.20886   5.22448   5.22841   5.23132   5.24359
 Alpha virt. eigenvalues --    5.26726   5.27914   5.28862   5.29785   5.30362
 Alpha virt. eigenvalues --    5.31628   5.32521   5.35046   5.36942   5.38607
 Alpha virt. eigenvalues --    5.39367   5.39613   5.40083   5.40787   5.42296
 Alpha virt. eigenvalues --    5.42755   5.43149   5.45278   5.47677   5.48714
 Alpha virt. eigenvalues --    5.50189   5.51322   5.51701   5.52549   5.53944
 Alpha virt. eigenvalues --    5.55414   5.57795   5.61134   5.61832   5.62656
 Alpha virt. eigenvalues --    5.63427   5.64050   5.64517   5.65791   5.66740
 Alpha virt. eigenvalues --    5.66937   5.67681   5.69661   5.71144   5.77360
 Alpha virt. eigenvalues --    5.78030   5.79154   5.82210   5.85811   5.87193
 Alpha virt. eigenvalues --    5.93716   5.94481   5.98207   5.99254   6.01490
 Alpha virt. eigenvalues --    6.02632   6.03784   6.03882   6.10473   6.13476
 Alpha virt. eigenvalues --    6.15281   6.15845   6.17624   6.18716   6.22530
 Alpha virt. eigenvalues --    6.27731   6.34213   6.35790   6.41750   9.30616
 Alpha virt. eigenvalues --    9.47672   9.58090  20.04343  22.35307  22.37255
 Alpha virt. eigenvalues --   22.42035  22.44376  22.46223  22.46663  22.49187
 Alpha virt. eigenvalues --   22.53988  22.54511  22.55155  22.61677  22.62597
 Alpha virt. eigenvalues --   22.81829  22.86591  22.87296  22.92814  22.95947
 Alpha virt. eigenvalues --   22.96801  22.98077  22.99962  23.03580  23.04523
 Alpha virt. eigenvalues --   23.12480  23.13861  23.28022  23.29469  23.31208
 Alpha virt. eigenvalues --   23.32778  23.43187  23.43472  23.51777  23.52978
 Alpha virt. eigenvalues --   23.56807  23.74480  23.79235  23.80030  23.89681
 Alpha virt. eigenvalues --   32.42646  32.86897  32.96690  33.05916  33.08880
 Alpha virt. eigenvalues --   33.16141
  Beta  occ. eigenvalues -- -256.18547 -88.92823 -29.99699 -25.84732 -25.84053
  Beta  occ. eigenvalues --  -25.83847 -14.41332 -14.34405 -14.32148 -14.32136
  Beta  occ. eigenvalues --  -14.31931 -14.31808 -10.24976 -10.23386 -10.21193
  Beta  occ. eigenvalues --  -10.21142 -10.20888 -10.20869 -10.20867 -10.20801
  Beta  occ. eigenvalues --  -10.20736 -10.20683 -10.20674 -10.20544 -10.20518
  Beta  occ. eigenvalues --  -10.20148 -10.19713 -10.19580 -10.19015 -10.18955
  Beta  occ. eigenvalues --  -10.18697 -10.18654 -10.18614 -10.18586 -10.18586
  Beta  occ. eigenvalues --  -10.18557 -10.18541 -10.18508 -10.18501 -10.18481
  Beta  occ. eigenvalues --  -10.18423 -10.18337 -10.18321 -10.18246 -10.18214
  Beta  occ. eigenvalues --  -10.18214 -10.18192 -10.18133 -10.17046  -7.95650
  Beta  occ. eigenvalues --   -5.90254  -5.89943  -5.89352  -3.33773  -2.09381
  Beta  occ. eigenvalues --   -2.09314  -2.08953  -1.04838  -0.96851  -0.95851
  Beta  occ. eigenvalues --   -0.95819  -0.94807  -0.90325  -0.82273  -0.81855
  Beta  occ. eigenvalues --   -0.81517  -0.81089  -0.80632  -0.80293  -0.79912
  Beta  occ. eigenvalues --   -0.79592  -0.79454  -0.76884  -0.75782  -0.74312
  Beta  occ. eigenvalues --   -0.74221  -0.73882  -0.73122  -0.71545  -0.70793
  Beta  occ. eigenvalues --   -0.69985  -0.68151  -0.67836  -0.67748  -0.64720
  Beta  occ. eigenvalues --   -0.64291  -0.64044  -0.63875  -0.60934  -0.60657
  Beta  occ. eigenvalues --   -0.60304  -0.58434  -0.57509  -0.56551  -0.55717
  Beta  occ. eigenvalues --   -0.54369  -0.54148  -0.53390  -0.52147  -0.51240
  Beta  occ. eigenvalues --   -0.50627  -0.50307  -0.48525  -0.48024  -0.47544
  Beta  occ. eigenvalues --   -0.47277  -0.47153  -0.46627  -0.46152  -0.44780
  Beta  occ. eigenvalues --   -0.44530  -0.44395  -0.44317  -0.43653  -0.43503
  Beta  occ. eigenvalues --   -0.43393  -0.43200  -0.43101  -0.42935  -0.42805
  Beta  occ. eigenvalues --   -0.42424  -0.42292  -0.42191  -0.41980  -0.41747
  Beta  occ. eigenvalues --   -0.41478  -0.41416  -0.41375  -0.41271  -0.40258
  Beta  occ. eigenvalues --   -0.40216  -0.39972  -0.39546  -0.39386  -0.39184
  Beta  occ. eigenvalues --   -0.38825  -0.38686  -0.38287  -0.37806  -0.37747
  Beta  occ. eigenvalues --   -0.37531  -0.36914  -0.36860  -0.36668  -0.36117
  Beta  occ. eigenvalues --   -0.35769  -0.35328  -0.35091  -0.34442  -0.34148
  Beta  occ. eigenvalues --   -0.33769  -0.33674  -0.32823  -0.31971  -0.31490
  Beta  occ. eigenvalues --   -0.31243  -0.30865  -0.29974  -0.29419  -0.29092
  Beta  occ. eigenvalues --   -0.28416  -0.26752  -0.26602  -0.24384  -0.24050
  Beta  occ. eigenvalues --   -0.23246  -0.22546  -0.22038  -0.21919  -0.18084
  Beta  occ. eigenvalues --   -0.17932  -0.13947
  Beta virt. eigenvalues --   -0.07354  -0.05953  -0.02254  -0.00394  -0.00037
  Beta virt. eigenvalues --    0.00504   0.02120   0.02306   0.02575   0.03707
  Beta virt. eigenvalues --    0.04042   0.04904   0.05092   0.05620   0.05834
  Beta virt. eigenvalues --    0.05884   0.06305   0.06878   0.06968   0.07181
  Beta virt. eigenvalues --    0.07806   0.08138   0.08186   0.08407   0.08885
  Beta virt. eigenvalues --    0.09093   0.09229   0.09447   0.09645   0.09886
  Beta virt. eigenvalues --    0.10034   0.10296   0.10584   0.10861   0.11216
  Beta virt. eigenvalues --    0.11447   0.11601   0.11954   0.12179   0.12249
  Beta virt. eigenvalues --    0.12559   0.12612   0.12920   0.13099   0.13396
  Beta virt. eigenvalues --    0.13598   0.13662   0.13806   0.14329   0.14493
  Beta virt. eigenvalues --    0.14563   0.14811   0.14904   0.15073   0.15284
  Beta virt. eigenvalues --    0.15384   0.15525   0.15758   0.15893   0.16125
  Beta virt. eigenvalues --    0.16236   0.16331   0.16711   0.17161   0.17287
  Beta virt. eigenvalues --    0.17512   0.17580   0.17786   0.17939   0.18114
  Beta virt. eigenvalues --    0.18388   0.18798   0.19367   0.19502   0.19859
  Beta virt. eigenvalues --    0.20051   0.20173   0.20564   0.20610   0.20792
  Beta virt. eigenvalues --    0.21031   0.21302   0.21803   0.22040   0.22283
  Beta virt. eigenvalues --    0.22398   0.22636   0.22978   0.23247   0.23547
  Beta virt. eigenvalues --    0.23584   0.23886   0.24533   0.24670   0.24970
  Beta virt. eigenvalues --    0.25346   0.25383   0.25755   0.25873   0.26049
  Beta virt. eigenvalues --    0.26629   0.26723   0.26908   0.27009   0.27366
  Beta virt. eigenvalues --    0.27965   0.28295   0.28383   0.28676   0.28791
  Beta virt. eigenvalues --    0.28858   0.29226   0.29629   0.29849   0.29957
  Beta virt. eigenvalues --    0.30194   0.30559   0.30686   0.30955   0.31125
  Beta virt. eigenvalues --    0.31276   0.31340   0.31760   0.32148   0.32210
  Beta virt. eigenvalues --    0.32689   0.32986   0.33116   0.33432   0.33765
  Beta virt. eigenvalues --    0.33996   0.34192   0.34363   0.34719   0.34991
  Beta virt. eigenvalues --    0.35072   0.35282   0.35761   0.35769   0.36387
  Beta virt. eigenvalues --    0.36507   0.36888   0.37240   0.37538   0.37712
  Beta virt. eigenvalues --    0.37878   0.38172   0.38285   0.38545   0.38710
  Beta virt. eigenvalues --    0.38990   0.39625   0.39744   0.39772   0.39976
  Beta virt. eigenvalues --    0.40263   0.40580   0.40793   0.40853   0.40979
  Beta virt. eigenvalues --    0.41184   0.41447   0.41507   0.41761   0.41827
  Beta virt. eigenvalues --    0.42138   0.42536   0.42764   0.42849   0.42941
  Beta virt. eigenvalues --    0.43388   0.43537   0.43630   0.43829   0.43944
  Beta virt. eigenvalues --    0.44235   0.44357   0.44449   0.44746   0.45069
  Beta virt. eigenvalues --    0.45324   0.45475   0.45770   0.45928   0.46009
  Beta virt. eigenvalues --    0.46164   0.46374   0.46422   0.46658   0.47007
  Beta virt. eigenvalues --    0.47087   0.47177   0.47277   0.47661   0.47726
  Beta virt. eigenvalues --    0.47959   0.48113   0.48274   0.48470   0.48664
  Beta virt. eigenvalues --    0.48685   0.48832   0.48988   0.49260   0.49521
  Beta virt. eigenvalues --    0.49706   0.49886   0.49993   0.50282   0.50492
  Beta virt. eigenvalues --    0.50743   0.51029   0.51188   0.51238   0.51391
  Beta virt. eigenvalues --    0.51555   0.51812   0.51973   0.52238   0.52412
  Beta virt. eigenvalues --    0.52600   0.52915   0.53429   0.53640   0.53739
  Beta virt. eigenvalues --    0.53986   0.54142   0.54245   0.54572   0.54869
  Beta virt. eigenvalues --    0.54903   0.55139   0.55634   0.55812   0.55913
  Beta virt. eigenvalues --    0.56270   0.56367   0.56712   0.56906   0.57089
  Beta virt. eigenvalues --    0.57470   0.57616   0.57901   0.58228   0.58424
  Beta virt. eigenvalues --    0.58893   0.59003   0.59508   0.59763   0.60043
  Beta virt. eigenvalues --    0.60632   0.60748   0.60976   0.61034   0.61255
  Beta virt. eigenvalues --    0.61523   0.62003   0.62217   0.62699   0.63054
  Beta virt. eigenvalues --    0.63236   0.63286   0.63986   0.64222   0.64276
  Beta virt. eigenvalues --    0.64611   0.64791   0.65164   0.65361   0.65654
  Beta virt. eigenvalues --    0.66260   0.66342   0.66601   0.67156   0.67414
  Beta virt. eigenvalues --    0.67654   0.68106   0.68225   0.68475   0.68691
  Beta virt. eigenvalues --    0.69179   0.69589   0.69759   0.69847   0.70248
  Beta virt. eigenvalues --    0.70715   0.70774   0.71541   0.71828   0.72175
  Beta virt. eigenvalues --    0.72328   0.72575   0.72733   0.73072   0.73268
  Beta virt. eigenvalues --    0.73354   0.73575   0.74126   0.74804   0.74844
  Beta virt. eigenvalues --    0.75243   0.75601   0.75715   0.76096   0.76447
  Beta virt. eigenvalues --    0.76977   0.77114   0.77385   0.77713   0.78116
  Beta virt. eigenvalues --    0.78208   0.78901   0.78987   0.79316   0.79630
  Beta virt. eigenvalues --    0.79930   0.80418   0.80487   0.80718   0.81158
  Beta virt. eigenvalues --    0.81521   0.81916   0.82630   0.82750   0.83049
  Beta virt. eigenvalues --    0.83123   0.83443   0.83682   0.84035   0.84316
  Beta virt. eigenvalues --    0.85176   0.85494   0.85716   0.85951   0.86861
  Beta virt. eigenvalues --    0.86922   0.87145   0.87290   0.87375   0.88031
  Beta virt. eigenvalues --    0.88312   0.88709   0.89107   0.89740   0.90163
  Beta virt. eigenvalues --    0.90300   0.90476   0.90850   0.91050   0.91187
  Beta virt. eigenvalues --    0.91959   0.92470   0.92693   0.92881   0.93141
  Beta virt. eigenvalues --    0.93391   0.93597   0.93982   0.94145   0.94578
  Beta virt. eigenvalues --    0.94843   0.95053   0.95193   0.95461   0.95781
  Beta virt. eigenvalues --    0.95822   0.96354   0.96704   0.97147   0.97181
  Beta virt. eigenvalues --    0.98088   0.98296   0.98432   0.98903   0.99080
  Beta virt. eigenvalues --    0.99607   1.00044   1.00278   1.00553   1.00659
  Beta virt. eigenvalues --    1.01025   1.01687   1.01880   1.01941   1.02506
  Beta virt. eigenvalues --    1.02579   1.02867   1.03287   1.03571   1.03841
  Beta virt. eigenvalues --    1.04157   1.04327   1.04879   1.05163   1.05599
  Beta virt. eigenvalues --    1.05839   1.05988   1.06298   1.06349   1.06659
  Beta virt. eigenvalues --    1.07169   1.07564   1.07902   1.08530   1.08628
  Beta virt. eigenvalues --    1.08993   1.09222   1.09529   1.10781   1.10903
  Beta virt. eigenvalues --    1.11033   1.11419   1.11542   1.12024   1.12550
  Beta virt. eigenvalues --    1.13006   1.13345   1.13733   1.14059   1.14203
  Beta virt. eigenvalues --    1.14651   1.14826   1.15318   1.16053   1.16120
  Beta virt. eigenvalues --    1.16403   1.16945   1.17112   1.17636   1.17947
  Beta virt. eigenvalues --    1.18379   1.18658   1.19009   1.19364   1.19806
  Beta virt. eigenvalues --    1.20253   1.20628   1.20655   1.21144   1.21580
  Beta virt. eigenvalues --    1.22020   1.22126   1.22603   1.22866   1.23603
  Beta virt. eigenvalues --    1.23634   1.24266   1.24498   1.25058   1.25451
  Beta virt. eigenvalues --    1.25664   1.26120   1.26446   1.26609   1.27221
  Beta virt. eigenvalues --    1.27353   1.28039   1.28235   1.28791   1.28808
  Beta virt. eigenvalues --    1.28956   1.29390   1.29597   1.29851   1.30368
  Beta virt. eigenvalues --    1.30631   1.31196   1.31362   1.32148   1.32396
  Beta virt. eigenvalues --    1.32968   1.33243   1.33973   1.34525   1.34620
  Beta virt. eigenvalues --    1.34789   1.35666   1.36375   1.36905   1.37173
  Beta virt. eigenvalues --    1.37728   1.38003   1.38608   1.39229   1.39483
  Beta virt. eigenvalues --    1.40134   1.40774   1.41375   1.41658   1.41759
  Beta virt. eigenvalues --    1.42506   1.43240   1.43727   1.43868   1.44368
  Beta virt. eigenvalues --    1.44485   1.45259   1.45714   1.45968   1.46581
  Beta virt. eigenvalues --    1.47283   1.47479   1.47749   1.48126   1.48296
  Beta virt. eigenvalues --    1.48456   1.49052   1.49591   1.50070   1.50283
  Beta virt. eigenvalues --    1.50414   1.51154   1.51280   1.51369   1.51858
  Beta virt. eigenvalues --    1.52258   1.52384   1.52488   1.52554   1.52959
  Beta virt. eigenvalues --    1.53448   1.53567   1.53997   1.54164   1.54513
  Beta virt. eigenvalues --    1.54595   1.55022   1.55482   1.55668   1.55837
  Beta virt. eigenvalues --    1.55955   1.56348   1.56427   1.56524   1.56708
  Beta virt. eigenvalues --    1.57068   1.57335   1.57643   1.57697   1.58044
  Beta virt. eigenvalues --    1.58331   1.58606   1.58856   1.58924   1.59366
  Beta virt. eigenvalues --    1.59455   1.59943   1.60091   1.60392   1.60712
  Beta virt. eigenvalues --    1.60991   1.61226   1.61588   1.61938   1.62154
  Beta virt. eigenvalues --    1.62369   1.62566   1.62921   1.63234   1.63872
  Beta virt. eigenvalues --    1.63922   1.64419   1.64629   1.65012   1.65219
  Beta virt. eigenvalues --    1.65327   1.65693   1.66056   1.66244   1.66459
  Beta virt. eigenvalues --    1.67194   1.67654   1.67696   1.67969   1.68101
  Beta virt. eigenvalues --    1.68449   1.68838   1.69216   1.69581   1.69701
  Beta virt. eigenvalues --    1.70303   1.70424   1.70791   1.71019   1.71337
  Beta virt. eigenvalues --    1.71725   1.71901   1.72033   1.72280   1.72960
  Beta virt. eigenvalues --    1.73211   1.73540   1.73696   1.74155   1.74601
  Beta virt. eigenvalues --    1.74820   1.75179   1.75344   1.75643   1.76190
  Beta virt. eigenvalues --    1.76635   1.77274   1.77842   1.78159   1.78782
  Beta virt. eigenvalues --    1.78891   1.79038   1.80065   1.80132   1.80594
  Beta virt. eigenvalues --    1.81432   1.81704   1.82128   1.82683   1.83010
  Beta virt. eigenvalues --    1.83633   1.83824   1.84307   1.84656   1.85086
  Beta virt. eigenvalues --    1.85602   1.85856   1.86277   1.86466   1.87148
  Beta virt. eigenvalues --    1.87360   1.87573   1.87992   1.88383   1.88648
  Beta virt. eigenvalues --    1.88767   1.89425   1.89914   1.90018   1.90270
  Beta virt. eigenvalues --    1.91289   1.91733   1.91965   1.92186   1.93050
  Beta virt. eigenvalues --    1.93396   1.94305   1.94395   1.94720   1.95075
  Beta virt. eigenvalues --    1.95513   1.96034   1.96188   1.96451   1.97098
  Beta virt. eigenvalues --    1.97448   1.97958   1.98652   1.99071   1.99488
  Beta virt. eigenvalues --    1.99744   2.00315   2.00458   2.00780   2.01072
  Beta virt. eigenvalues --    2.01314   2.01617   2.02045   2.02151   2.02696
  Beta virt. eigenvalues --    2.03120   2.03856   2.04051   2.04294   2.04983
  Beta virt. eigenvalues --    2.05642   2.05941   2.06721   2.06833   2.07458
  Beta virt. eigenvalues --    2.07745   2.08449   2.08555   2.09296   2.09483
  Beta virt. eigenvalues --    2.09821   2.10365   2.10820   2.10998   2.11506
  Beta virt. eigenvalues --    2.11900   2.12119   2.12394   2.13008   2.13458
  Beta virt. eigenvalues --    2.13620   2.14555   2.14744   2.15079   2.15332
  Beta virt. eigenvalues --    2.15837   2.16133   2.16636   2.16810   2.17068
  Beta virt. eigenvalues --    2.17564   2.18091   2.18669   2.19193   2.19250
[...]
   155. CR (   1) N  73                  0.99970   -14.12316  166(r),167(r),168(r),1330(v)
                                                    1386(v),1563(r),182(r)
   156. CR (   1) C  74                  0.99947   -10.05718  1303(v),1646(v),1650(g)
                                                    1362(v),1413(v),166(r)
                                                    167(r),1563(r),170(r),168(r)
   177. LP (   1) N  68                  0.78939    -0.28093  1654(v),1651(v),1304(v)
                                                    1298(v),1332(v),1329(v)
                                                    1333(v),184(r)
   178. LP (   1) N  73                  0.82363    -0.34495  167(r),166(r),168(r),1649(v)
                                                    1650(v),1653(g),1330(v)
                                                    1652(v),1655(g),1656(v)
                                                    1386(v),1363(g),185(r)
                                                    1563(r),1341(v),182(r)
                                                    165(r),233(r),209(r),288(r)
                                                    262(r),1573(r),260(r),236(r)
                                                    285(r),210(r),171(r),170(r)
                                                    1574(r),1572(r),1570(r)
                                                    1566(r),195(r),1567(r)
                                                    1569(r),186(r),1564(r)
                                                    180(r),187(r),727(r),207(r)
                                                    789(r)
  1231. RY*(   1) C  64                  0.00057     1.17459   
  1232. RY*(   2) C  64                  0.00040     2.02520   
  1233. RY*(   3) C  64                  0.00024     1.36572   
  1234. RY*(   4) C  64                  0.00006     1.29056   
  1235. RY*(   5) C  64                  0.00004     1.66211   
  1236. RY*(   6) C  64                  0.00000    21.67828   
  1237. RY*(   7) C  64                  0.00000     1.65805   
  1238. RY*(   8) C  64                  0.00001     1.53232   
  1239. RY*(   9) C  64                  0.00001     1.53668   
  1240. RY*(  10) C  64                  0.00000     2.33743   
  1241. RY*(  11) C  64                  0.00000     1.34230   
  1242. RY*(  12) C  64                  0.00000     3.27860   
  1243. RY*(  13) C  64                  0.00000     2.50909   
  1244. RY*(  14) C  64                  0.00000     2.79535   
  1245. RY*(  15) C  64                  0.00000     2.30803   
  1246. RY*(  16) C  64                  0.00000     2.85004   
  1247. RY*(  17) C  64                  0.00000     2.44631   
  1248. RY*(  18) C  64                  0.00001     2.48475   
  1249. RY*(  19) C  64                  0.00000     2.56718   
  1250. RY*(  20) C  64                  0.00000     3.53228   
  1251. RY*(  21) C  64                  0.00000     3.54985   
  1252. RY*(  22) C  64                  0.00000     3.33244   
  1253. RY*(  23) C  64                  0.00000     3.78961   
  1254. RY*(  24) C  64                  0.00000     3.37233   
  1255. RY*(  25) C  64                  0.00000     3.48820   
  1256. RY*(  26) C  64                  0.00000     3.27928   
  1257. RY*(   1) H  65                  0.00038     0.93063   
  1258. RY*(   2) H  65                  0.00008     1.74453   
  1259. RY*(   3) H  65                  0.00003     1.93244   
  1260. RY*(   4) H  65                  0.00003     2.08427   
  1261. RY*(   5) H  65                  0.00000     2.89050   
  1262. RY*(   1) H  66                  0.00038     0.96665   
  1263. RY*(   2) H  66                  0.00008     1.70436   
  1264. RY*(   3) H  66                  0.00003     1.93498   
  1265. RY*(   4) H  66                  0.00004     2.08029   
  1266. RY*(   5) H  66                  0.00000     2.88987   
  1267. RY*(   1) H  67                  0.00011     1.49682   
  1268. RY*(   2) H  67                  0.00006     1.68044   
  1269. RY*(   3) H  67                  0.00004     2.05977   
  1270. RY*(   4) H  67                  0.00001     2.94272   
  1271. RY*(   5) H  67                  0.00001     1.47763   
  1272. RY*(   1) N  68                  0.00123     0.69892   
  1273. RY*(   2) N  68                  0.00102     1.84501   
  1274. RY*(   3) N  68                  0.00044     2.14197   
  1275. RY*(   4) N  68                  0.00037     2.30542   
  1276. RY*(   5) N  68                  0.00025     1.20110   
  1277. RY*(   6) N  68                  0.00012     1.85366   
  1278. RY*(   7) N  68                  0.00006     2.63947   
  1279. RY*(   8) N  68                  0.00003     2.64707   
  1280. RY*(   9) N  68                  0.00002     3.17043   
  1281. RY*(  10) N  68                  0.00003     3.22319   
  1282. RY*(  11) N  68                  0.00002     4.20591   
  1283. RY*(  12) N  68                  0.00000    30.64724   
  1284. RY*(  13) N  68                  0.00000     3.93139   
  1285. RY*(  14) N  68                  0.00001     1.71323   
  1286. RY*(  15) N  68                  0.00001     3.59899   
  1287. RY*(  16) N  68                  0.00000     2.83406   
  1288. RY*(  17) N  68                  0.00000     4.57363   
  1289. RY*(  18) N  68                  0.00000     2.30926   
  1290. RY*(  19) N  68                  0.00000     3.95950   
  1291. RY*(  20) N  68                  0.00000     4.78609   
  1292. RY*(  21) N  68                  0.00000     4.90313   
  1293. RY*(  22) N  68                  0.00000     4.40894   
  1294. RY*(  23) N  68                  0.00000     4.54286   
  1295. RY*(  24) N  68                  0.00000     4.28001   
  1296. RY*(  25) N  68                  0.00000     4.45064   
  1297. RY*(  26) N  68                  0.00000     4.35555   
  1298. RY*(   1) H  69                  0.00029     2.18202   
  1299. RY*(   2) H  69                  0.00020     2.11359   
  1300. RY*(   3) H  69                  0.00010     2.71479   
  1301. RY*(   4) H  69                  0.00010     1.12159   
  1302. RY*(   5) H  69                  0.00000     3.10946   
  1303. RY*(   1) C  70                  0.00191     1.73669   
  1304. RY*(   2) C  70                  0.00125     1.06854   
  1305. RY*(   3) C  70                  0.00093     1.53283   
  1306. RY*(   4) C  70                  0.00081     2.08986   
  1307. RY*(   5) C  70                  0.00053     1.78119   
  1308. RY*(   6) C  70                  0.00039     1.67609   
  1309. RY*(   7) C  70                  0.00019     2.86539   
  1310. RY*(   8) C  70                  0.00013     2.55937   
  1311. RY*(   9) C  70                  0.00007     2.92714   
  1312. RY*(  10) C  70                  0.00005     2.58228   
  1313. RY*(  11) C  70                  0.00003     3.01239   
  1314. RY*(  12) C  70                  0.00001     1.32809   
  1315. RY*(  13) C  70                  0.00000     1.88563   
  1316. RY*(  14) C  70                  0.00000     1.83081   
  1317. RY*(  15) C  70                  0.00000     2.78990   
  1318. RY*(  16) C  70                  0.00001     2.14814   
  1319. RY*(  17) C  70                  0.00000     3.76031   
  1320. RY*(  18) C  70                  0.00000     1.11848   
  1321. RY*(  19) C  70                  0.00000    21.11668   
  1322. RY*(  20) C  70                  0.00000     3.99225   
  1323. RY*(  21) C  70                  0.00000     3.96379   
  1324. RY*(  22) C  70                  0.00000     3.56845   
  1325. RY*(  23) C  70                  0.00000     3.75879   
  1326. RY*(  24) C  70                  0.00000     3.42456   
  1327. RY*(  25) C  70                  0.00000     3.56053   
  1328. RY*(  26) C  70                  0.00000     3.52375   
  1329. RY*(   1) C  71                  0.00271     0.55446   
  1330. RY*(   2) C  71                  0.00222     1.55912   
  1331. RY*(   3) C  71                  0.00099     2.02886   
  1332. RY*(   4) C  71                  0.00072     2.01705   
  1333. RY*(   5) C  71                  0.00063     2.06447   
  1334. RY*(   6) C  71                  0.00035     1.89030   
  1335. RY*(   7) C  71                  0.00016     1.97168   
  1336. RY*(   8) C  71                  0.00011     1.49135   
  1337. RY*(   9) C  71                  0.00012     1.92789   
  1338. RY*(  10) C  71                  0.00008     1.98619   
  1339. RY*(  11) C  71                  0.00004     2.58310   
  1340. RY*(  12) C  71                  0.00004     2.15056   
  1341. RY*(  13) C  71                  0.00004     2.70943   
  1342. RY*(  14) C  71                  0.00004     2.06699   
  1343. RY*(  15) C  71                  0.00001     2.83568   
  1344. RY*(  16) C  71                  0.00001     1.48451   
  1345. RY*(  17) C  71                  0.00000     3.82939   
  1346. RY*(  18) C  71                  0.00000     3.27856   
  1347. RY*(  19) C  71                  0.00000    21.27181   
  1348. RY*(  20) C  71                  0.00001     3.92889   
  1349. RY*(  21) C  71                  0.00000     3.97017   
  1350. RY*(  22) C  71                  0.00000     3.54365   
  1351. RY*(  23) C  71                  0.00000     3.65390   
  1352. RY*(  24) C  71                  0.00000     3.57369   
  1353. RY*(  25) C  71                  0.00000     3.56075   
  1354. RY*(  26) C  71                  0.00000     3.39443   
  1355. RY*(   1) H  72                  0.00030     0.71671   
  1356. RY*(   2) H  72                  0.00017     2.40684   
  1357. RY*(   3) H  72                  0.00009     2.26170   
  1358. RY*(   4) H  72                  0.00002     2.60972   
  1359. RY*(   5) H  72                  0.00001     3.13029   
  1360. RY*(   1) N  73                  0.00777     0.82275   
  1361. RY*(   2) N  73                  0.00436     1.08567   
  1362. RY*(   3) N  73                  0.00150     1.12306   
  1363. RY*(   4) N  73                  0.00074     1.86055   
  1364. RY*(   5) N  73                  0.00044     1.84957   
  1365. RY*(   6) N  73                  0.00035     1.83880   
  1366. RY*(   7) N  73                  0.00024     3.07314   
  1367. RY*(   8) N  73                  0.00021     3.17688   
  1368. RY*(   9) N  73                  0.00014     2.45343   
  1369. RY*(  10) N  73                  0.00005     2.37194   
  1370. RY*(  11) N  73                  0.00006     3.47045   
  1371. RY*(  12) N  73                  0.00003     3.12704   
  1372. RY*(  13) N  73                  0.00002     2.81391   
  1373. RY*(  14) N  73                  0.00001     4.63582   
  1374. RY*(  15) N  73                  0.00000     4.59215   
  1375. RY*(  16) N  73                  0.00000    31.66974   
  1376. RY*(  17) N  73                  0.00000     4.72012   
  1377. RY*(  18) N  73                  0.00001     4.44227   
  1378. RY*(  19) N  73                  0.00001     3.78287   
  1379. RY*(  20) N  73                  0.00000     4.54099   
  1380. RY*(  21) N  73                  0.00001     4.80991   
  1381. RY*(  22) N  73                  0.00000     4.23215   
  1382. RY*(  23) N  73                  0.00000     4.75192   
  1383. RY*(  24) N  73                  0.00000     4.74089   
  1384. RY*(  25) N  73                  0.00000     4.64058   
  1385. RY*(  26) N  73                  0.00000     4.49808   
  1386. RY*(   1) C  74                  0.00207     1.36679   
  1387. RY*(   2) C  74                  0.00168     0.87583   
  1388. RY*(   3) C  74                  0.00088     1.67759   
  1389. RY*(   4) C  74                  0.00048     1.91878   
  1390. RY*(   5) C  74                  0.00034     1.45223   
  1391. RY*(   6) C  74                  0.00026     2.50671   
  1392. RY*(   7) C  74                  0.00018     2.02006   
  1393. RY*(   8) C  74                  0.00013     1.32492   
  1394. RY*(   9) C  74                  0.00009     2.08389   
  1395. RY*(  10) C  74                  0.00007     2.18611   
  1396. RY*(  11) C  74                  0.00007     1.97799   
  1397. RY*(  12) C  74                  0.00004     3.54145   
  1398. RY*(  13) C  74                  0.00004     1.92571   
  1399. RY*(  14) C  74                  0.00004     2.12908   
  1400. RY*(  15) C  74                  0.00002     3.48758   
  1401. RY*(  16) C  74                  0.00001     1.36812   
  1402. RY*(  17) C  74                  0.00000     3.84568   
  1403. RY*(  18) C  74                  0.00000     3.29475   
  1404. RY*(  19) C  74                  0.00000    21.18788   
  1405. RY*(  20) C  74                  0.00000     3.97231   
  1406. RY*(  21) C  74                  0.00001     3.93319   
  1407. RY*(  22) C  74                  0.00000     3.48301   
  1408. RY*(  23) C  74                  0.00000     3.71848   
  1409. RY*(  24) C  74                  0.00000     3.45652   
  1410. RY*(  25) C  74                  0.00000     3.48222   
  1411. RY*(  26) C  74                  0.00000     3.42941   
  1412. RY*(   1) H  75                  0.00024     0.75707   
  1413. RY*(   2) H  75                  0.00016     2.32570   
  1414. RY*(   3) H  75                  0.00012     2.32685   
  1415. RY*(   4) H  75                  0.00003     2.75574   
  1416. RY*(   5) H  75                  0.00001     3.15515   
  1643. BD*(   1) C  64 - H  65          0.00598     0.36125   
  1644. BD*(   1) C  64 - H  66          0.00586     0.36051   
  1645. BD*(   1) C  64 - H  67          0.00175     0.37489   
  1646. BD*(   1) C  64 - C  70          0.00689     0.39080   
  1647. BD*(   1) N  68 - H  69          0.00733     0.37012   
  1648. BD*(   1) N  68 - C  70          0.01340     0.43089   
  1649. BD*(   1) N  68 - C  71          0.01190     0.45648   
  1650. BD*(   1) C  70 - C  74          0.01057     0.56743   
  1651. BD*(   2) C  70 - C  74          0.15061     0.03693  1654(v),1643(v),1644(v)
                                                    1307(g),1601(r),184(r)
  1652. BD*(   1) C  71 - H  72          0.00881     0.39409   
  1653. BD*(   1) C  71 - N  73          0.00921     0.54118   
  1654. BD*(   2) C  71 - N  73          0.20749     0.00356  170(r),1651(v),1329(g)
                                                    169(r),2(r),1571(r),165(r)
                                                    171(r)
  1655. BD*(   1) N  73 - C  74          0.00866     0.48391   
  1656. BD*(   1) C  74 - H  75          0.00705     0.42942   
       -------------------------------
              Total Lewis   21.34007  ( 97.7077%)
        Valence non-Lewis    0.45551  (  2.0856%)
        Rydberg non-Lewis    0.04515  (  0.2067%)
       -------------------------------
            Total unit  2   21.84073  (100.0000%)
           Charge unit  2    0.15927
 Unable to Open any file for archive entry.
 1\1\GINC-BGN1037\SP\UAPFD\def2TZVP\C37H42Fe1N6S1(5)\BEBJONES\23-Jul-20
 24\0\\# apfd/def2TZVP guess=read scf=maxcycle=999 geom=check pop=nbo\\
 1hrc_II_Q\\0,5\Fe,0,44.6566147757,28.0131016941,5.8773544757\N,0,44.85
 7457521,26.4652096472,7.1434125225\N,0,43.9814052248,29.081380173,7.47
 16582428\N,0,44.4188559194,29.644673429,4.7607936601\N,0,45.407744429,
 26.9997163669,4.3919788716\C,0,45.4215319976,25.28047389,6.798371586\C
 ,0,45.2431134944,24.3117206179,7.8609545436\C,0,44.5494158394,24.93904
 36373,8.8477256449\C,0,44.347818923,26.2988101097,8.3889100077\C,0,43.
 5736707277,28.5882516201,8.6779440888\C,0,43.059472736,29.6490451828,9
 .5176829144\C,0,43.1622224263,30.7929407179,8.7915272047\C,0,43.708252
 1069,30.4084959862,7.5088577817\C,0,44.1749158717,30.9199164301,5.1618
 929557\C,0,44.1474298402,31.8171876887,4.0219805044\C,0,44.4456691907,
 31.0424000235,2.9300859561\C,0,44.6423246711,29.7040899456,3.419155296
 1\C,0,45.4774519827,27.4114563405,3.0947984782\C,0,46.1378319763,26.39
 31071325,2.293520301\C,0,46.4895243425,25.3944165131,3.1638649825\C,0,
 45.9976097795,25.7830101402,4.4594834373\C,0,46.0634298266,25.00195796
 23,5.6053754756\H,0,46.5479425279,24.0431429923,5.5152872732\C,0,43.65
 79009952,27.2729919915,9.0868934209\H,0,43.2479167687,27.0127983191,10
 .0495992978\C,0,43.8798735248,31.2918075486,6.4584673031\H,0,43.662678
 2124,32.3341101155,6.6549043229\C,0,45.0403823622,28.6366390549,2.6228
 312095\H,0,45.1755784766,28.8426109692,1.574908902\C,0,45.7271182146,2
 2.9055778288,7.8031333952\H,0,46.8029691888,22.8820595342,7.6334252591
 \H,0,45.2428378861,22.367130727,6.9869319733\H,0,45.5143825511,22.3818
 025083,8.732696383\C,0,44.0802921112,24.412519038,10.162147882\H,0,42.
 9959649518,24.4852296365,10.250166904\H,0,44.519129653,24.9784700259,1
 0.9836020284\H,0,44.3616340968,23.3707187446,10.2849133336\C,0,47.1825
 051427,24.1117861472,2.8564397648\H,0,46.5290800361,23.2676724389,3.07
 45610016\H,0,48.0879177297,23.9929791394,3.4530411374\H,0,47.453979819
 7,24.062025611,1.8055713663\C,0,46.3666878849,26.4181322393,0.86234422
 22\H,0,47.3163568981,26.0175648042,0.5247526431\C,0,45.4924769244,26.8
 45335395,-0.0411033343\H,0,44.5164277861,27.1988962672,0.2428526178\H,
 0,45.7078448321,26.8326376922,-1.0969188763\C,0,44.5919715073,31.46865
 92125,1.5150916478\H,0,43.675242847,31.2814893271,0.9526216541\H,0,45.
 4011425858,30.9274782242,1.0287813788\H,0,44.8095557935,32.532606326,1
 .4675720708\C,0,43.8640841889,33.2339638383,4.0839298632\H,0,44.174006
 6586,33.7346225592,4.9934551192\C,0,43.2600398504,33.9510222889,3.1399
 436978\H,0,42.8789036831,33.5122881579,2.2345725152\H,0,43.1028897781,
 35.0121540124,3.2494903911\C,0,42.8266205534,32.1901903853,9.174460824
 4\H,0,42.104371849,32.6131219035,8.4782894909\H,0,43.7178793226,32.818
 455103,9.1622679689\H,0,42.4028055584,32.219562111,10.1734822635\C,0,4
 2.5703938383,29.4580904594,10.9112756211\H,0,41.8297396297,28.66034656
 05,10.9528354671\H,0,42.1146796828,30.3713297913,11.2885282786\H,0,43.
 3952822893,29.1886066614,11.5736945448\C,0,49.9024240815,30.0422041037
 ,5.7494494736\H,0,50.7356645372,29.3853273832,5.9980447526\H,0,50.0455
 220785,30.9851213878,6.277620458\H,0,49.9184272616,30.237878403,4.6821
 664738\N,0,48.3130311777,29.0990570806,7.4309058742\H,0,48.9179745048,
 29.2288737973,8.2252471832\C,0,48.6061649975,29.4261433547,6.132111352
 9\C,0,47.0582551598,28.5989902205,7.4529294716\H,0,46.5550518014,28.23
 81884032,8.3258589006\N,0,46.5365157983,28.5935155687,6.2536357862\C,0
 ,47.4901444092,29.0959993483,5.4160679436\H,0,47.3283404478,29.1779603
 136,4.3602792248\C,0,40.5798036397,28.7431058744,6.7150388063\H,0,41.2
 726658666,28.8134169703,7.547957917\H,0,39.9775344837,27.8468113957,6.
 8432920484\H,0,39.9288514947,29.6144479806,6.7269870319\C,0,41.3404608
 694,28.6829665285,5.4058018125\H,0,41.959166362,29.5677456217,5.268096
 774\H,0,40.6593231566,28.5728071201,4.5629089166\S,0,42.4468922799,27.
 2142383993,5.3926658065\C,0,42.284301118,26.7925793913,3.6273950664\H,
 0,42.5879679597,27.6317632577,3.0099165657\H,0,41.2491294744,26.522729
 1868,3.4348644256\H,0,42.9281352461,25.94209797,3.432686775\\Version=E
 S64L-G16RevC.02\State=5-A\HF=-3424.814935\S2=6.165929\S2-1=0.\S2A=6.00
 0937\RMSD=9.183e-10\Dipole=1.3537417,0.2482908,0.8225114\Quadrupole=5.
 5750748,-6.8288441,1.2537692,1.0741403,6.3537995,1.9005475\PG=C01 [X(C
 37H42Fe1N6S1)]\\@
 The archive entry for this job was punched.


 IT IS IMPOSSIBLE TO MEDITATE ON TIME AND THE MYSTERY 
 OF NATURE WITHOUT AN OVERWHELMING EMOTION AT THE
 LIMITATIONS OF HUMAN INTELLIGENCE.

                                         -- ALFRED NORTH WHITEHEAD
 Job cpu time:       1 days 10 hours 26 minutes 42.5 seconds.
 Elapsed time:       0 days  0 hours 31 minutes 28.1 seconds.
 File lengths (MBytes):  RWF=   2563 Int=      0 D2E=      0 Chk=    233 Scr=      1
 Normal termination of Gaussian 16 at Tue Jul 23 19:48:40 2024.
