 Entering Gaussian System, Link 0=g16
 Input=1hrc16re.com
 Output=1hrc16re.log
 Initial command:
 /sw/chem/gaussian/g16_C02/a100/g16/l1.exe "/local/bebjones_7949582/Gau-1588459.inp" -scrdir="/local/bebjones_7949582/"
 Entering Link 1 = /sw/chem/gaussian/g16_C02/a100/g16/l1.exe PID=   1588460.
  
 Copyright (c) 1988-2021, Gaussian, Inc.  All Rights Reserved.
  
 This is part of the Gaussian(R) 16 program.  It is based on
 the Gaussian(R) 09 system (copyright 2009, Gaussian, Inc.),
 the Gaussian(R) 03 system (copyright 2003, Gaussian, Inc.),
 the Gaussian(R) 98 system (copyright 1998, Gaussian, Inc.),
 the Gaussian(R) 94 system (copyright 1995, Gaussian, Inc.),
 the Gaussian 92(TM) system (copyright 1992, Gaussian, Inc.),
 the Gaussian 90(TM) system (copyright 1990, Gaussian, Inc.),
 the Gaussian 88(TM) system (copyright 1988, Gaussian, Inc.),
 the Gaussian 86(TM) system (copyright 1986, Carnegie Mellon
 University), and the Gaussian 82(TM) system (copyright 1983,
 Carnegie Mellon University). Gaussian is a federally registered
 trademark of Gaussian, Inc.
  
 This software contains proprietary and confidential information,
 including trade secrets, belonging to Gaussian, Inc.
  
 This software is provided under written license and may be
 used, copied, transmitted, or stored only in accord with that
 written license.
  
 The following legend is applicable only to US Government
 contracts under FAR:
  
                    RESTRICTED RIGHTS LEGEND
  
 Use, reproduction and disclosure by the US Government is
 subject to restrictions as set forth in subparagraphs (a)
 and (c) of the Commercial Computer Software - Restricted
 Rights clause in FAR 52.227-19.
  
 Gaussian, Inc.
 340 Quinnipiac St., Bldg. 40, Wallingford CT 06492
  
  
 ---------------------------------------------------------------
 Warning -- This program may not be used in any manner that
 competes with the business of Gaussian, Inc. or will provide
 assistance to any competitor of Gaussian, Inc.  The licensee
 of this program is prohibited from giving any competitor of
 Gaussian, Inc. access to this program.  By using this program,
 the user acknowledges that Gaussian, Inc. is engaged in the
 business of creating and licensing software in the field of
 computational chemistry and represents and warrants to the
 licensee that it is not a competitor of Gaussian, Inc. and that
 it will not use this program in any manner prohibited above.
 ---------------------------------------------------------------
  

 Cite this work as:
 Gaussian 16, Revision C.02,
 M. J. Frisch, G. W. Trucks, H. B. Schlegel, G. E. Scuseria, 
 M. A. Robb, J. R. Cheeseman, G. Scalmani, V. Barone, 
 G. A. Petersson, H. Nakatsuji, X. Li, M. Caricato, A. V. Marenich, 
 J. Bloino, B. G. Janesko, R. Gomperts, B. Mennucci, H. P. Hratchian, 
 J. V. Ortiz, A. F. Izmaylov, J. L. Sonnenberg, D. Williams-Young, 
 F. Ding, F. Lipparini, F. Egidi, J. Goings, B. Peng, A. Petrone, 
 T. Henderson, D. Ranasinghe, V. G. Zakrzewski, J. Gao, N. Rega, 
 G. Zheng, W. Liang, M. Hada, M. Ehara, K. Toyota, R. Fukuda, 
 J. Hasegawa, M. Ishida, T. Nakajima, Y. Honda, O. Kitao, H. Nakai, 
 T. Vreven, K. Throssell, J. A. Montgomery, Jr., J. E. Peralta, 
 F. Ogliaro, M. J. Bearpark, J. J. Heyd, E. N. Brothers, K. N. Kudin, 
 V. N. Staroverov, T. A. Keith, R. Kobayashi, J. Normand, 
 K. Raghavachari, A. P. Rendell, J. C. Burant, S. S. Iyengar, 
 J. Tomasi, M. Cossi, J. M. Millam, M. Klene, C. Adamo, R. Cammi, 
 J. W. Ochterski, R. L. Martin, K. Morokuma, O. Farkas, 
 J. B. Foresman, and D. J. Fox, Gaussian, Inc., Wallingford CT, 2019.
 
 ******************************************
 Gaussian 16:  ES64L-G16RevC.02  7-Dec-2021
                23-Jul-2024 
 ******************************************
 %mem=16GB
 %CPU=0-71
 SetSPE:  set environment variable "OMP_PROC_BIND" = "true"
 SetSPE:  set environment variable "OMP_PLACES" = "{0},{1},{2},{3},{4},{5},{6},{7},{8},{9},{10},{11},{12},{13},{14},{15},{16},{17},{18},{19},{20},{21},{22},{23},{24},{25},{26},{27},{28},{29},{30},{31},{32},{33},{34},{35},{36},{37},{38},{39},{40},{41},{42},{43},{44},{45},{46},{47},{48},{49},{50},{51},{52},{53},{54},{55},{56},{57},{58},{59},{60},{61},{62},{63},{64},{65},{66},{67},{68},{69},{70},{71}"
 Will use up to   72 processors via shared memory.
 %gpucpu=0,1,2,3=0,1,2,3
 Will use    4 GPUs:
 Thread  CPU   GPU
      0    0     0
      1    1     1
      2    2     2
      3    3     3
      4    4    -1
      5    5    -1
      6    6    -1
      7    7    -1
      8    8    -1
      9    9    -1
     10   10    -1
     11   11    -1
     12   12    -1
     13   13    -1
     14   14    -1
     15   15    -1
     16   16    -1
     17   17    -1
     18   18    -1
     19   19    -1
     20   20    -1
     21   21    -1
     22   22    -1
     23   23    -1
     24   24    -1
     25   25    -1
     26   26    -1
     27   27    -1
     28   28    -1
     29   29    -1
     30   30    -1
     31   31    -1
     32   32    -1
     33   33    -1
     34   34    -1
     35   35    -1
     36   36    -1
     37   37    -1
     38   38    -1
     39   39    -1
     40   40    -1
     41   41    -1
     42   42    -1
     43   43    -1
     44   44    -1
     45   45    -1
     46   46    -1
     47   47    -1
     48   48    -1
     49   49    -1
     50   50    -1
     51   51    -1
     52   52    -1
     53   53    -1
     54   54    -1
     55   55    -1
     56   56    -1
     57   57    -1
     58   58    -1
     59   59    -1
     60   60    -1
     61   61    -1
     62   62    -1
     63   63    -1
     64   64    -1
     65   65    -1
     66   66    -1
     67   67    -1
     68   68    -1
     69   69    -1
     70   70    -1
     71   71    -1
 SetGPE:  set environment variable "OMP_PROC_BIND" = "true"
 SetGPE:  set environment variable "OMP_PLACES" = "{0},{1},{2},{3},{4},{5},{6},{7},{8},{9},{10},{11},{12},{13},{14},{15},{16},{17},{18},{19},{20},{21},{22},{23},{24},{25},{26},{27},{28},{29},{30},{31},{32},{33},{34},{35},{36},{37},{38},{39},{40},{41},{42},{43},{44},{45},{46},{47},{48},{49},{50},{51},{52},{53},{54},{55},{56},{57},{58},{59},{60},{61},{62},{63},{64},{65},{66},{67},{68},{69},{70},{71}"
 %oldchk=1hrc_III_D.chk
 %chk=1hrc_III_Dre.chk
 Properties for Device   0
 Minimum vector length:                              32
 Maximum vector length:                            1024
 Number of SMPs:                                    108
 Maximum number of threads per SMP:                2048
 Number of ASync Engines:                             5
 Memory:                                           9207742464
 Properties for Device   1
 Minimum vector length:                              32
 Maximum vector length:                            1024
 Number of SMPs:                                    108
 Maximum number of threads per SMP:                2048
 Number of ASync Engines:                             5
 Memory:                                           9207742464
 Properties for Device   2
 Minimum vector length:                              32
 Maximum vector length:                            1024
 Number of SMPs:                                    108
 Maximum number of threads per SMP:                2048
 Number of ASync Engines:                             5
 Memory:                                           9207742464
 Properties for Device   3
 Minimum vector length:                              32
 Maximum vector length:                            1024
 Number of SMPs:                                    108
 Maximum number of threads per SMP:                2048
 Number of ASync Engines:                             5
 Memory:                                           9207742464
   8286968217 words of memory will be used on each GPU.
 Copying data from "1hrc_III_D.chk" to current chk file "1hrc_III_Dre.chk"
 IOpt=  2 FromEx=T IUOpen= 4 IOptOp= 5 NList=   0 IFRang= 0 IUIn= 4 IUOut= 2.
 --------------------------------------
 # apfd/gen scf=maxcycle=999 geom=check
 --------------------------------------
 1/29=2,38=1,172=1/1;
 2/12=2,40=1/2;
 3/5=7,11=2,14=-4,25=1,30=1,74=-44/1,2,3;
 4//1;
 5/5=2,7=999,38=5/2;
 6/7=2,8=2,9=2,10=2,28=1/1;
 99/5=1,9=1/99;
 ----------
 1hrc_III_H
 ----------
 Structure from the checkpoint file:  "1hrc_III_Dre.chk"
 Charge =  1 Multiplicity = 6
 Z-Matrix found in chk file.
 Fe,0,44.6566147757,28.0131016941,5.8773544757
 N,0,44.857457521,26.4652096472,7.1434125225
 N,0,43.9814052248,29.081380173,7.4716582428
 N,0,44.4188559194,29.644673429,4.7607936601
 N,0,45.407744429,26.9997163669,4.3919788716
 C,0,45.4215319976,25.28047389,6.798371586
 C,0,45.2431134944,24.3117206179,7.8609545436
 C,0,44.5494158394,24.9390436373,8.8477256449
 C,0,44.347818923,26.2988101097,8.3889100077
 C,0,43.5736707277,28.5882516201,8.6779440888
 C,0,43.059472736,29.6490451828,9.5176829144
 C,0,43.1622224263,30.7929407179,8.7915272047
 C,0,43.7082521069,30.4084959862,7.5088577817
 C,0,44.1749158717,30.9199164301,5.1618929557
 C,0,44.1474298402,31.8171876887,4.0219805044
 C,0,44.4456691907,31.0424000235,2.9300859561
 C,0,44.6423246711,29.7040899456,3.4191552961
 C,0,45.4774519827,27.4114563405,3.0947984782
 C,0,46.1378319763,26.3931071325,2.293520301
 C,0,46.4895243425,25.3944165131,3.1638649825
 C,0,45.9976097795,25.7830101402,4.4594834373
 C,0,46.0634298266,25.0019579623,5.6053754756
 H,0,46.5479425279,24.0431429923,5.5152872732
 C,0,43.6579009952,27.2729919915,9.0868934209
 H,0,43.2479167687,27.0127983191,10.0495992978
 C,0,43.8798735248,31.2918075486,6.4584673031
 H,0,43.6626782124,32.3341101155,6.6549043229
 C,0,45.0403823622,28.6366390549,2.6228312095
 H,0,45.1755784766,28.8426109692,1.574908902
 C,0,45.7271182146,22.9055778288,7.8031333952
 H,0,46.8029691888,22.8820595342,7.6334252591
 H,0,45.2428378861,22.367130727,6.9869319733
 H,0,45.5143825511,22.3818025083,8.732696383
 C,0,44.0802921112,24.412519038,10.162147882
 H,0,42.9959649518,24.4852296365,10.250166904
 H,0,44.519129653,24.9784700259,10.9836020284
 H,0,44.3616340968,23.3707187446,10.2849133336
 C,0,47.1825051427,24.1117861472,2.8564397648
 H,0,46.5290800361,23.2676724389,3.0745610016
 H,0,48.0879177297,23.9929791394,3.4530411374
 H,0,47.4539798197,24.062025611,1.8055713663
 C,0,46.3666878849,26.4181322393,0.8623442222
 H,0,47.3163568981,26.0175648042,0.5247526431
 C,0,45.4924769244,26.845335395,-0.0411033343
 H,0,44.5164277861,27.1988962672,0.2428526178
 H,0,45.7078448321,26.8326376922,-1.0969188763
 C,0,44.5919715073,31.4686592125,1.5150916478
 H,0,43.675242847,31.2814893271,0.9526216541
 H,0,45.4011425858,30.9274782242,1.0287813788
 H,0,44.8095557935,32.532606326,1.4675720708
 C,0,43.8640841889,33.2339638383,4.0839298632
 H,0,44.1740066586,33.7346225592,4.9934551192
 C,0,43.2600398504,33.9510222889,3.1399436978
 H,0,42.8789036831,33.5122881579,2.2345725152
 H,0,43.1028897781,35.0121540124,3.2494903911
 C,0,42.8266205534,32.1901903853,9.1744608244
 H,0,42.104371849,32.6131219035,8.4782894909
 H,0,43.7178793226,32.818455103,9.1622679689
 H,0,42.4028055584,32.219562111,10.1734822635
 C,0,42.5703938383,29.4580904594,10.9112756211
 H,0,41.8297396297,28.6603465605,10.9528354671
 H,0,42.1146796828,30.3713297913,11.2885282786
 H,0,43.3952822893,29.1886066614,11.5736945448
 C,0,49.9024240815,30.0422041037,5.7494494736
 H,0,50.7356645372,29.3853273832,5.9980447526
 H,0,50.0455220785,30.9851213878,6.277620458
 H,0,49.9184272616,30.237878403,4.6821664738
 N,0,48.3130311777,29.0990570806,7.4309058742
 H,0,48.9179745048,29.2288737973,8.2252471832
 C,0,48.6061649975,29.4261433547,6.1321113529
 C,0,47.0582551598,28.5989902205,7.4529294716
 H,0,46.5550518014,28.2381884032,8.3258589006
 N,0,46.5365157983,28.5935155687,6.2536357862
 C,0,47.4901444092,29.0959993483,5.4160679436
 H,0,47.3283404478,29.1779603136,4.3602792248
 C,0,40.5798036397,28.7431058744,6.7150388063
 H,0,41.2726658666,28.8134169703,7.547957917
 H,0,39.9775344837,27.8468113957,6.8432920484
 H,0,39.9288514947,29.6144479806,6.7269870319
 C,0,41.3404608694,28.6829665285,5.4058018125
 H,0,41.959166362,29.5677456217,5.268096774
 H,0,40.6593231566,28.5728071201,4.5629089166
 S,0,42.4468922799,27.2142383993,5.3926658065
 C,0,42.284301118,26.7925793913,3.6273950664
 H,0,42.5879679597,27.6317632577,3.0099165657
 H,0,41.2491294744,26.5227291868,3.4348644256
 H,0,42.9281352461,25.94209797,3.432686775
 Recover connectivity data from disk.
 Stoichiometry    C37H42FeN6S(1+,6)
 Framework group  C1[X(C37H42FeN6S)]
 Deg. of freedom   255
 Full point group                 C1      NOp   1
 Largest Abelian subgroup         C1      NOp   1
 Largest concise Abelian subgroup C1      NOp   1
                         Standard orientation:                         
 ---------------------------------------------------------------------
 Center     Atomic      Atomic             Coordinates (Angstroms)
 Number     Number       Type             X           Y           Z
 ---------------------------------------------------------------------
      1         26           0       -0.211975   -0.130086   -0.093598
      2          7           0       -1.897905   -1.221562   -0.019214
      3          7           0       -1.398169    1.507394    0.131206
      4          7           0        1.361482    1.089865   -0.128498
      5          7           0        0.908734   -1.720779   -0.199384
      6          6           0       -1.914569   -2.578059    0.002462
      7          6           0       -3.271584   -3.065293   -0.140754
      8          6           0       -4.068313   -1.970058   -0.259706
      9          6           0       -3.188078   -0.824356   -0.147142
     10          6           0       -2.753744    1.567297   -0.021689
     11          6           0       -3.224847    2.929138    0.113573
     12          6           0       -2.124417    3.690988    0.348081
     13          6           0       -0.995532    2.787609    0.321378
     14          6           0        1.418356    2.411375    0.182960
     15          6           0        2.782310    2.898351    0.095010
     16          6           0        3.549039    1.805463   -0.219949
     17          6           0        2.648159    0.688691   -0.320811
     18          6           0        2.255975   -1.739925   -0.403445
     19          6           0        2.734111   -3.113287   -0.382286
     20          6           0        1.637930   -3.892706   -0.118731
     21          6           0        0.508588   -3.004047   -0.038210
     22          6           0       -0.811272   -3.403310    0.123049
     23          1           0       -0.992276   -4.461276    0.223738
     24          6           0       -3.593507    0.494391   -0.240579
     25          1           0       -4.641873    0.692901   -0.395865
     26          6           0        0.317816    3.206211    0.434964
     27          1           0        0.480965    4.257983    0.633242
     28          6           0        3.056090   -0.620335   -0.549012
     29          1           0        4.112392   -0.778340   -0.683566
     30          6           0       -3.646023   -4.505283   -0.173427
     31          1           0       -3.304174   -5.006100    0.731632
     32          1           0       -3.186549   -5.001114   -1.029974
     33          1           0       -4.724857   -4.625739   -0.246170
     34          6           0       -5.545963   -1.885308   -0.445127
     35          1           0       -5.796785   -1.360171   -1.367145
     36          1           0       -6.008414   -1.345671    0.381067
     37          1           0       -5.988545   -2.876203   -0.487789
     38          6           0        1.574509   -5.376632   -0.001185
     39          1           0        0.947391   -5.791561   -0.789617
     40          1           0        1.151180   -5.684650    0.955757
     41          1           0        2.564578   -5.813959   -0.096092
     42          6           0        4.090872   -3.570910   -0.608220
     43          1           0        4.424829   -4.395724    0.011819
     44          6           0        4.912873   -3.088951   -1.532880
     45          1           0        4.605840   -2.309076   -2.208035
     46          1           0        5.910834   -3.472573   -1.667780
     47          6           0        5.023033    1.736216   -0.386846
     48          1           0        5.301051    1.790617   -1.441143
     49          1           0        5.415636    0.805008    0.016698
     50          1           0        5.495777    2.565384    0.133326
     51          6           0        3.193360    4.267737    0.312261
     52          1           0        2.603181    4.826179    1.029044
     53          6           0        4.207673    4.882982   -0.290064
     54          1           0        4.803803    4.408536   -1.049656
     55          1           0        4.467928    5.903466   -0.058597
     56          6           0       -2.022928    5.151224    0.610729
     57          1           0       -1.364009    5.624159   -0.115443
     58          1           0       -1.619570    5.337182    1.606686
     59          1           0       -3.000853    5.618214    0.546628
     60          6           0       -4.655420    3.336638    0.041681
     61          1           0       -5.120291    2.949697   -0.864334
     62          1           0       -4.747923    4.420817    0.040373
     63          1           0       -5.208656    2.947245    0.898514
     64          6           0        1.601938   -0.509216    5.218474
     65          1           0        1.285907   -1.352484    5.832151
     66          1           0        1.491463    0.399957    5.809857
     67          1           0        2.650463   -0.633335    4.967821
     68          7           0       -0.566965   -0.237018    4.008200
     69          1           0       -1.134271   -0.152950    4.835777
     70          6           0        0.791355   -0.420792    3.976949
     71          6           0       -0.998415   -0.161510    2.730247
     72          1           0       -2.018668   -0.037575    2.431715
     73          7           0       -0.000894   -0.280027    1.892719
     74          6           0        1.120894   -0.452423    2.651197
     75          1           0        2.084939   -0.601029    2.208341
     76          6           0       -1.450127    2.380456   -3.258906
     77          1           0       -2.058455    2.387456   -2.359659
     78          1           0       -2.005056    1.874961   -4.045703
     79          1           0       -1.260128    3.408036   -3.560730
     80          6           0       -0.139154    1.666674   -2.997787
     81          1           0        0.423169    2.152912   -2.202829
     82          1           0        0.465806    1.617416   -3.902302
     83         16           0       -0.464136   -0.067224   -2.478644
     84          6           0        0.962664   -0.847563   -3.300671
     85          1           0        1.888809   -0.403748   -2.949948
     86          1           0        0.851275   -0.717544   -4.374056
     87          1           0        0.945787   -1.903469   -3.054645
 ---------------------------------------------------------------------
 Rotational constants (GHZ):           0.0837013           0.0816416           0.0590341
 General basis read from cards:  (5D, 7F)
 There are   784 symmetry adapted cartesian basis functions of A   symmetry.
 There are   737 symmetry adapted basis functions of A   symmetry.
   737 basis functions,  1510 primitive gaussians,   784 cartesian basis functions
   176 alpha electrons      171 beta electrons
       nuclear repulsion energy      7166.6599791475 Hartrees.
 NAtoms=   87 NActive=   87 NUniq=   87 SFac= 1.00D+00 NAtFMM=   60 NAOKFM=T Big=T
 Integral buffers will be    131072 words long.
 Raffenetti 2 integral format.
 Two-electron integral symmetry is turned on.
 R6APFD:  NTU= -4 IXU= 1 FactS= 1.050
 Nuclear repulsion after empirical dispersion term =     7166.4757675018 Hartrees.
 One-electron integrals computed using PRISM.
 NBasis=   737 RedAO= T EigKep=  2.70D-04  NBF=   737
 NBsUse=   737 1.00D-06 EigRej= -1.00D+00 NBFU=   737
 ExpMin= 4.20D-02 ExpMax= 3.01D+05 ExpMxC= 3.30D+03 IAcc=3 IRadAn=         5 AccDes= 0.00D+00
 Harris functional with IExCor= 3731 and IRadAn=       5 diagonalized for initial guess.
 HarFok:  IExCor= 3731 AccDes= 0.00D+00 IRadAn=         5 IDoV= 1 UseB2=F ITyADJ=14
 ICtDFT=  3500011 ScaDFX=  1.000000  1.000000  1.000000  1.000000
 FoFCou: FMM=F IPFlag=           0 FMFlag=      100000 FMFlg1=        2001
         NFxFlg=           0 DoJE=T BraDBF=F KetDBF=T FulRan=T
         wScrn=  0.000000 ICntrl=       500 IOpCl=  0 I1Cent=   200000004 NGrid=           0
         NMat0=    1 NMatS0=      1 NMatT0=    0 NMatD0=    1 NMtDS0=    0 NMtDT0=    0
 Petite list used in FoFCou.
 Initial guess <Sx>= 0.0000 <Sy>= 0.0000 <Sz>= 2.5000 <S**2>= 8.7500 S= 2.5000
 Requested convergence on RMS density matrix=1.00D-08 within 999 cycles.
 Requested convergence on MAX density matrix=1.00D-06.
 Requested convergence on             energy=1.00D-06.
 No special actions if energy rises.
 EnCoef did   100 forward-backward iterations
 EnCoef did   100 forward-backward iterations
 EnCoef did   100 forward-backward iterations
 EnCoef did   100 forward-backward iterations
 EnCoef did     2 forward-backward iterations
 EnCoef did    13 forward-backward iterations
 Restarting incremental Fock formation.
 SCF Done:  E(UAPFD) =  -3423.98805375     A.U. after   30 cycles
            NFock= 30  Conv=0.97D-08     -V/T= 2.0032
 <Sx>= 0.0000 <Sy>= 0.0000 <Sz>= 2.5000 <S**2>= 8.7598 S= 2.5016
 <L.S>=  0.00000000000    
 Annihilation of the first spin contaminant:
 S**2 before annihilation     8.7598,   after     8.7500

 **********************************************************************

            Population analysis using the SCF Density.

 **********************************************************************

 Orbital symmetries:
 Alpha Orbitals:
       Occupied  (A) (A) (A) (A) (A) (A) (A) (A) (A) (A) (A) (A)
                 (A) (A) (A) (A) (A) (A) (A) (A) (A) (A) (A) (A)
                 (A) (A) (A) (A) (A) (A) (A) (A) (A) (A) (A) (A)
                 (A) (A) (A) (A) (A) (A) (A) (A) (A) (A) (A) (A)
                 (A) (A) (A) (A) (A) (A) (A) (A) (A) (A) (A) (A)
                 (A) (A) (A) (A) (A) (A) (A) (A) (A) (A) (A) (A)
                 (A) (A) (A) (A) (A) (A) (A) (A) (A) (A) (A) (A)
                 (A) (A) (A) (A) (A) (A) (A) (A) (A) (A) (A) (A)
                 (A) (A) (A) (A) (A) (A) (A) (A) (A) (A) (A) (A)
                 (A) (A) (A) (A) (A) (A) (A) (A) (A) (A) (A) (A)
                 (A) (A) (A) (A) (A) (A) (A) (A) (A) (A) (A) (A)
                 (A) (A) (A) (A) (A) (A) (A) (A) (A) (A) (A) (A)
                 (A) (A) (A) (A) (A) (A) (A) (A) (A) (A) (A) (A)
                 (A) (A) (A) (A) (A) (A) (A) (A) (A) (A) (A) (A)
                 (A) (A) (A) (A) (A) (A) (A) (A)
       Virtual   (A) (A) (A) (A) (A) (A) (A) (A) (A) (A) (A) (A)
                 (A) (A) (A) (A) (A) (A) (A) (A) (A) (A) (A) (A)
                 (A) (A) (A) (A) (A) (A) (A) (A) (A) (A) (A) (A)
                 (A) (A) (A) (A) (A) (A) (A) (A) (A) (A) (A) (A)
                 (A) (A) (A) (A) (A) (A) (A) (A) (A) (A) (A) (A)
                 (A) (A) (A) (A) (A) (A) (A) (A) (A) (A) (A) (A)
                 (A) (A) (A) (A) (A) (A) (A) (A) (A) (A) (A) (A)
                 (A) (A) (A) (A) (A) (A) (A) (A) (A) (A) (A) (A)
                 (A) (A) (A) (A) (A) (A) (A) (A) (A) (A) (A) (A)
                 (A) (A) (A) (A) (A) (A) (A) (A) (A) (A) (A) (A)
                 (A) (A) (A) (A) (A) (A) (A) (A) (A) (A) (A) (A)
                 (A) (A) (A) (A) (A) (A) (A) (A) (A) (A) (A) (A)
                 (A) (A) (A) (A) (A) (A) (A) (A) (A) (A) (A) (A)
                 (A) (A) (A) (A) (A) (A) (A) (A) (A) (A) (A) (A)
                 (A) (A) (A) (A) (A) (A) (A) (A) (A) (A) (A) (A)
                 (A) (A) (A) (A) (A) (A) (A) (A) (A) (A) (A) (A)
                 (A) (A) (A) (A) (A) (A) (A) (A) (A) (A) (A) (A)
                 (A) (A) (A) (A) (A) (A) (A) (A) (A) (A) (A) (A)
                 (A) (A) (A) (A) (A) (A) (A) (A) (A) (A) (A) (A)
                 (A) (A) (A) (A) (A) (A) (A) (A) (A) (A) (A) (A)
                 (A) (A) (A) (A) (A) (A) (A) (A) (A) (A) (A) (A)
                 (A) (A) (A) (A) (A) (A) (A) (A) (A) (A) (A) (A)
                 (A) (A) (A) (A) (A) (A) (A) (A) (A) (A) (A) (A)
                 (A) (A) (A) (A) (A) (A) (A) (A) (A) (A) (A) (A)
                 (A) (A) (A) (A) (A) (A) (A) (A) (A) (A) (A) (A)
                 (A) (A) (A) (A) (A) (A) (A) (A) (A) (A) (A) (A)
                 (A) (A) (A) (A) (A) (A) (A) (A) (A) (A) (A) (A)
                 (A) (A) (A) (A) (A) (A) (A) (A) (A) (A) (A) (A)
                 (A) (A) (A) (A) (A) (A) (A) (A) (A) (A) (A) (A)
                 (A) (A) (A) (A) (A) (A) (A) (A) (A) (A) (A) (A)
                 (A) (A) (A) (A) (A) (A) (A) (A) (A) (A) (A) (A)
                 (A) (A) (A) (A) (A) (A) (A) (A) (A) (A) (A) (A)
                 (A) (A) (A) (A) (A) (A) (A) (A) (A) (A) (A) (A)
                 (A) (A) (A) (A) (A) (A) (A) (A) (A) (A) (A) (A)
                 (A) (A) (A) (A) (A) (A) (A) (A) (A) (A) (A) (A)
                 (A) (A) (A) (A) (A) (A) (A) (A) (A) (A) (A) (A)
                 (A) (A) (A) (A) (A) (A) (A) (A) (A) (A) (A) (A)
                 (A) (A) (A) (A) (A) (A) (A) (A) (A) (A) (A) (A)
                 (A) (A) (A) (A) (A) (A) (A) (A) (A) (A) (A) (A)
                 (A) (A) (A) (A) (A) (A) (A) (A) (A) (A) (A) (A)
                 (A) (A) (A) (A) (A) (A) (A) (A) (A) (A) (A) (A)
                 (A) (A) (A) (A) (A) (A) (A) (A) (A) (A) (A) (A)
                 (A) (A) (A) (A) (A) (A) (A) (A) (A) (A) (A) (A)
                 (A) (A) (A) (A) (A) (A) (A) (A) (A) (A) (A) (A)
                 (A) (A) (A) (A) (A) (A) (A) (A) (A) (A) (A) (A)
                 (A) (A) (A) (A) (A) (A) (A) (A) (A) (A) (A) (A)
                 (A) (A) (A) (A) (A) (A) (A) (A) (A)
 Beta  Orbitals:
       Occupied  (A) (A) (A) (A) (A) (A) (A) (A) (A) (A) (A) (A)
                 (A) (A) (A) (A) (A) (A) (A) (A) (A) (A) (A) (A)
                 (A) (A) (A) (A) (A) (A) (A) (A) (A) (A) (A) (A)
                 (A) (A) (A) (A) (A) (A) (A) (A) (A) (A) (A) (A)
                 (A) (A) (A) (A) (A) (A) (A) (A) (A) (A) (A) (A)
                 (A) (A) (A) (A) (A) (A) (A) (A) (A) (A) (A) (A)
                 (A) (A) (A) (A) (A) (A) (A) (A) (A) (A) (A) (A)
                 (A) (A) (A) (A) (A) (A) (A) (A) (A) (A) (A) (A)
                 (A) (A) (A) (A) (A) (A) (A) (A) (A) (A) (A) (A)
                 (A) (A) (A) (A) (A) (A) (A) (A) (A) (A) (A) (A)
                 (A) (A) (A) (A) (A) (A) (A) (A) (A) (A) (A) (A)
                 (A) (A) (A) (A) (A) (A) (A) (A) (A) (A) (A) (A)
                 (A) (A) (A) (A) (A) (A) (A) (A) (A) (A) (A) (A)
                 (A) (A) (A) (A) (A) (A) (A) (A) (A) (A) (A) (A)
                 (A) (A) (A)
       Virtual   (A) (A) (A) (A) (A) (A) (A) (A) (A) (A) (A) (A)
                 (A) (A) (A) (A) (A) (A) (A) (A) (A) (A) (A) (A)
                 (A) (A) (A) (A) (A) (A) (A) (A) (A) (A) (A) (A)
                 (A) (A) (A) (A) (A) (A) (A) (A) (A) (A) (A) (A)
                 (A) (A) (A) (A) (A) (A) (A) (A) (A) (A) (A) (A)
                 (A) (A) (A) (A) (A) (A) (A) (A) (A) (A) (A) (A)
                 (A) (A) (A) (A) (A) (A) (A) (A) (A) (A) (A) (A)
                 (A) (A) (A) (A) (A) (A) (A) (A) (A) (A) (A) (A)
                 (A) (A) (A) (A) (A) (A) (A) (A) (A) (A) (A) (A)
                 (A) (A) (A) (A) (A) (A) (A) (A) (A) (A) (A) (A)
                 (A) (A) (A) (A) (A) (A) (A) (A) (A) (A) (A) (A)
                 (A) (A) (A) (A) (A) (A) (A) (A) (A) (A) (A) (A)
                 (A) (A) (A) (A) (A) (A) (A) (A) (A) (A) (A) (A)
                 (A) (A) (A) (A) (A) (A) (A) (A) (A) (A) (A) (A)
                 (A) (A) (A) (A) (A) (A) (A) (A) (A) (A) (A) (A)
                 (A) (A) (A) (A) (A) (A) (A) (A) (A) (A) (A) (A)
                 (A) (A) (A) (A) (A) (A) (A) (A) (A) (A) (A) (A)
                 (A) (A) (A) (A) (A) (A) (A) (A) (A) (A) (A) (A)
                 (A) (A) (A) (A) (A) (A) (A) (A) (A) (A) (A) (A)
                 (A) (A) (A) (A) (A) (A) (A) (A) (A) (A) (A) (A)
                 (A) (A) (A) (A) (A) (A) (A) (A) (A) (A) (A) (A)
                 (A) (A) (A) (A) (A) (A) (A) (A) (A) (A) (A) (A)
                 (A) (A) (A) (A) (A) (A) (A) (A) (A) (A) (A) (A)
                 (A) (A) (A) (A) (A) (A) (A) (A) (A) (A) (A) (A)
                 (A) (A) (A) (A) (A) (A) (A) (A) (A) (A) (A) (A)
                 (A) (A) (A) (A) (A) (A) (A) (A) (A) (A) (A) (A)
                 (A) (A) (A) (A) (A) (A) (A) (A) (A) (A) (A) (A)
                 (A) (A) (A) (A) (A) (A) (A) (A) (A) (A) (A) (A)
                 (A) (A) (A) (A) (A) (A) (A) (A) (A) (A) (A) (A)
                 (A) (A) (A) (A) (A) (A) (A) (A) (A) (A) (A) (A)
                 (A) (A) (A) (A) (A) (A) (A) (A) (A) (A) (A) (A)
                 (A) (A) (A) (A) (A) (A) (A) (A) (A) (A) (A) (A)
                 (A) (A) (A) (A) (A) (A) (A) (A) (A) (A) (A) (A)
                 (A) (A) (A) (A) (A) (A) (A) (A) (A) (A) (A) (A)
                 (A) (A) (A) (A) (A) (A) (A) (A) (A) (A) (A) (A)
                 (A) (A) (A) (A) (A) (A) (A) (A) (A) (A) (A) (A)
                 (A) (A) (A) (A) (A) (A) (A) (A) (A) (A) (A) (A)
                 (A) (A) (A) (A) (A) (A) (A) (A) (A) (A) (A) (A)
                 (A) (A) (A) (A) (A) (A) (A) (A) (A) (A) (A) (A)
                 (A) (A) (A) (A) (A) (A) (A) (A) (A) (A) (A) (A)
                 (A) (A) (A) (A) (A) (A) (A) (A) (A) (A) (A) (A)
                 (A) (A) (A) (A) (A) (A) (A) (A) (A) (A) (A) (A)
                 (A) (A) (A) (A) (A) (A) (A) (A) (A) (A) (A) (A)
                 (A) (A) (A) (A) (A) (A) (A) (A) (A) (A) (A) (A)
                 (A) (A) (A) (A) (A) (A) (A) (A) (A) (A) (A) (A)
                 (A) (A) (A) (A) (A) (A) (A) (A) (A) (A) (A) (A)
                 (A) (A) (A) (A) (A) (A) (A) (A) (A) (A) (A) (A)
                 (A) (A)
 The electronic state is 6-A.
 Alpha  occ. eigenvalues -- -256.39907 -89.05075 -30.31007 -26.13941 -26.13910
 Alpha  occ. eigenvalues --  -26.13909 -14.52976 -14.47785 -14.45825 -14.45718
 Alpha  occ. eigenvalues --  -14.45616 -14.45462 -10.36884 -10.34356 -10.33513
 Alpha  occ. eigenvalues --  -10.33190 -10.33119 -10.33093 -10.32957 -10.32890
 Alpha  occ. eigenvalues --  -10.32853 -10.32827 -10.31906 -10.31729 -10.31498
 Alpha  occ. eigenvalues --  -10.30373 -10.30227 -10.30200 -10.30013 -10.29960
 Alpha  occ. eigenvalues --  -10.29940 -10.29935 -10.29886 -10.29872 -10.29848
 Alpha  occ. eigenvalues --  -10.29838 -10.29833 -10.29757 -10.29504 -10.29251
 Alpha  occ. eigenvalues --  -10.28164 -10.28132 -10.28112 -10.28043 -10.27947
 Alpha  occ. eigenvalues --  -10.27933 -10.27876 -10.27818 -10.27292  -8.08128
 Alpha  occ. eigenvalues --   -6.02715  -6.02443  -6.01933  -3.76605  -2.53276
 Alpha  occ. eigenvalues --   -2.53231  -2.53101  -1.15736  -1.08785  -1.07756
 Alpha  occ. eigenvalues --   -1.07638  -1.06672  -1.01532  -0.93212  -0.92781
 Alpha  occ. eigenvalues --   -0.91998  -0.91760  -0.91137  -0.90731  -0.90431
 Alpha  occ. eigenvalues --   -0.90285  -0.89695  -0.86700  -0.85478  -0.85018
 Alpha  occ. eigenvalues --   -0.84856  -0.84070  -0.82682  -0.81360  -0.80846
 Alpha  occ. eigenvalues --   -0.80004  -0.78361  -0.78122  -0.77849  -0.75687
 Alpha  occ. eigenvalues --   -0.75007  -0.74871  -0.74666  -0.71326  -0.70755
 Alpha  occ. eigenvalues --   -0.70271  -0.69519  -0.68129  -0.68079  -0.66165
 Alpha  occ. eigenvalues --   -0.64773  -0.64525  -0.63875  -0.63170  -0.61705
 Alpha  occ. eigenvalues --   -0.61364  -0.61293  -0.60804  -0.58783  -0.58289
 Alpha  occ. eigenvalues --   -0.58124  -0.57977  -0.57620  -0.56780  -0.56101
 Alpha  occ. eigenvalues --   -0.55493  -0.55426  -0.55138  -0.54973  -0.54069
 Alpha  occ. eigenvalues --   -0.53883  -0.53710  -0.53668  -0.53524  -0.53296
 Alpha  occ. eigenvalues --   -0.53034  -0.52926  -0.52839  -0.52556  -0.52392
 Alpha  occ. eigenvalues --   -0.52146  -0.51927  -0.51850  -0.51652  -0.50955
 Alpha  occ. eigenvalues --   -0.50882  -0.50729  -0.50436  -0.50175  -0.50099
 Alpha  occ. eigenvalues --   -0.49857  -0.49409  -0.49343  -0.49166  -0.48951
 Alpha  occ. eigenvalues --   -0.48680  -0.48415  -0.48300  -0.48039  -0.47902
 Alpha  occ. eigenvalues --   -0.47551  -0.47091  -0.46704  -0.46442  -0.46275
 Alpha  occ. eigenvalues --   -0.45963  -0.45356  -0.44769  -0.44472  -0.44098
 Alpha  occ. eigenvalues --   -0.43742  -0.43336  -0.43211  -0.42226  -0.42191
 Alpha  occ. eigenvalues --   -0.41865  -0.40390  -0.39420  -0.38838  -0.38201
 Alpha  occ. eigenvalues --   -0.36936  -0.36868  -0.33867  -0.33368  -0.32739
 Alpha  occ. eigenvalues --   -0.32233  -0.32047  -0.31711  -0.31269  -0.28821
 Alpha  occ. eigenvalues --   -0.28315
 Alpha virt. eigenvalues --   -0.17107  -0.17090  -0.11426  -0.08052  -0.07712
 Alpha virt. eigenvalues --   -0.06611  -0.06133  -0.04287  -0.03797  -0.01676
 Alpha virt. eigenvalues --   -0.01343  -0.01249  -0.00625   0.00276   0.00900
 Alpha virt. eigenvalues --    0.01492   0.02105   0.03134   0.03240   0.03445
 Alpha virt. eigenvalues --    0.03759   0.04139   0.04169   0.04457   0.04650
 Alpha virt. eigenvalues --    0.05074   0.05354   0.05644   0.06466   0.06553
 Alpha virt. eigenvalues --    0.06875   0.07014   0.07312   0.07627   0.07686
 Alpha virt. eigenvalues --    0.07876   0.08158   0.08499   0.08694   0.09020
 Alpha virt. eigenvalues --    0.09121   0.09409   0.09641   0.09801   0.09968
 Alpha virt. eigenvalues --    0.10063   0.10078   0.10514   0.10668   0.10995
 Alpha virt. eigenvalues --    0.11451   0.11553   0.11792   0.12370   0.12490
 Alpha virt. eigenvalues --    0.12554   0.12800   0.13040   0.13472   0.13701
 Alpha virt. eigenvalues --    0.14024   0.14191   0.14826   0.14913   0.15392
 Alpha virt. eigenvalues --    0.15850   0.16253   0.16532   0.17138   0.17237
 Alpha virt. eigenvalues --    0.17604   0.18129   0.18274   0.18441   0.19735
 Alpha virt. eigenvalues --    0.20152   0.21160   0.21702   0.22289   0.22829
 Alpha virt. eigenvalues --    0.23126   0.24513   0.24868   0.25457   0.25994
 Alpha virt. eigenvalues --    0.26339   0.26539   0.27105   0.27889   0.28752
 Alpha virt. eigenvalues --    0.29039   0.29933   0.30783   0.31962   0.32121
 Alpha virt. eigenvalues --    0.32709   0.33401   0.33562   0.33783   0.34600
 Alpha virt. eigenvalues --    0.35391   0.35593   0.36593   0.37575   0.37924
 Alpha virt. eigenvalues --    0.38300   0.38471   0.39261   0.39740   0.40169
 Alpha virt. eigenvalues --    0.40307   0.40922   0.41816   0.42277   0.42440
 Alpha virt. eigenvalues --    0.42943   0.43353   0.43417   0.43684   0.43970
 Alpha virt. eigenvalues --    0.44228   0.44744   0.44948   0.45332   0.45450
 Alpha virt. eigenvalues --    0.45922   0.46450   0.46724   0.47224   0.47572
 Alpha virt. eigenvalues --    0.48388   0.48580   0.49227   0.49472   0.49964
 Alpha virt. eigenvalues --    0.50402   0.50774   0.51036   0.51227   0.51410
 Alpha virt. eigenvalues --    0.52046   0.52504   0.52581   0.52979   0.53129
 Alpha virt. eigenvalues --    0.53377   0.54594   0.54751   0.55214   0.55892
 Alpha virt. eigenvalues --    0.56055   0.56266   0.56437   0.56935   0.57006
 Alpha virt. eigenvalues --    0.57435   0.57763   0.58115   0.58728   0.59004
 Alpha virt. eigenvalues --    0.59665   0.59685   0.60406   0.60699   0.60720
 Alpha virt. eigenvalues --    0.61406   0.62008   0.62710   0.62802   0.63045
 Alpha virt. eigenvalues --    0.63439   0.64439   0.64607   0.64933   0.65341
 Alpha virt. eigenvalues --    0.65899   0.66049   0.66502   0.66628   0.66866
 Alpha virt. eigenvalues --    0.67898   0.68271   0.68595   0.68730   0.69186
 Alpha virt. eigenvalues --    0.69411   0.69814   0.70117   0.70315   0.70723
 Alpha virt. eigenvalues --    0.70840   0.71394   0.71570   0.71888   0.72422
 Alpha virt. eigenvalues --    0.72852   0.73397   0.74131   0.75695   0.76472
 Alpha virt. eigenvalues --    0.76679   0.77003   0.77283   0.77566   0.78000
 Alpha virt. eigenvalues --    0.78381   0.78647   0.78975   0.79099   0.79311
 Alpha virt. eigenvalues --    0.79773   0.79962   0.80142   0.80362   0.80609
 Alpha virt. eigenvalues --    0.81032   0.81669   0.81723   0.82054   0.82305
 Alpha virt. eigenvalues --    0.82500   0.82780   0.83118   0.83469   0.83802
 Alpha virt. eigenvalues --    0.83834   0.84118   0.84395   0.84971   0.85388
 Alpha virt. eigenvalues --    0.85616   0.86372   0.86742   0.87169   0.87453
 Alpha virt. eigenvalues --    0.87741   0.87895   0.88147   0.88524   0.89197
 Alpha virt. eigenvalues --    0.89365   0.89645   0.89881   0.90020   0.90438
 Alpha virt. eigenvalues --    0.90838   0.91210   0.91672   0.91799   0.91899
 Alpha virt. eigenvalues --    0.92583   0.92944   0.93374   0.93887   0.94166
 Alpha virt. eigenvalues --    0.94771   0.94881   0.95966   0.96067   0.96726
 Alpha virt. eigenvalues --    0.97079   0.97711   0.97922   0.99550   0.99731
 Alpha virt. eigenvalues --    1.00278   1.01070   1.01641   1.02061   1.02712
 Alpha virt. eigenvalues --    1.03301   1.04109   1.04971   1.06125   1.06550
 Alpha virt. eigenvalues --    1.07371   1.07786   1.08176   1.08301   1.08947
 Alpha virt. eigenvalues --    1.09355   1.09827   1.10358   1.11202   1.11339
 Alpha virt. eigenvalues --    1.11819   1.11936   1.13504   1.13663   1.13992
 Alpha virt. eigenvalues --    1.14725   1.14994   1.16771   1.17042   1.17640
 Alpha virt. eigenvalues --    1.18303   1.19212   1.20253   1.20856   1.21327
 Alpha virt. eigenvalues --    1.22205   1.22549   1.23045   1.23556   1.24349
 Alpha virt. eigenvalues --    1.25130   1.25694   1.26351   1.26626   1.26720
 Alpha virt. eigenvalues --    1.26965   1.27220   1.28070   1.28625   1.28906
 Alpha virt. eigenvalues --    1.29353   1.30134   1.30487   1.31216   1.32351
 Alpha virt. eigenvalues --    1.33170   1.33698   1.34307   1.34540   1.35212
 Alpha virt. eigenvalues --    1.36052   1.36810   1.37336   1.38047   1.38836
 Alpha virt. eigenvalues --    1.39390   1.40906   1.40950   1.42278   1.42541
 Alpha virt. eigenvalues --    1.43409   1.44151   1.44924   1.45085   1.45870
 Alpha virt. eigenvalues --    1.45994   1.46430   1.47465   1.47698   1.49315
 Alpha virt. eigenvalues --    1.49753   1.51071   1.51755   1.52658   1.53220
 Alpha virt. eigenvalues --    1.54192   1.54605   1.55221   1.55784   1.56740
 Alpha virt. eigenvalues --    1.58162   1.59629   1.60791   1.61198   1.62341
 Alpha virt. eigenvalues --    1.63536   1.64325   1.64749   1.65775   1.66926
 Alpha virt. eigenvalues --    1.68778   1.69758   1.70589   1.70814   1.70907
 Alpha virt. eigenvalues --    1.71872   1.72129   1.72773   1.72876   1.74447
 Alpha virt. eigenvalues --    1.74793   1.75190   1.75379   1.75816   1.76038
 Alpha virt. eigenvalues --    1.76599   1.76988   1.77646   1.78195   1.78744
 Alpha virt. eigenvalues --    1.79553   1.80234   1.80929   1.81369   1.81657
 Alpha virt. eigenvalues --    1.82337   1.83447   1.83655   1.84495   1.85009
 Alpha virt. eigenvalues --    1.85531   1.86361   1.86622   1.87396   1.87985
 Alpha virt. eigenvalues --    1.88797   1.89194   1.90367   1.90900   1.91124
 Alpha virt. eigenvalues --    1.91334   1.91942   1.92662   1.93028   1.93598
 Alpha virt. eigenvalues --    1.94596   1.95018   1.95080   1.95413   1.96180
 Alpha virt. eigenvalues --    1.96401   1.97651   1.97859   1.98638   1.99735
 Alpha virt. eigenvalues --    2.00175   2.01580   2.02559   2.02791   2.03390
 Alpha virt. eigenvalues --    2.03815   2.05060   2.05882   2.06158   2.06420
 Alpha virt. eigenvalues --    2.06871   2.08359   2.08721   2.09952   2.10495
 Alpha virt. eigenvalues --    2.11196   2.11543   2.12393   2.13106   2.13205
 Alpha virt. eigenvalues --    2.13751   2.14428   2.15336   2.15798   2.16346
 Alpha virt. eigenvalues --    2.16689   2.17281   2.17744   2.18160   2.18372
 Alpha virt. eigenvalues --    2.18606   2.19060   2.19333   2.19434   2.20088
 Alpha virt. eigenvalues --    2.20713   2.21086   2.21144   2.21708   2.22076
 Alpha virt. eigenvalues --    2.22673   2.22970   2.23850   2.24093   2.24388
 Alpha virt. eigenvalues --    2.25189   2.25742   2.26121   2.26459   2.26968
 Alpha virt. eigenvalues --    2.27361   2.28178   2.28553   2.29071   2.29796
 Alpha virt. eigenvalues --    2.29900   2.30944   2.31862   2.32093   2.32499
 Alpha virt. eigenvalues --    2.32900   2.33692   2.34234   2.34428   2.34851
 Alpha virt. eigenvalues --    2.35190   2.36155   2.38021   2.39438   2.39966
 Alpha virt. eigenvalues --    2.41066   2.41977   2.43355   2.43680   2.44230
 Alpha virt. eigenvalues --    2.44252   2.44956   2.46245   2.46638   2.46993
 Alpha virt. eigenvalues --    2.47941   2.48556   2.50149   2.50425   2.51142
 Alpha virt. eigenvalues --    2.52232   2.53943   2.54583   2.57087   2.57442
 Alpha virt. eigenvalues --    2.58636   2.59430   2.60339   2.60662   2.61871
 Alpha virt. eigenvalues --    2.63816   2.66289   2.66463   2.67245   2.68840
 Alpha virt. eigenvalues --    2.69800   2.71404   2.72269   2.72908   2.77801
 Alpha virt. eigenvalues --    2.78150   2.79078   2.80880   2.81649   2.82664
 Alpha virt. eigenvalues --    2.84310   2.86191   2.87040   2.87512   2.88101
 Alpha virt. eigenvalues --    2.89787   2.90351   2.90766   2.94006   2.94336
 Alpha virt. eigenvalues --    2.96857   2.98415   3.02920   3.04560   3.06045
 Alpha virt. eigenvalues --    3.09041   3.13330   3.15268   3.18767   3.20288
 Alpha virt. eigenvalues --    3.27959   3.28561   3.30574   3.35445   3.36078
 Alpha virt. eigenvalues --    3.43695   3.48492   3.62144   3.70375   3.96018
 Alpha virt. eigenvalues --    4.05895
  Beta  occ. eigenvalues -- -256.39751 -89.04985 -30.21452 -26.05992 -26.05911
  Beta  occ. eigenvalues --  -26.05899 -14.52964 -14.47482 -14.45513 -14.45420
  Beta  occ. eigenvalues --  -14.45319 -14.45162 -10.36868 -10.34341 -10.33492
  Beta  occ. eigenvalues --  -10.33168 -10.33093 -10.33075 -10.32934 -10.32867
  Beta  occ. eigenvalues --  -10.32830 -10.32810 -10.31910 -10.31728 -10.31498
  Beta  occ. eigenvalues --  -10.30340 -10.30187 -10.30169 -10.30012 -10.29967
  Beta  occ. eigenvalues --  -10.29911 -10.29902 -10.29886 -10.29852 -10.29843
  Beta  occ. eigenvalues --  -10.29836 -10.29801 -10.29728 -10.29511 -10.29257
  Beta  occ. eigenvalues --  -10.28147 -10.28131 -10.28112 -10.28043 -10.27947
  Beta  occ. eigenvalues --  -10.27917 -10.27876 -10.27818 -10.27290  -8.08029
  Beta  occ. eigenvalues --   -6.02650  -6.02334  -6.01720  -3.54152  -2.29432
  Beta  occ. eigenvalues --   -2.29148  -2.29131  -1.15570  -1.08403  -1.07382
  Beta  occ. eigenvalues --   -1.07278  -1.06290  -1.01221  -0.93147  -0.92532
  Beta  occ. eigenvalues --   -0.91814  -0.91602  -0.90979  -0.90562  -0.90319
  Beta  occ. eigenvalues --   -0.90179  -0.89648  -0.86639  -0.85405  -0.84948
  Beta  occ. eigenvalues --   -0.84797  -0.84012  -0.82654  -0.81274  -0.80734
  Beta  occ. eigenvalues --   -0.79854  -0.78219  -0.77987  -0.77653  -0.75482
  Beta  occ. eigenvalues --   -0.74887  -0.74639  -0.74530  -0.71224  -0.70562
  Beta  occ. eigenvalues --   -0.70097  -0.69277  -0.68003  -0.67695  -0.65981
  Beta  occ. eigenvalues --   -0.64631  -0.64359  -0.63706  -0.62489  -0.61502
  Beta  occ. eigenvalues --   -0.61107  -0.60653  -0.58703  -0.58091  -0.57937
  Beta  occ. eigenvalues --   -0.57559  -0.57251  -0.56860  -0.55915  -0.55111
  Beta  occ. eigenvalues --   -0.54849  -0.54256  -0.54148  -0.53907  -0.53495
  Beta  occ. eigenvalues --   -0.53250  -0.53030  -0.52825  -0.52800  -0.52565
  Beta  occ. eigenvalues --   -0.52484  -0.52191  -0.52016  -0.51823  -0.51245
  Beta  occ. eigenvalues --   -0.50769  -0.50738  -0.50430  -0.50179  -0.50137
  Beta  occ. eigenvalues --   -0.50001  -0.49712  -0.49374  -0.49169  -0.49144
  Beta  occ. eigenvalues --   -0.49062  -0.48766  -0.48240  -0.48051  -0.47805
  Beta  occ. eigenvalues --   -0.47565  -0.47060  -0.46965  -0.46663  -0.46572
  Beta  occ. eigenvalues --   -0.46347  -0.45775  -0.45252  -0.45237  -0.44368
  Beta  occ. eigenvalues --   -0.44030  -0.43942  -0.43625  -0.42778  -0.42495
  Beta  occ. eigenvalues --   -0.42039  -0.41794  -0.41118  -0.40000  -0.39195
  Beta  occ. eigenvalues --   -0.38620  -0.37148  -0.36887  -0.35963  -0.33985
  Beta  occ. eigenvalues --   -0.33473  -0.32622  -0.31931  -0.31672  -0.28691
  Beta  occ. eigenvalues --   -0.28194
  Beta virt. eigenvalues --   -0.20068  -0.19829  -0.18338  -0.15694  -0.15691
  Beta virt. eigenvalues --   -0.12189  -0.11279  -0.09886  -0.07705  -0.07374
  Beta virt. eigenvalues --   -0.06424  -0.05548  -0.03969  -0.03313  -0.01224
  Beta virt. eigenvalues --   -0.01050  -0.00858  -0.00408   0.00401   0.01088
  Beta virt. eigenvalues --    0.01538   0.02127   0.03203   0.03304   0.03490
  Beta virt. eigenvalues --    0.03879   0.04227   0.04362   0.04628   0.04802
  Beta virt. eigenvalues --    0.05224   0.05409   0.05746   0.06509   0.06602
  Beta virt. eigenvalues --    0.06957   0.07155   0.07423   0.07704   0.07752
  Beta virt. eigenvalues --    0.07938   0.08218   0.08548   0.08759   0.09086
  Beta virt. eigenvalues --    0.09230   0.09459   0.09748   0.09866   0.10031
  Beta virt. eigenvalues --    0.10087   0.10228   0.10590   0.10759   0.11061
  Beta virt. eigenvalues --    0.11578   0.11792   0.12012   0.12493   0.12602
  Beta virt. eigenvalues --    0.12638   0.13016   0.13098   0.13642   0.13891
  Beta virt. eigenvalues --    0.14187   0.14337   0.15032   0.15194   0.15530
  Beta virt. eigenvalues --    0.15964   0.16573   0.16938   0.17332   0.17752
  Beta virt. eigenvalues --    0.18088   0.18289   0.18505   0.19071   0.19872
  Beta virt. eigenvalues --    0.20591   0.21493   0.22195   0.22614   0.23435
  Beta virt. eigenvalues --    0.23636   0.24921   0.25200   0.25746   0.26168
  Beta virt. eigenvalues --    0.26748   0.26975   0.27287   0.28131   0.28959
  Beta virt. eigenvalues --    0.29600   0.30221   0.31188   0.32155   0.32505
  Beta virt. eigenvalues --    0.33127   0.33562   0.33744   0.33974   0.34717
  Beta virt. eigenvalues --    0.36072   0.36452   0.37659   0.37945   0.38067
  Beta virt. eigenvalues --    0.38500   0.38648   0.39583   0.40049   0.40346
  Beta virt. eigenvalues --    0.40776   0.41333   0.42018   0.42463   0.42698
  Beta virt. eigenvalues --    0.43072   0.43447   0.43779   0.43892   0.44121
  Beta virt. eigenvalues --    0.44438   0.44814   0.45112   0.45563   0.45602
  Beta virt. eigenvalues --    0.46042   0.46601   0.46834   0.47359   0.47790
  Beta virt. eigenvalues --    0.48491   0.48677   0.49321   0.49610   0.50054
  Beta virt. eigenvalues --    0.50502   0.50925   0.51179   0.51348   0.51632
  Beta virt. eigenvalues --    0.52182   0.52696   0.52735   0.53076   0.53238
  Beta virt. eigenvalues --    0.53495   0.54703   0.54916   0.55359   0.56028
  Beta virt. eigenvalues --    0.56330   0.56486   0.56562   0.57034   0.57187
  Beta virt. eigenvalues --    0.57575   0.57823   0.58215   0.58798   0.59194
  Beta virt. eigenvalues --    0.59784   0.60000   0.60609   0.60828   0.61202
  Beta virt. eigenvalues --    0.61776   0.62248   0.62826   0.62882   0.63227
  Beta virt. eigenvalues --    0.64041   0.64714   0.64833   0.65299   0.65494
  Beta virt. eigenvalues --    0.66041   0.66207   0.66729   0.66813   0.67009
  Beta virt. eigenvalues --    0.68051   0.68454   0.68857   0.68873   0.69390
  Beta virt. eigenvalues --    0.69650   0.69997   0.70286   0.70510   0.71093
  Beta virt. eigenvalues --    0.71170   0.71764   0.72038   0.72252   0.72704
  Beta virt. eigenvalues --    0.73205   0.73614   0.74231   0.76011   0.76583
  Beta virt. eigenvalues --    0.77030   0.77176   0.77516   0.77761   0.78248
  Beta virt. eigenvalues --    0.78564   0.78762   0.79269   0.79344   0.79546
  Beta virt. eigenvalues --    0.79905   0.80169   0.80423   0.80662   0.80957
  Beta virt. eigenvalues --    0.81137   0.81791   0.81814   0.82336   0.82545
  Beta virt. eigenvalues --    0.82636   0.82894   0.83340   0.83785   0.83889
  Beta virt. eigenvalues --    0.83906   0.84357   0.84465   0.85136   0.85468
  Beta virt. eigenvalues --    0.85820   0.86523   0.87006   0.87491   0.87627
  Beta virt. eigenvalues --    0.87832   0.88156   0.88374   0.88941   0.89446
  Beta virt. eigenvalues --    0.89666   0.89797   0.89957   0.90148   0.90750
  Beta virt. eigenvalues --    0.90957   0.91296   0.91812   0.91912   0.92348
  Beta virt. eigenvalues --    0.92749   0.93220   0.93475   0.94131   0.94265
  Beta virt. eigenvalues --    0.94898   0.95224   0.96105   0.96222   0.96965
  Beta virt. eigenvalues --    0.97182   0.97859   0.98461   0.99964   1.00084
  Beta virt. eigenvalues --    1.00581   1.01217   1.01805   1.02441   1.03502
  Beta virt. eigenvalues --    1.03835   1.04362   1.05181   1.06282   1.06895
  Beta virt. eigenvalues --    1.07478   1.07950   1.08367   1.08661   1.09167
  Beta virt. eigenvalues --    1.09613   1.09950   1.10718   1.11309   1.11426
  Beta virt. eigenvalues --    1.12009   1.12624   1.13693   1.14102   1.14153
  Beta virt. eigenvalues --    1.15280   1.16199   1.17092   1.17660   1.18085
  Beta virt. eigenvalues --    1.18604   1.19627   1.20411   1.21019   1.21689
  Beta virt. eigenvalues --    1.22514   1.22998   1.23250   1.23990   1.24741
  Beta virt. eigenvalues --    1.25249   1.25848   1.26493   1.26766   1.26948
  Beta virt. eigenvalues --    1.27312   1.27479   1.28267   1.28734   1.29136
  Beta virt. eigenvalues --    1.29505   1.30365   1.30749   1.31560   1.32589
  Beta virt. eigenvalues --    1.33395   1.33898   1.34890   1.34969   1.35471
  Beta virt. eigenvalues --    1.36260   1.37011   1.37481   1.38255   1.39222
  Beta virt. eigenvalues --    1.39839   1.41093   1.41428   1.42425   1.42706
  Beta virt. eigenvalues --    1.43501   1.44317   1.45101   1.45217   1.46086
  Beta virt. eigenvalues --    1.46312   1.46660   1.47822   1.48164   1.49456
  Beta virt. eigenvalues --    1.49862   1.51387   1.51859   1.53172   1.53426
  Beta virt. eigenvalues --    1.54305   1.54888   1.55724   1.56296   1.56906
  Beta virt. eigenvalues --    1.58389   1.59792   1.60958   1.61388   1.62506
  Beta virt. eigenvalues --    1.63686   1.64467   1.64929   1.66068   1.67117
  Beta virt. eigenvalues --    1.68890   1.69976   1.70675   1.70931   1.71156
  Beta virt. eigenvalues --    1.72023   1.72327   1.72966   1.73169   1.74509
  Beta virt. eigenvalues --    1.74910   1.75356   1.75579   1.76013   1.76315
  Beta virt. eigenvalues --    1.76742   1.77139   1.77836   1.78328   1.78905
  Beta virt. eigenvalues --    1.79794   1.80453   1.81064   1.81570   1.81774
  Beta virt. eigenvalues --    1.82504   1.83742   1.83891   1.84759   1.85298
  Beta virt. eigenvalues --    1.85811   1.86773   1.86904   1.87554   1.88112
  Beta virt. eigenvalues --    1.89288   1.89862   1.90567   1.91043   1.91411
  Beta virt. eigenvalues --    1.91586   1.92232   1.92855   1.93348   1.93853
  Beta virt. eigenvalues --    1.94795   1.95310   1.95643   1.95677   1.96315
  Beta virt. eigenvalues --    1.96770   1.97945   1.98299   1.98807   2.00122
  Beta virt. eigenvalues --    2.00484   2.01850   2.02749   2.03342   2.03506
  Beta virt. eigenvalues --    2.04058   2.05186   2.06141   2.06460   2.06585
  Beta virt. eigenvalues --    2.07005   2.08678   2.09208   2.10121   2.10697
  Beta virt. eigenvalues --    2.11473   2.12381   2.12721   2.13301   2.13843
  Beta virt. eigenvalues --    2.14256   2.15021   2.15611   2.16025   2.16524
  Beta virt. eigenvalues --    2.16997   2.17445   2.18239   2.18398   2.18660
  Beta virt. eigenvalues --    2.19249   2.19531   2.19734   2.20394   2.21068
  Beta virt. eigenvalues --    2.21149   2.21457   2.21805   2.22276   2.22412
  Beta virt. eigenvalues --    2.23390   2.24016   2.24307   2.24869   2.25130
  Beta virt. eigenvalues --    2.25283   2.26261   2.26563   2.26964   2.27235
  Beta virt. eigenvalues --    2.27563   2.28386   2.28895   2.29447   2.29958
  Beta virt. eigenvalues --    2.30344   2.31170   2.32021   2.32485   2.32816
  Beta virt. eigenvalues --    2.33210   2.33899   2.34426   2.34769   2.35199
  Beta virt. eigenvalues --    2.35446   2.36559   2.38784   2.39674   2.41067
  Beta virt. eigenvalues --    2.41559   2.42296   2.43528   2.43839   2.44399
  Beta virt. eigenvalues --    2.44657   2.45486   2.46701   2.46802   2.47149
  Beta virt. eigenvalues --    2.48186   2.49066   2.50318   2.50783   2.51417
  Beta virt. eigenvalues --    2.52376   2.54040   2.54646   2.57384   2.57681
  Beta virt. eigenvalues --    2.58910   2.59741   2.60639   2.60928   2.62025
  Beta virt. eigenvalues --    2.64065   2.66565   2.66852   2.67420   2.68954
  Beta virt. eigenvalues --    2.69902   2.71524   2.72476   2.73257   2.77998
  Beta virt. eigenvalues --    2.78436   2.79263   2.81081   2.81967   2.82957
  Beta virt. eigenvalues --    2.84656   2.86432   2.87200   2.87704   2.88245
  Beta virt. eigenvalues --    2.89910   2.90586   2.91213   2.94192   2.94811
  Beta virt. eigenvalues --    2.97075   2.99084   3.03156   3.04791   3.06118
  Beta virt. eigenvalues --    3.09194   3.13532   3.15953   3.18872   3.20380
  Beta virt. eigenvalues --    3.28192   3.28669   3.31458   3.35998   3.36304
  Beta virt. eigenvalues --    3.56380   3.61024   3.72323   3.82333   4.06059
  Beta virt. eigenvalues --    4.16302
          Condensed to atoms (all electrons):
          Atomic-Atomic Spin Densities.
 Mulliken charges and spin densities:
               1          2
     1  Fe   0.942653   4.251877
     2  N   -0.693574   0.081792
     3  N   -0.670392   0.079578
     4  N   -0.694155   0.082505
     5  N   -0.720923   0.088927
     6  C    0.324266   0.008437
     7  C    0.036090   0.015049
     8  C    0.048952   0.018554
     9  C    0.291906   0.007425
    10  C    0.265777   0.008477
    11  C    0.042303   0.014105
    12  C    0.046870   0.017790
    13  C    0.301446   0.003487
    14  C    0.301070   0.004954
    15  C    0.013813   0.018864
    16  C    0.039531   0.017370
    17  C    0.298214   0.004647
    18  C    0.311591   0.004131
    19  C   -0.001524   0.024342
    20  C    0.036818   0.017475
    21  C    0.322881   0.008243
    22  C   -0.291956  -0.005670
    23  H    0.188146   0.000344
    24  C   -0.289719  -0.004023
    25  H    0.189788   0.000267
    26  C   -0.294278  -0.000456
    27  H    0.189279   0.000148
    28  C   -0.317271  -0.000513
    29  H    0.192932   0.000247
    30  C   -0.611882  -0.000507
    31  H    0.200403   0.000661
    32  H    0.206031   0.000668
    33  H    0.202536   0.000410
    34  C   -0.612260  -0.000695
    35  H    0.206165   0.000748
    36  H    0.200428   0.000767
    37  H    0.203411   0.000448
    38  C   -0.606149  -0.000562
    39  H    0.207309   0.000820
    40  H    0.203357   0.000760
    41  H    0.203094   0.000426
    42  C   -0.155212  -0.006903
    43  H    0.188637   0.001031
    44  C   -0.393096   0.012089
    45  H    0.178784  -0.000557
    46  H    0.195431  -0.000605
    47  C   -0.616023  -0.000620
    48  H    0.204470   0.000893
    49  H    0.197600   0.000456
    50  H    0.211425   0.000561
    51  C   -0.152613  -0.006160
    52  H    0.178705   0.000483
    53  C   -0.391871   0.011329
    54  H    0.187776  -0.000557
    55  H    0.193295  -0.000428
    56  C   -0.611251  -0.000761
    57  H    0.204012   0.000675
    58  H    0.204041   0.000813
    59  H    0.202619   0.000413
    60  C   -0.610581  -0.000440
    61  H    0.202275   0.000509
    62  H    0.203336   0.000380
    63  H    0.203715   0.000715
    64  C   -0.603359   0.000639
    65  H    0.210993   0.000310
    66  H    0.210826   0.000310
    67  H    0.219405   0.000040
    68  N   -0.628841   0.003437
    69  H    0.381507   0.001436
    70  C    0.281392   0.007765
    71  C    0.256611   0.005379
    72  H    0.231150   0.000806
    73  N   -0.460143   0.084278
    74  C   -0.054851  -0.004022
    75  H    0.207377   0.001400
    76  C   -0.536309   0.000186
    77  H    0.206327  -0.000067
    78  H    0.200163   0.000082
    79  H    0.197334   0.000515
    80  C   -0.505005  -0.001544
    81  H    0.239940   0.003240
    82  H    0.217458   0.001556
    83  S    0.290332   0.104252
    84  C   -0.696679  -0.000361
    85  H    0.228888   0.001666
    86  H    0.229234   0.003042
    87  H    0.237798   0.000024
 Sum of Mulliken charges =   1.00000   5.00000
 Mulliken charges and spin densities with hydrogens summed into heavy atoms:
               1          2
     1  Fe   0.942653   4.251877
     2  N   -0.693574   0.081792
     3  N   -0.670392   0.079578
     4  N   -0.694155   0.082505
     5  N   -0.720923   0.088927
     6  C    0.324266   0.008437
     7  C    0.036090   0.015049
     8  C    0.048952   0.018554
     9  C    0.291906   0.007425
    10  C    0.265777   0.008477
    11  C    0.042303   0.014105
    12  C    0.046870   0.017790
    13  C    0.301446   0.003487
    14  C    0.301070   0.004954
    15  C    0.013813   0.018864
    16  C    0.039531   0.017370
    17  C    0.298214   0.004647
    18  C    0.311591   0.004131
    19  C   -0.001524   0.024342
    20  C    0.036818   0.017475
    21  C    0.322881   0.008243
    22  C   -0.103810  -0.005326
    24  C   -0.099931  -0.003757
    26  C   -0.104999  -0.000309
    28  C   -0.124339  -0.000266
    30  C   -0.002913   0.001231
    34  C   -0.002256   0.001267
    38  C    0.007612   0.001443
    42  C    0.033425  -0.005872
    44  C   -0.018880   0.010927
    47  C   -0.002528   0.001290
    51  C    0.026092  -0.005677
    53  C   -0.010800   0.010344
    56  C   -0.000580   0.001140
    60  C   -0.001255   0.001164
    64  C    0.037865   0.001299
    68  N   -0.247334   0.004873
    70  C    0.281392   0.007765
    71  C    0.487761   0.006184
    73  N   -0.460143   0.084278
    74  C    0.152526  -0.002622
    76  C    0.067514   0.000715
    80  C   -0.047607   0.003253
    83  S    0.290332   0.104252
    84  C   -0.000760   0.004371
 Electronic spatial extent (au):  <R**2>=          21326.4404
 Charge=              1.0000 electrons
 Dipole moment (field-independent basis, Debye):
    X=             -0.6054    Y=             -0.0867    Z=              3.4993  Tot=              3.5524
 Quadrupole moment (field-independent basis, Debye-Ang):
   XX=           -211.9113   YY=           -216.4400   ZZ=           -224.1092
   XY=             -1.6842   XZ=             -8.6877   YZ=             -1.9468
 Traceless Quadrupole moment (field-independent basis, Debye-Ang):
   XX=              5.5755   YY=              1.0468   ZZ=             -6.6224
   XY=             -1.6842   XZ=             -8.6877   YZ=             -1.9468
 Octapole moment (field-independent basis, Debye-Ang**2):
  XXX=            -29.1611  YYY=             -1.5258  ZZZ=            156.3545  XYY=              2.2512
  XXY=             -7.2010  XXZ=            -17.2837  XZZ=              2.4240  YZZ=             -0.6264
  YYZ=              6.2942  XYZ=             -5.3734
 Hexadecapole moment (field-independent basis, Debye-Ang**3):
 XXXX=         -10567.4959 YYYY=         -10183.5887 ZZZZ=          -3846.0063 XXXY=             17.3583
 XXXZ=           -136.0977 YYYX=             48.5341 YYYZ=             51.6108 ZZZX=            -80.5262
 ZZZY=           -106.8175 XXYY=          -3272.0160 XXZZ=          -2765.5801 YYZZ=          -2808.3618
 XXYZ=              3.3529 YYXZ=             -0.5247 ZZXY=            -31.7124
 N-N= 7.166475767502D+03 E-N=-2.234704359442D+04  KE= 3.412988662010D+03
                          Isotropic Fermi Contact Couplings
        Atom                 a.u.       MegaHertz       Gauss      10(-4) cm-1
     1  Fe(57)             0.48826      14.16354       5.05390       4.72445
     2  N(14)              0.14024       9.06269       3.23379       3.02299
     3  N(14)              0.14198       9.17467       3.27375       3.06034
     4  N(14)              0.13959       9.02027       3.21866       3.00884
     5  N(14)              0.14143       9.13964       3.26125       3.04866
     6  C(13)              0.00499       1.12277       0.40063       0.37452
     7  C(13)              0.00537       1.20746       0.43085       0.40277
     8  C(13)              0.00619       1.39266       0.49693       0.46454
     9  C(13)              0.00683       1.53637       0.54821       0.51248
    10  C(13)              0.00598       1.34425       0.47966       0.44839
    11  C(13)              0.00521       1.17091       0.41781       0.39057
    12  C(13)              0.00578       1.29949       0.46369       0.43346
    13  C(13)              0.00516       1.16084       0.41422       0.38721
    14  C(13)              0.00661       1.48575       0.53015       0.49559
    15  C(13)              0.00629       1.41422       0.50463       0.47173
    16  C(13)              0.00583       1.31159       0.46801       0.43750
    17  C(13)              0.00477       1.07168       0.38240       0.35747
    18  C(13)              0.00602       1.35446       0.48331       0.45180
    19  C(13)              0.00724       1.62824       0.58100       0.54312
    20  C(13)              0.00624       1.40328       0.50072       0.46808
    21  C(13)              0.00631       1.41804       0.50599       0.47301
    22  C(13)             -0.00101      -0.22767      -0.08124      -0.07594
    23  H(1)               0.00011       0.09579       0.03418       0.03195
    24  C(13)             -0.00069      -0.15540      -0.05545      -0.05184
    25  H(1)               0.00009       0.08191       0.02923       0.02732
    26  C(13)             -0.00005      -0.01019      -0.00363      -0.00340
    27  H(1)               0.00005       0.04665       0.01665       0.01556
    28  C(13)              0.00024       0.05398       0.01926       0.01801
    29  H(1)               0.00004       0.03489       0.01245       0.01164
    30  C(13)              0.00005       0.01128       0.00403       0.00376
    31  H(1)               0.00034       0.29986       0.10700       0.10002
    32  H(1)               0.00033       0.29480       0.10519       0.09834
    33  H(1)               0.00015       0.13518       0.04823       0.04509
    34  C(13)              0.00004       0.00993       0.00354       0.00331
    35  H(1)               0.00039       0.34475       0.12301       0.11500
    36  H(1)               0.00039       0.35233       0.12572       0.11753
    37  H(1)               0.00017       0.15014       0.05357       0.05008
    38  C(13)              0.00009       0.02033       0.00725       0.00678
    39  H(1)               0.00041       0.36799       0.13131       0.12275
    40  H(1)               0.00036       0.32247       0.11507       0.10756
    41  H(1)               0.00017       0.15370       0.05484       0.05127
    42  C(13)             -0.00078      -0.17471      -0.06234      -0.05828
    43  H(1)               0.00045       0.40057       0.14293       0.13361
    44  C(13)              0.00186       0.41821       0.14923       0.13950
    45  H(1)              -0.00017      -0.15089      -0.05384      -0.05033
    46  H(1)              -0.00019      -0.16564      -0.05910      -0.05525
    47  C(13)              0.00008       0.01690       0.00603       0.00564
    48  H(1)               0.00047       0.42206       0.15060       0.14079
    49  H(1)               0.00020       0.17642       0.06295       0.05885
    50  H(1)               0.00021       0.18389       0.06562       0.06134
    51  C(13)             -0.00067      -0.15139      -0.05402      -0.05050
    52  H(1)               0.00018       0.15977       0.05701       0.05329
    53  C(13)              0.00179       0.40342       0.14395       0.13457
    54  H(1)              -0.00017      -0.14925      -0.05326      -0.04978
    55  H(1)              -0.00012      -0.10833      -0.03866      -0.03614
    56  C(13)             -0.00002      -0.00479      -0.00171      -0.00160
    57  H(1)               0.00033       0.29722       0.10606       0.09914
    58  H(1)               0.00041       0.37061       0.13224       0.12362
    59  H(1)               0.00015       0.13617       0.04859       0.04542
    60  C(13)              0.00008       0.01785       0.00637       0.00596
    61  H(1)               0.00026       0.23536       0.08398       0.07851
    62  H(1)               0.00014       0.12713       0.04536       0.04240
    63  H(1)               0.00036       0.32123       0.11462       0.10715
    64  C(13)              0.00048       0.10897       0.03888       0.03635
    65  H(1)               0.00017       0.15221       0.05431       0.05077
    66  H(1)               0.00017       0.15324       0.05468       0.05112
    67  H(1)               0.00004       0.03363       0.01200       0.01122
    68  N(14)              0.00742       0.47948       0.17109       0.15994
    69  H(1)               0.00055       0.48981       0.17478       0.16338
    70  C(13)              0.00486       1.09196       0.38964       0.36424
    71  C(13)              0.00366       0.82226       0.29340       0.27428
    72  H(1)               0.00020       0.17452       0.06227       0.05821
    73  N(14)              0.15896      10.27229       3.66541       3.42647
    74  C(13)              0.00098       0.21946       0.07831       0.07321
    75  H(1)               0.00052       0.46199       0.16485       0.15410
    76  C(13)              0.00111       0.25048       0.08938       0.08355
    77  H(1)               0.00001       0.01157       0.00413       0.00386
    78  H(1)              -0.00002      -0.01836      -0.00655      -0.00612
    79  H(1)               0.00022       0.20086       0.07167       0.06700
    80  C(13)             -0.00234      -0.52554      -0.18752      -0.17530
    81  H(1)               0.00123       1.09886       0.39210       0.36654
    82  H(1)               0.00088       0.78394       0.27973       0.26149
    83  S(33)              0.14160       9.72740       3.47098       3.24471
    84  C(13)             -0.00120      -0.26873      -0.09589      -0.08964
    85  H(1)               0.00085       0.75826       0.27057       0.25293
    86  H(1)               0.00199       1.77489       0.63333       0.59204
    87  H(1)               0.00005       0.04782       0.01706       0.01595
 --------------------------------------------------------
       Center         ----  Spin Dipole Couplings  ----
                      3XX-RR        3YY-RR        3ZZ-RR
 --------------------------------------------------------
     1   Atom        0.103517      0.092126     -0.195643
     2   Atom        0.134022     -0.023997     -0.110025
     3   Atom       -0.020885      0.120663     -0.099778
     4   Atom        0.125385     -0.007444     -0.117940
     5   Atom       -0.020654      0.135395     -0.114741
     6   Atom       -0.010964      0.035030     -0.024066
     7   Atom        0.002109     -0.003430      0.001321
     8   Atom        0.006276     -0.009722      0.003446
     9   Atom        0.051410     -0.027541     -0.023869
    10   Atom        0.033161     -0.011090     -0.022071
    11   Atom       -0.002618      0.002390      0.000228
    12   Atom       -0.009773      0.006701      0.003072
    13   Atom       -0.024615      0.049953     -0.025337
    14   Atom       -0.012009      0.036754     -0.024745
    15   Atom        0.001282     -0.003723      0.002442
    16   Atom        0.006664     -0.009229      0.002565
    17   Atom        0.054471     -0.025877     -0.028595
    18   Atom        0.041710     -0.012645     -0.029065
    19   Atom       -0.005789     -0.001442      0.007231
    20   Atom       -0.009244      0.006755      0.002490
    21   Atom       -0.029991      0.056225     -0.026234
    22   Atom       -0.009966      0.036005     -0.026040
    23   Atom       -0.006484      0.015096     -0.008612
    24   Atom        0.031990     -0.010107     -0.021883
    25   Atom        0.014218     -0.006180     -0.008039
    26   Atom       -0.012355      0.030525     -0.018170
    27   Atom       -0.006640      0.014228     -0.007588
    28   Atom        0.033572     -0.013364     -0.020207
    29   Atom        0.015290     -0.006955     -0.008335
    30   Atom       -0.000224      0.004842     -0.004617
    31   Atom       -0.000828      0.004387     -0.003559
    32   Atom       -0.000992      0.004573     -0.003582
    33   Atom        0.001408      0.001717     -0.003125
    34   Atom        0.008250     -0.003898     -0.004351
    35   Atom        0.006383     -0.003255     -0.003128
    36   Atom        0.006751     -0.003144     -0.003607
    37   Atom        0.004395     -0.001349     -0.003047
    38   Atom       -0.004028      0.008825     -0.004797
    39   Atom       -0.003322      0.007079     -0.003757
    40   Atom       -0.003246      0.006606     -0.003360
    41   Atom       -0.001356      0.004594     -0.003238
    42   Atom        0.006896     -0.001367     -0.005529
    43   Atom        0.002340      0.000866     -0.003206
    44   Atom        0.001327      0.001952     -0.003278
    45   Atom        0.004035     -0.001803     -0.002232
    46   Atom        0.003155     -0.000920     -0.002235
    47   Atom        0.008327     -0.003629     -0.004699
    48   Atom        0.005367     -0.002572     -0.002794
    49   Atom        0.007649     -0.003454     -0.004195
    50   Atom        0.004593     -0.001381     -0.003212
    51   Atom       -0.000606      0.006868     -0.006262
    52   Atom       -0.001153      0.004689     -0.003535
    53   Atom        0.002058     -0.002034     -0.000024
    54   Atom        0.001459      0.000568     -0.002027
    55   Atom       -0.000208      0.002196     -0.001988
    56   Atom       -0.003701      0.007863     -0.004162
    57   Atom       -0.003189      0.007013     -0.003824
    58   Atom       -0.003079      0.005700     -0.002621
    59   Atom       -0.001308      0.004266     -0.002958
    60   Atom        0.004598     -0.000208     -0.004390
    61   Atom        0.004341     -0.000818     -0.003523
    62   Atom        0.001639      0.001396     -0.003035
    63   Atom        0.004204     -0.000895     -0.003309
    64   Atom       -0.003157     -0.004740      0.007898
    65   Atom       -0.002544     -0.002634      0.005178
    66   Atom       -0.002452     -0.002983      0.005435
    67   Atom       -0.000735     -0.003695      0.004430
    68   Atom       -0.013703     -0.008988      0.022691
    69   Atom       -0.004892     -0.006102      0.010994
    70   Atom       -0.011235     -0.006636      0.017871
    71   Atom       -0.015073     -0.025608      0.040681
    72   Atom        0.001598     -0.022574      0.020976
    73   Atom       -0.166995     -0.139597      0.306592
    74   Atom       -0.000635     -0.033045      0.033680
    75   Atom        0.009806     -0.018344      0.008538
    76   Atom       -0.007185      0.001733      0.005451
    77   Atom       -0.004237      0.003076      0.001161
    78   Atom       -0.003684     -0.002636      0.006319
    79   Atom       -0.004882      0.002751      0.002131
    80   Atom       -0.018116     -0.000369      0.018485
    81   Atom       -0.018530      0.011573      0.006957
    82   Atom       -0.008529     -0.003613      0.012142
    83   Atom       -0.215967     -0.294466      0.510433
    84   Atom       -0.009396     -0.015444      0.024840
    85   Atom        0.001788     -0.015190      0.013402
    86   Atom       -0.006068     -0.008204      0.014272
    87   Atom       -0.010041     -0.003665      0.013707
 --------------------------------------------------------
                        XY            XZ            YZ
 --------------------------------------------------------
     1   Atom        0.004105     -0.013631      0.013250
     2   Atom        0.213047      0.004252      0.015023
     3   Atom       -0.205496     -0.032808      0.021695
     4   Atom        0.216856      0.006460     -0.019022
     5   Atom       -0.224821      0.000661      0.029355
     6   Atom        0.034889     -0.001923      0.000173
     7   Atom        0.016265      0.000541      0.001340
     8   Atom        0.014175     -0.001336      0.001426
     9   Atom        0.009632      0.004390      0.000208
    10   Atom       -0.032701      0.000490     -0.001147
    11   Atom       -0.015367     -0.002897     -0.000312
    12   Atom       -0.013658     -0.001610     -0.002574
    13   Atom       -0.011593     -0.001989      0.010431
    14   Atom        0.032161      0.005333      0.009636
    15   Atom        0.015296      0.004798     -0.003241
    16   Atom        0.014092      0.002848     -0.002848
    17   Atom        0.013047     -0.005465     -0.001143
    18   Atom       -0.034333     -0.007999      0.003963
    19   Atom       -0.016180      0.005047      0.003268
    20   Atom       -0.014572      0.003973      0.001612
    21   Atom       -0.010972      0.000522     -0.002556
    22   Atom        0.008923     -0.002241     -0.004902
    23   Atom        0.004082     -0.000374     -0.001655
    24   Atom       -0.008341      0.004866     -0.001097
    25   Atom       -0.003921      0.001543     -0.000222
    26   Atom        0.007125     -0.000093      0.009757
    27   Atom        0.003319      0.000476      0.003703
    28   Atom       -0.006914     -0.008708      0.001103
    29   Atom       -0.003501     -0.003177      0.000564
    30   Atom        0.006670      0.000085      0.000177
    31   Atom        0.004724     -0.000752     -0.001606
    32   Atom        0.004689      0.000833      0.001814
    33   Atom        0.004455      0.000162      0.000159
    34   Atom        0.003509      0.000934      0.000214
    35   Atom        0.001898      0.002567      0.000280
    36   Atom        0.001766     -0.001019     -0.000021
    37   Atom        0.003341      0.000557      0.000241
    38   Atom       -0.003793      0.000126     -0.000448
    39   Atom       -0.001744     -0.000095      0.001485
    40   Atom       -0.002196      0.000267     -0.002280
    41   Atom       -0.003537     -0.000006     -0.000065
    42   Atom       -0.008361     -0.003246     -0.002939
    43   Atom       -0.004494     -0.000096     -0.000218
    44   Atom        0.001404      0.002027      0.007941
    45   Atom       -0.003758     -0.003439      0.001166
    46   Atom       -0.002709     -0.001203      0.000968
    47   Atom        0.003843     -0.000887     -0.000315
    48   Atom        0.002857     -0.002445     -0.000647
    49   Atom        0.001501      0.000302      0.000028
    50   Atom        0.003367      0.000358      0.000203
    51   Atom        0.008017     -0.002901      0.002211
    52   Atom        0.004643      0.000933      0.001968
    53   Atom        0.001032      0.007028     -0.003371
    54   Atom        0.003014     -0.001064     -0.000449
    55   Atom        0.002612      0.000381      0.000203
    56   Atom       -0.003503     -0.000496      0.001680
    57   Atom       -0.001742     -0.000108     -0.000168
    58   Atom       -0.002119     -0.000537      0.003178
    59   Atom       -0.003314     -0.000362      0.000838
    60   Atom       -0.006404     -0.000219      0.000122
    61   Atom       -0.004698      0.001530     -0.000688
    62   Atom       -0.004346     -0.000079      0.000103
    63   Atom       -0.004375     -0.001688      0.000819
    64   Atom       -0.000290      0.004607     -0.000828
    65   Atom       -0.000397      0.002126     -0.001820
    66   Atom        0.000219      0.002557      0.000905
    67   Atom       -0.000502      0.004723     -0.000810
    68   Atom        0.000729     -0.001586     -0.000606
    69   Atom       -0.000070     -0.003635      0.000014
    70   Atom        0.000428      0.005600     -0.001853
    71   Atom       -0.001812     -0.027406      0.000862
    72   Atom       -0.001407     -0.031118      0.001772
    73   Atom        0.002503      0.037494     -0.019817
    74   Atom       -0.005924      0.035018     -0.007514
    75   Atom       -0.005819      0.027773     -0.005559
    76   Atom       -0.005764      0.005662     -0.011917
    77   Atom       -0.011468      0.009709     -0.013298
    78   Atom       -0.003612      0.006267     -0.006901
    79   Atom       -0.002435      0.002210     -0.007766
    80   Atom        0.002232     -0.001149     -0.023812
    81   Atom        0.009167     -0.007505     -0.029450
    82   Atom        0.002467     -0.004378     -0.010296
    83   Atom        0.010033      0.226129     -0.008139
    84   Atom       -0.005801     -0.016795      0.010669
    85   Atom       -0.002109     -0.021033      0.002789
    86   Atom       -0.001642     -0.006026      0.003110
    87   Atom       -0.007516     -0.010643      0.016199
 --------------------------------------------------------


 ---------------------------------------------------------------------------------
              Anisotropic Spin Dipole Couplings in Principal Axis System
 ---------------------------------------------------------------------------------

       Atom             a.u.   MegaHertz   Gauss  10(-4) cm-1        Axes

              Baa    -0.1969    -3.409    -1.216    -1.137  0.0459 -0.0464  0.9979
     1 Fe(57) Bbb     0.0918     1.589     0.567     0.530 -0.2695  0.9613  0.0571
              Bcc     0.1051     1.820     0.649     0.607  0.9619  0.2716 -0.0316
 
              Baa    -0.1738    -6.702    -2.391    -2.235 -0.5609  0.8134 -0.1543
     2 N(14)  Bbb    -0.1088    -4.198    -1.498    -1.400 -0.1132  0.1093  0.9875
              Bcc     0.2826    10.900     3.889     3.636  0.8201  0.5714  0.0307
 
              Baa    -0.1704    -6.572    -2.345    -2.192  0.8068  0.5544  0.2045
     3 N(14)  Bbb    -0.1005    -3.875    -1.383    -1.293 -0.1106 -0.1983  0.9739
              Bcc     0.2709    10.447     3.728     3.485 -0.5804  0.8083  0.0987
 
              Baa    -0.1743    -6.724    -2.399    -2.243 -0.5596  0.7638  0.3217
     4 N(14)  Bbb    -0.1115    -4.301    -1.535    -1.435  0.2031 -0.2500  0.9467
              Bcc     0.2859    11.025     3.934     3.678  0.8035  0.5951 -0.0152
 
              Baa    -0.1851    -7.137    -2.547    -2.381  0.7827  0.5717 -0.2460
     5 N(14)  Bbb    -0.1116    -4.305    -1.536    -1.436  0.2331  0.0972  0.9676
              Bcc     0.2967    11.443     4.083     3.817 -0.5770  0.8147  0.0572
 
              Baa    -0.0303    -4.061    -1.449    -1.355  0.8475 -0.4536  0.2757
     6 C(13)  Bbb    -0.0236    -3.162    -1.128    -1.055 -0.2383  0.1391  0.9612
              Bcc     0.0538     7.223     2.577     2.409  0.4743  0.8803 -0.0098
 
              Baa    -0.0172    -2.306    -0.823    -0.769 -0.6435  0.7646 -0.0365
     7 C(13)  Bbb     0.0012     0.166     0.059     0.055 -0.0901 -0.0283  0.9955
              Bcc     0.0160     2.140     0.764     0.714  0.7601  0.6439  0.0871
 
              Baa    -0.0182    -2.438    -0.870    -0.813 -0.5033  0.8596 -0.0878
     8 C(13)  Bbb     0.0036     0.483     0.172     0.161 -0.0102  0.0957  0.9954
              Bcc     0.0146     1.955     0.698     0.652  0.8640  0.5019 -0.0394
 
              Baa    -0.0287    -3.854    -1.375    -1.286 -0.1228  0.9901  0.0687
     9 C(13)  Bbb    -0.0241    -3.234    -1.154    -1.079 -0.0483 -0.0751  0.9960
              Bcc     0.0528     7.088     2.529     2.364  0.9913  0.1190  0.0571
 
              Baa    -0.0285    -3.830    -1.367    -1.278  0.4641  0.8776  0.1204
    10 C(13)  Bbb    -0.0220    -2.951    -1.053    -0.984 -0.0682 -0.1001  0.9926
              Bcc     0.0505     6.781     2.420     2.262  0.8831 -0.4689  0.0134
 
              Baa    -0.0160    -2.153    -0.768    -0.718  0.7585  0.6348  0.1472
[...]
    29 H(1)   Bbb    -0.0075    -3.996    -1.426    -1.333  0.1595  0.9855  0.0576
              Bcc     0.0163     8.671     3.094     2.892  0.9799 -0.1510 -0.1301
 
              Baa    -0.0048    -0.648    -0.231    -0.216  0.8134 -0.5635  0.1444
    30 C(13)  Bbb    -0.0046    -0.619    -0.221    -0.207 -0.1266  0.0708  0.9894
              Bcc     0.0094     1.268     0.452     0.423  0.5678  0.8231  0.0137
 
              Baa    -0.0039    -2.097    -0.748    -0.699 -0.3326  0.3574  0.8727
    31 H(1)   Bbb    -0.0035    -1.883    -0.672    -0.628  0.7997 -0.3836  0.4618
              Bcc     0.0075     3.979     1.420     1.327  0.4998  0.8515 -0.1582
 
              Baa    -0.0040    -2.144    -0.765    -0.715  0.2990 -0.3506  0.8875
    32 H(1)   Bbb    -0.0036    -1.910    -0.682    -0.637  0.8219 -0.3779 -0.4262
              Bcc     0.0076     4.053     1.446     1.352  0.4848  0.8569  0.1752
 
              Baa    -0.0031    -1.670    -0.596    -0.557 -0.0372  0.0015  0.9993
    33 H(1)   Bbb    -0.0029    -1.545    -0.551    -0.515  0.7185 -0.6950  0.0278
              Bcc     0.0060     3.215     1.147     1.072  0.6946  0.7190  0.0248
 
              Baa    -0.0048    -0.650    -0.232    -0.217 -0.2635  0.9612  0.0816
    34 C(13)  Bbb    -0.0044    -0.593    -0.211    -0.198 -0.0464 -0.0971  0.9942
              Bcc     0.0093     1.242     0.443     0.414  0.9636  0.2581  0.0702
 
              Baa    -0.0039    -2.080    -0.742    -0.694 -0.2962  0.5278  0.7960
    35 H(1)   Bbb    -0.0035    -1.855    -0.662    -0.619 -0.0151  0.8307 -0.5565
              Bcc     0.0074     3.935     1.404     1.312  0.9550  0.1768  0.2381
 
              Baa    -0.0038    -2.013    -0.718    -0.672  0.1553 -0.4054  0.9008
    36 H(1)   Bbb    -0.0034    -1.802    -0.643    -0.601 -0.1140  0.8985  0.4240
              Bcc     0.0072     3.815     1.361     1.273  0.9813  0.1685 -0.0933
 
              Baa    -0.0031    -1.648    -0.588    -0.550 -0.0877  0.0305  0.9957
    37 H(1)   Bbb    -0.0029    -1.538    -0.549    -0.513 -0.4124  0.9088 -0.0641
              Bcc     0.0060     3.185     1.137     1.063  0.9068  0.4162  0.0671
 
              Baa    -0.0051    -0.679    -0.242    -0.227  0.9647  0.2630 -0.0138
    38 C(13)  Bbb    -0.0048    -0.646    -0.230    -0.215  0.0050  0.0342  0.9994
              Bcc     0.0099     1.325     0.473     0.442 -0.2633  0.9642 -0.0317
 
              Baa    -0.0040    -2.136    -0.762    -0.713 -0.3173 -0.1749  0.9321
    39 H(1)   Bbb    -0.0036    -1.896    -0.677    -0.633  0.9351  0.1061  0.3382
              Bcc     0.0076     4.032     1.439     1.345 -0.1580  0.9789  0.1298
 
              Baa    -0.0040    -2.131    -0.761    -0.711  0.5507  0.2830  0.7853
    40 H(1)   Bbb    -0.0036    -1.898    -0.677    -0.633  0.8104  0.0440 -0.5842
              Bcc     0.0076     4.030     1.438     1.344 -0.1999  0.9581 -0.2051
 
              Baa    -0.0032    -1.730    -0.617    -0.577  0.1202  0.0625  0.9908
    41 H(1)   Bbb    -0.0030    -1.600    -0.571    -0.534  0.8986  0.4174 -0.1354
              Bcc     0.0062     3.330     1.188     1.111 -0.4220  0.9066 -0.0059
 
              Baa    -0.0103    -1.384    -0.494    -0.462  0.4241  0.6147  0.6651
    42 C(13)  Bbb    -0.0019    -0.250    -0.089    -0.083 -0.2968 -0.5995  0.7433
              Bcc     0.0122     1.634     0.583     0.545  0.8556 -0.5126 -0.0718
 
              Baa    -0.0033    -1.782    -0.636    -0.595  0.3223  0.3890  0.8630
    43 H(1)   Bbb    -0.0028    -1.503    -0.536    -0.501  0.5616  0.6553 -0.5052
              Bcc     0.0062     3.286     1.172     1.096  0.7620 -0.6475  0.0073
 
              Baa    -0.0091    -1.220    -0.435    -0.407 -0.0809 -0.5752  0.8140
    44 C(13)  Bbb     0.0006     0.085     0.030     0.028  0.9468 -0.2995 -0.1176
              Bcc     0.0085     1.135     0.405     0.379  0.3114  0.7612  0.5688
 
              Baa    -0.0041    -2.165    -0.773    -0.722  0.5296  0.5479  0.6476
    45 H(1)   Bbb    -0.0032    -1.701    -0.607    -0.567  0.0622  0.7363 -0.6738
              Bcc     0.0072     3.866     1.380     1.290  0.8459 -0.3972 -0.3559
 
              Baa    -0.0028    -1.476    -0.527    -0.492 -0.0916 -0.5645  0.8203
    46 H(1)   Bbb    -0.0021    -1.101    -0.393    -0.367  0.4834  0.6950  0.5323
              Bcc     0.0048     2.577     0.920     0.860  0.8706 -0.4454 -0.2092
 
              Baa    -0.0048    -0.646    -0.230    -0.215 -0.1507  0.6807  0.7168
    47 C(13)  Bbb    -0.0047    -0.632    -0.225    -0.211  0.2466 -0.6763  0.6941
              Bcc     0.0095     1.277     0.456     0.426  0.9573  0.2814 -0.0660
 
              Baa    -0.0036    -1.923    -0.686    -0.641 -0.3864  0.6784 -0.6249
    48 H(1)   Bbb    -0.0033    -1.782    -0.636    -0.594 -0.0134  0.6734  0.7392
              Bcc     0.0069     3.704     1.322     1.236  0.9222  0.2939 -0.2511
 
              Baa    -0.0042    -2.242    -0.800    -0.748 -0.0279  0.0192  0.9994
    49 H(1)   Bbb    -0.0037    -1.949    -0.695    -0.650 -0.1311  0.9911 -0.0227
              Bcc     0.0079     4.191     1.496     1.398  0.9910  0.1316  0.0251
 
              Baa    -0.0032    -1.726    -0.616    -0.576  0.0063 -0.1201  0.9927
    50 H(1)   Bbb    -0.0029    -1.543    -0.550    -0.515 -0.4122  0.9042  0.1120
              Bcc     0.0061     3.268     1.166     1.090  0.9111  0.4099  0.0438
 
              Baa    -0.0096    -1.293    -0.461    -0.431  0.5677 -0.3740  0.7334
    51 C(13)  Bbb    -0.0023    -0.315    -0.112    -0.105 -0.6264  0.3819  0.6796
              Bcc     0.0120     1.608     0.574     0.536  0.5342  0.8452  0.0175
 
              Baa    -0.0040    -2.143    -0.765    -0.715  0.2725 -0.3481  0.8970
    52 H(1)   Bbb    -0.0037    -1.952    -0.697    -0.651  0.8381 -0.3721 -0.3990
              Bcc     0.0077     4.095     1.461     1.366  0.4727  0.8604  0.1904
 
              Baa    -0.0079    -1.060    -0.378    -0.354 -0.5361  0.4895  0.6878
    53 C(13)  Bbb    -0.0004    -0.058    -0.021    -0.019  0.4284  0.8598 -0.2780
              Bcc     0.0083     1.118     0.399     0.373  0.7274 -0.1457  0.6706
 
              Baa    -0.0025    -1.328    -0.474    -0.443  0.4975 -0.3756  0.7819
    54 H(1)   Bbb    -0.0018    -0.942    -0.336    -0.314 -0.4325  0.6740  0.5989
              Bcc     0.0043     2.269     0.810     0.757  0.7520  0.6361 -0.1729
 
              Baa    -0.0022    -1.157    -0.413    -0.386 -0.5268  0.2779  0.8033
    55 H(1)   Bbb    -0.0017    -0.921    -0.329    -0.307  0.6562 -0.4677  0.5921
              Bcc     0.0039     2.077     0.741     0.693  0.5402  0.8391  0.0640
 
              Baa    -0.0047    -0.628    -0.224    -0.210  0.9624  0.2570  0.0876
    56 C(13)  Bbb    -0.0044    -0.589    -0.210    -0.197 -0.0499 -0.1496  0.9875
              Bcc     0.0091     1.218     0.434     0.406 -0.2669  0.9547  0.1312
 
              Baa    -0.0039    -2.066    -0.737    -0.689  0.3161  0.0652  0.9465
    57 H(1)   Bbb    -0.0034    -1.831    -0.653    -0.611  0.9345  0.1507 -0.3225
              Bcc     0.0073     3.897     1.391     1.300 -0.1636  0.9864 -0.0133
 
              Baa    -0.0038    -2.028    -0.724    -0.677 -0.5245 -0.3730  0.7654
    58 H(1)   Bbb    -0.0034    -1.832    -0.654    -0.611  0.8259 -0.0045  0.5638
              Bcc     0.0072     3.861     1.378     1.288 -0.2068  0.9278  0.3104
 
              Baa    -0.0031    -1.630    -0.582    -0.544 -0.0685 -0.1440  0.9872
    59 H(1)   Bbb    -0.0028    -1.520    -0.542    -0.507  0.9051  0.4073  0.1222
              Bcc     0.0059     3.150     1.124     1.051 -0.4197  0.9019  0.1024
 
              Baa    -0.0046    -0.624    -0.223    -0.208  0.5684  0.8172  0.0951
    60 C(13)  Bbb    -0.0044    -0.589    -0.210    -0.197 -0.0390 -0.0887  0.9953
              Bcc     0.0090     1.213     0.433     0.405  0.8218 -0.5694 -0.0186
 
              Baa    -0.0039    -2.078    -0.741    -0.693 -0.3791 -0.3915  0.8384
    61 H(1)   Bbb    -0.0035    -1.858    -0.663    -0.620  0.3610  0.7717  0.5236
              Bcc     0.0074     3.936     1.404     1.313  0.8520 -0.5012  0.1512
 
              Baa    -0.0030    -1.621    -0.578    -0.541 -0.0535 -0.0756  0.9957
    62 H(1)   Bbb    -0.0028    -1.509    -0.538    -0.503  0.6952  0.7130  0.0915
              Bcc     0.0059     3.130     1.117     1.044  0.7168 -0.6971 -0.0144
 
              Baa    -0.0037    -1.976    -0.705    -0.659  0.3404  0.2675  0.9014
    63 H(1)   Bbb    -0.0034    -1.789    -0.638    -0.597  0.3927  0.8306 -0.3948
              Bcc     0.0071     3.765     1.343     1.256  0.8543 -0.4884 -0.1777
 
              Baa    -0.0048    -0.648    -0.231    -0.216  0.9011 -0.2648 -0.3435
    64 C(13)  Bbb    -0.0048    -0.643    -0.229    -0.214  0.2694  0.9624 -0.0350
              Bcc     0.0096     1.291     0.461     0.431  0.3398 -0.0610  0.9385
 
              Baa    -0.0031    -1.672    -0.597    -0.558  0.7859 -0.5309 -0.3172
    65 H(1)   Bbb    -0.0030    -1.593    -0.568    -0.531  0.5691  0.8215  0.0350
              Bcc     0.0061     3.265     1.165     1.089  0.2420 -0.2080  0.9477
 
              Baa    -0.0032    -1.720    -0.614    -0.574  0.9065  0.2981 -0.2989
    66 H(1)   Bbb    -0.0031    -1.634    -0.583    -0.545 -0.3144  0.9493 -0.0065
              Bcc     0.0063     3.353     1.197     1.119  0.2818  0.0999  0.9543
 
              Baa    -0.0038    -2.016    -0.719    -0.673  0.1085  0.9935  0.0356
    67 H(1)   Bbb    -0.0035    -1.886    -0.673    -0.629  0.8543 -0.0749 -0.5143
              Bcc     0.0073     3.902     1.392     1.302  0.5083 -0.0862  0.8569
 
              Baa    -0.0139    -0.535    -0.191    -0.178  0.9890 -0.1426  0.0405
    68 N(14)  Bbb    -0.0089    -0.343    -0.122    -0.114  0.1416  0.9896  0.0261
              Bcc     0.0228     0.878     0.313     0.293 -0.0438 -0.0201  0.9988
 
              Baa    -0.0061    -3.261    -1.164    -1.088  0.1483  0.9885  0.0307
    69 H(1)   Bbb    -0.0057    -3.028    -1.080    -1.010  0.9657 -0.1514  0.2107
              Bcc     0.0118     6.289     2.244     2.098 -0.2130  0.0016  0.9771
 
              Baa    -0.0124    -1.661    -0.593    -0.554  0.9730 -0.1333 -0.1883
    70 C(13)  Bbb    -0.0067    -0.893    -0.319    -0.298  0.1436  0.9887  0.0419
              Bcc     0.0190     2.554     0.911     0.852  0.1806 -0.0678  0.9812
 
              Baa    -0.0274    -3.670    -1.310    -1.224  0.7316  0.6184  0.2869
    71 C(13)  Bbb    -0.0246    -3.298    -1.177    -1.100 -0.5667  0.7856 -0.2484
              Bcc     0.0519     6.968     2.486     2.324 -0.3790  0.0191  0.9252
 
              Baa    -0.0227   -12.088    -4.313    -4.032  0.0690  0.9976  0.0087
    72 H(1)   Bbb    -0.0213   -11.364    -4.055    -3.791  0.8027 -0.0607  0.5934
              Bcc     0.0440    23.452     8.368     7.823 -0.5924  0.0340  0.8049
 
              Baa    -0.1705    -6.575    -2.346    -2.193  0.9876 -0.1334 -0.0832
    73 N(14)  Bbb    -0.1399    -5.396    -1.925    -1.800  0.1364  0.9901  0.0325
              Bcc     0.3104    11.971     4.272     3.993  0.0780 -0.0434  0.9960
 
              Baa    -0.0341    -4.582    -1.635    -1.529  0.1312  0.9905  0.0420
    74 C(13)  Bbb    -0.0224    -3.003    -1.072    -1.002  0.8394 -0.0885 -0.5362
              Bcc     0.0565     7.585     2.707     2.530  0.5274 -0.1056  0.8430
 
              Baa    -0.0195   -10.404    -3.713    -3.471  0.1713  0.9849  0.0256
    75 H(1)   Bbb    -0.0186    -9.924    -3.541    -3.310 -0.6850  0.1004  0.7216
              Bcc     0.0381    20.328     7.254     6.781  0.7081 -0.1411  0.6918
 
              Baa    -0.0100    -1.345    -0.480    -0.449  0.8772  0.4778  0.0469
    76 C(13)  Bbb    -0.0082    -1.099    -0.392    -0.366 -0.3729  0.6165  0.6935
              Bcc     0.0182     2.443     0.872     0.815  0.3024 -0.6259  0.7189
 
              Baa    -0.0126    -6.732    -2.402    -2.246  0.8063  0.5915  0.0027
    77 H(1)   Bbb    -0.0109    -5.838    -2.083    -1.947 -0.3521  0.4763  0.8057
              Bcc     0.0236    12.570     4.485     4.193 -0.4753  0.6506 -0.5923
 
              Baa    -0.0068    -3.653    -1.304    -1.219  0.8643  0.4764 -0.1617
    78 H(1)   Bbb    -0.0063    -3.374    -1.204    -1.125 -0.3124  0.7601  0.5698
              Bcc     0.0132     7.028     2.508     2.344  0.3943 -0.4419  0.8058
 
              Baa    -0.0056    -2.987    -1.066    -0.996  0.9259  0.3640  0.1009
    79 H(1)   Bbb    -0.0053    -2.828    -1.009    -0.943 -0.3179  0.6067  0.7286
              Bcc     0.0109     5.815     2.075     1.940 -0.2040  0.7067 -0.6774
 
              Baa    -0.0188    -2.528    -0.902    -0.843  0.8847 -0.4048 -0.2310
    80 C(13)  Bbb    -0.0159    -2.137    -0.762    -0.713  0.4642  0.7210  0.5145
              Bcc     0.0348     4.665     1.664     1.556 -0.0417 -0.5624  0.8258
 
              Baa    -0.0213   -11.384    -4.062    -3.797  0.8190 -0.4922 -0.2951
    81 H(1)   Bbb    -0.0198   -10.571    -3.772    -3.526  0.5399  0.4867  0.6868
              Bcc     0.0411    21.955     7.834     7.323  0.1944  0.7217 -0.6643
 
              Baa    -0.0096    -5.098    -1.819    -1.701  0.9381 -0.3454  0.0254
    82 H(1)   Bbb    -0.0086    -4.597    -1.640    -1.533  0.2930  0.8305  0.4737
              Bcc     0.0182     9.695     3.460     3.234 -0.1847 -0.4370  0.8803
 
              Baa    -0.3013   -12.354    -4.408    -4.121 -0.4772  0.8673  0.1416
    83 S(33)  Bbb    -0.2738   -11.225    -4.005    -3.744  0.8347  0.4977 -0.2355
              Bcc     0.5751    23.579     8.413     7.865  0.2748 -0.0058  0.9615
 
              Baa    -0.0190    -2.546    -0.909    -0.849  0.4784  0.8776 -0.0303
    84 C(13)  Bbb    -0.0156    -2.099    -0.749    -0.700  0.7948 -0.4180  0.4399
              Bcc     0.0346     4.645     1.657     1.549 -0.3734  0.2346  0.8975
 
              Baa    -0.0155    -8.250    -2.944    -2.752  0.0396  0.9969 -0.0675
    85 H(1)   Bbb    -0.0142    -7.590    -2.708    -2.532  0.7961  0.0094  0.6051
              Bcc     0.0297    15.840     5.652     5.284 -0.6039  0.0777  0.7933
 
              Baa    -0.0091    -4.853    -1.732    -1.619  0.4949  0.8688  0.0120
    86 H(1)   Bbb    -0.0073    -3.899    -1.391    -1.300  0.8272 -0.4754  0.2995
              Bcc     0.0164     8.752     3.123     2.919 -0.2660  0.1383  0.9540
 
              Baa    -0.0150    -8.013    -2.859    -2.673  0.8258  0.5639 -0.0121
    87 H(1)   Bbb    -0.0128    -6.851    -2.444    -2.285 -0.4614  0.6630 -0.5896
              Bcc     0.0279    14.864     5.304     4.958 -0.3245  0.4924  0.8076
 

 ---------------------------------------------------------------------------------

 Unable to Open any file for archive entry.
 1\1\GINC-BGN1031\SP\UAPFD\Gen\C37H42Fe1N6S1(1+,6)\BEBJONES\23-Jul-2024
 \0\\# apfd/gen scf=maxcycle=999 geom=check\\1hrc_III_H\\1,6\Fe,0,44.65
 66147757,28.0131016941,5.8773544757\N,0,44.857457521,26.4652096472,7.1
 434125225\N,0,43.9814052248,29.081380173,7.4716582428\N,0,44.418855919
 4,29.644673429,4.7607936601\N,0,45.407744429,26.9997163669,4.391978871
 6\C,0,45.4215319976,25.28047389,6.798371586\C,0,45.2431134944,24.31172
 06179,7.8609545436\C,0,44.5494158394,24.9390436373,8.8477256449\C,0,44
 .347818923,26.2988101097,8.3889100077\C,0,43.5736707277,28.5882516201,
 8.6779440888\C,0,43.059472736,29.6490451828,9.5176829144\C,0,43.162222
 4263,30.7929407179,8.7915272047\C,0,43.7082521069,30.4084959862,7.5088
 577817\C,0,44.1749158717,30.9199164301,5.1618929557\C,0,44.1474298402,
 31.8171876887,4.0219805044\C,0,44.4456691907,31.0424000235,2.930085956
 1\C,0,44.6423246711,29.7040899456,3.4191552961\C,0,45.4774519827,27.41
 14563405,3.0947984782\C,0,46.1378319763,26.3931071325,2.293520301\C,0,
 46.4895243425,25.3944165131,3.1638649825\C,0,45.9976097795,25.78301014
 02,4.4594834373\C,0,46.0634298266,25.0019579623,5.6053754756\H,0,46.54
 79425279,24.0431429923,5.5152872732\C,0,43.6579009952,27.2729919915,9.
 0868934209\H,0,43.2479167687,27.0127983191,10.0495992978\C,0,43.879873
 5248,31.2918075486,6.4584673031\H,0,43.6626782124,32.3341101155,6.6549
 043229\C,0,45.0403823622,28.6366390549,2.6228312095\H,0,45.1755784766,
 28.8426109692,1.574908902\C,0,45.7271182146,22.9055778288,7.8031333952
 \H,0,46.8029691888,22.8820595342,7.6334252591\H,0,45.2428378861,22.367
 130727,6.9869319733\H,0,45.5143825511,22.3818025083,8.732696383\C,0,44
 .0802921112,24.412519038,10.162147882\H,0,42.9959649518,24.4852296365,
 10.250166904\H,0,44.519129653,24.9784700259,10.9836020284\H,0,44.36163
 40968,23.3707187446,10.2849133336\C,0,47.1825051427,24.1117861472,2.85
 64397648\H,0,46.5290800361,23.2676724389,3.0745610016\H,0,48.087917729
 7,23.9929791394,3.4530411374\H,0,47.4539798197,24.062025611,1.80557136
 63\C,0,46.3666878849,26.4181322393,0.8623442222\H,0,47.3163568981,26.0
 175648042,0.5247526431\C,0,45.4924769244,26.845335395,-0.0411033343\H,
 0,44.5164277861,27.1988962672,0.2428526178\H,0,45.7078448321,26.832637
 6922,-1.0969188763\C,0,44.5919715073,31.4686592125,1.5150916478\H,0,43
 .675242847,31.2814893271,0.9526216541\H,0,45.4011425858,30.9274782242,
 1.0287813788\H,0,44.8095557935,32.532606326,1.4675720708\C,0,43.864084
 1889,33.2339638383,4.0839298632\H,0,44.1740066586,33.7346225592,4.9934
 551192\C,0,43.2600398504,33.9510222889,3.1399436978\H,0,42.8789036831,
 33.5122881579,2.2345725152\H,0,43.1028897781,35.0121540124,3.249490391
 1\C,0,42.8266205534,32.1901903853,9.1744608244\H,0,42.104371849,32.613
 1219035,8.4782894909\H,0,43.7178793226,32.818455103,9.1622679689\H,0,4
 2.4028055584,32.219562111,10.1734822635\C,0,42.5703938383,29.458090459
 4,10.9112756211\H,0,41.8297396297,28.6603465605,10.9528354671\H,0,42.1
 146796828,30.3713297913,11.2885282786\H,0,43.3952822893,29.1886066614,
 11.5736945448\C,0,49.9024240815,30.0422041037,5.7494494736\H,0,50.7356
 645372,29.3853273832,5.9980447526\H,0,50.0455220785,30.9851213878,6.27
 7620458\H,0,49.9184272616,30.237878403,4.6821664738\N,0,48.3130311777,
 29.0990570806,7.4309058742\H,0,48.9179745048,29.2288737973,8.225247183
 2\C,0,48.6061649975,29.4261433547,6.1321113529\C,0,47.0582551598,28.59
 89902205,7.4529294716\H,0,46.5550518014,28.2381884032,8.3258589006\N,0
 ,46.5365157983,28.5935155687,6.2536357862\C,0,47.4901444092,29.0959993
 483,5.4160679436\H,0,47.3283404478,29.1779603136,4.3602792248\C,0,40.5
 798036397,28.7431058744,6.7150388063\H,0,41.2726658666,28.8134169703,7
 .547957917\H,0,39.9775344837,27.8468113957,6.8432920484\H,0,39.9288514
 947,29.6144479806,6.7269870319\C,0,41.3404608694,28.6829665285,5.40580
 18125\H,0,41.959166362,29.5677456217,5.268096774\H,0,40.6593231566,28.
 5728071201,4.5629089166\S,0,42.4468922799,27.2142383993,5.3926658065\C
 ,0,42.284301118,26.7925793913,3.6273950664\H,0,42.5879679597,27.631763
 2577,3.0099165657\H,0,41.2491294744,26.5227291868,3.4348644256\H,0,42.
 9281352461,25.94209797,3.432686775\\Version=ES64L-G16RevC.02\State=6-A
 \HF=-3423.9880538\S2=8.759827\S2-1=0.\S2A=8.750029\RMSD=9.712e-09\Dipo
 le=1.2048987,0.3224258,0.6305326\Quadrupole=-4.5684732,-2.4714744,7.03
 99476,-4.8660699,2.1026112,-0.1672922\PG=C01 [X(C37H42Fe1N6S1)]\\@
 The archive entry for this job was punched.


 THE MORE PROGRESS PHYSICAL SCIENCES MAKE, THE MORE THEY TEND TO ENTER
 THE DOMAIN OF MATHEMATICS, WHICH IS A KIND OF CENTRE TO WHICH THEY ALL
 CONVERGE.  WE MAY EVEN JUDGE THE DEGREE OF PERFECTION TO WHICH A 
 SCIENCE HAS ARRIVED BY THE FACILITY WITH WHICH IT MAY BE SUBMITTED
 TO CALCULATION.

                               -- ADOLPHE QUETELET, 1796-1874
 Job cpu time:       0 days  2 hours 20 minutes 46.0 seconds.
 Elapsed time:       0 days  0 hours  2 minutes 24.2 seconds.
 File lengths (MBytes):  RWF=    505 Int=      0 D2E=      0 Chk=    257 Scr=      1
 Normal termination of Gaussian 16 at Tue Jul 23 22:54:16 2024.
